;
;   File g6dpocore_petim.itp  was generated
;   By user: sairam (1000)
;   On host: sairam
;   At date: Wed. January  3 10:21:23 2025
;
;   This is a standalone topology file
;
;   Created by:
;   ParmEd:       amb2gro_top_gro.py, VERSION 3.4.1
;   Executable:   amb2gro_top_gro.py
;   Library dir:  /usr/local/gromacs/share/gromacs/top
;   Command line:
;     ./amb2gro_top_gro.py -p g6dpocore_petim.prmtop -c g6dpocore_petim.inpcrd -t g6dpocore_petim.itp -g g6dpocore_petim.gro -b g6dpocore_petim.pdb
;

;[ defaults ]
;; nbfunc        comb-rule       gen-pairs       fudgeLJ fudgeQQ
;1               2               yes             0.5          0.83333333  
;
;[ atomtypes ]
;; name    at.num    mass    charge ptype  sigma      epsilon
;os             8  16.000000  0.00000000  A     0.30000123        0.71128
;c3             6  12.010000  0.00000000  A     0.33996695      0.4577296
;h1             1   1.008000  0.00000000  A      0.2471353      0.0656888
;hc             1   1.008000  0.00000000  A     0.26495328      0.0656888
;hx             1   1.008000  0.00000000  A     0.19599772      0.0656888
;n4             7  14.010000  0.00000000  A     0.32499985        0.71128
;hn             1   1.008000  0.00000000  A     0.10690785      0.0656888


[ moleculetype ]
; Name            nrexcl
g6dpocore_petim          3

[ atoms ]
;   nr       type  resnr residue  atom   cgnr    charge       mass  typeB    chargeB      massB
; residue    1 aaa rtp aaa q 2.0
    1         os      1    aaa     O1      1 -0.58111400  16.000000   ; qtot -0.581114
    2         c3      1    aaa     C1      2 0.17711200  12.010000   ; qtot -0.404002
    3         h1      1    aaa     H1      3 0.04565000   1.008000   ; qtot -0.358352
    4         h1      1    aaa     H2      4 0.04565000   1.008000   ; qtot -0.312702
    5         c3      1    aaa     C2      5 0.17711200  12.010000   ; qtot -0.135590
    6         h1      1    aaa     H3      6 0.04565000   1.008000   ; qtot -0.089940
    7         h1      1    aaa     H4      7 0.04565000   1.008000   ; qtot -0.044290
    8         c3      1    aaa     C3      8 0.15102100  12.010000   ; qtot 0.106731
    9         hc      1    aaa     H5      9 0.02538500   1.008000   ; qtot 0.132116
   10         hc      1    aaa     H6     10 0.02538500   1.008000   ; qtot 0.157501
   11         c3      1    aaa     C4     11 0.15102100  12.010000   ; qtot 0.308522
   12         hc      1    aaa     H7     12 0.02538500   1.008000   ; qtot 0.333907
   13         hc      1    aaa     H8     13 0.02538500   1.008000   ; qtot 0.359292
   14         c3      1    aaa     C5     14 -0.29474300  12.010000   ; qtot 0.064549
   15         hx      1    aaa     H9     15 0.12534200   1.008000   ; qtot 0.189891
   16         hx      1    aaa    H10     16 0.12534200   1.008000   ; qtot 0.315233
   17         c3      1    aaa     C6     17 -0.29474300  12.010000   ; qtot 0.020490
   18         hx      1    aaa    H11     18 0.12534200   1.008000   ; qtot 0.145832
   19         hx      1    aaa    H12     19 0.12534200   1.008000   ; qtot 0.271174
   20         n4      1    aaa     N1     20 -0.11447800  14.010000   ; qtot 0.156696
   21         n4      1    aaa     N2     21 -0.11447800  14.010000   ; qtot 0.042218
   22         c3      1    aaa     C7     22 -0.03432800  12.010000   ; qtot 0.007890
   23         hx      1    aaa    H13     23 0.10515400   1.008000   ; qtot 0.113044
   24         hx      1    aaa    H14     24 0.10515400   1.008000   ; qtot 0.218198
   25         c3      1    aaa     C8     25 -0.03432800  12.010000   ; qtot 0.183870
   26         hx      1    aaa    H15     26 0.10515400   1.008000   ; qtot 0.289024
   27         hx      1    aaa    H16     27 0.10515400   1.008000   ; qtot 0.394178
   28         c3      1    aaa     C9     28 -0.03432800  12.010000   ; qtot 0.359850
   29         hx      1    aaa    H17     29 0.10515400   1.008000   ; qtot 0.465004
   30         hx      1    aaa    H18     30 0.10515400   1.008000   ; qtot 0.570158
   31         c3      1    aaa    C10     31 -0.03432800  12.010000   ; qtot 0.535830
   32         hx      1    aaa    H19     32 0.10515400   1.008000   ; qtot 0.640984
   33         hx      1    aaa    H20     33 0.10515400   1.008000   ; qtot 0.746138
   34         c3      1    aaa    C11     34 -0.06183200  12.010000   ; qtot 0.684306
   35         hc      1    aaa    H21     35 0.08865200   1.008000   ; qtot 0.772958
   36         hc      1    aaa    H22     36 0.08865200   1.008000   ; qtot 0.861610
   37         c3      1    aaa    C12     37 -0.06183200  12.010000   ; qtot 0.799778
   38         hc      1    aaa    H23     38 0.08865200   1.008000   ; qtot 0.888430
   39         hc      1    aaa    H24     39 0.08865200   1.008000   ; qtot 0.977082
   40         c3      1    aaa    C13     40 -0.06183200  12.010000   ; qtot 0.915250
   41         hc      1    aaa    H25     41 0.08865200   1.008000   ; qtot 1.003902
   42         hc      1    aaa    H26     42 0.08865200   1.008000   ; qtot 1.092554
   43         c3      1    aaa    C14     43 -0.06183200  12.010000   ; qtot 1.030722
   44         hc      1    aaa    H27     44 0.08865200   1.008000   ; qtot 1.119374
   45         hc      1    aaa    H28     45 0.08865200   1.008000   ; qtot 1.208026
   46         c3      1    aaa    C15     46 -0.22217300  12.010000   ; qtot 0.985853
   47         hc      1    aaa    H29     47 0.16441900   1.008000   ; qtot 1.150272
   48         hc      1    aaa    H30     48 0.16441900   1.008000   ; qtot 1.314691
   49         c3      1    aaa    C16     49 -0.22217300  12.010000   ; qtot 1.092518
   50         hc      1    aaa    H31     50 0.16441900   1.008000   ; qtot 1.256937
   51         hc      1    aaa    H32     51 0.16441900   1.008000   ; qtot 1.421356
   52         c3      1    aaa    C17     52 -0.22217300  12.010000   ; qtot 1.199183
   53         hc      1    aaa    H33     53 0.16441900   1.008000   ; qtot 1.363602
   54         hc      1    aaa    H34     54 0.16441900   1.008000   ; qtot 1.528021
   55         c3      1    aaa    C18     55 -0.22217300  12.010000   ; qtot 1.305848
   56         hc      1    aaa    H35     56 0.16441900   1.008000   ; qtot 1.470267
   57         hc      1    aaa    H36     57 0.16441900   1.008000   ; qtot 1.634686
   58         hn      1    aaa    H38     58 0.18266300   1.008000   ; qtot 1.817349
   59         hn      1    aaa    H37     59 0.18266300   1.008000   ; qtot 2.000012
; residue    2 bbb rtp bbb q 1.0
   60         n4      2    bbb     N1     60 0.03726400  14.010000   ; qtot 2.037276
   61         c3      2    bbb     C1     61 -0.07020100  12.010000   ; qtot 1.967075
   62         hx      2    bbb     H1     62 0.12219000   1.008000   ; qtot 2.089265
   63         hx      2    bbb     H2     63 0.12219000   1.008000   ; qtot 2.211455
   64         c3      2    bbb     C2     64 -0.07020100  12.010000   ; qtot 2.141254
   65         hx      2    bbb     H3     65 0.12219000   1.008000   ; qtot 2.263444
   66         hx      2    bbb     H4     66 0.12219000   1.008000   ; qtot 2.385634
   67         c3      2    bbb     C3     67 -0.39007700  12.010000   ; qtot 1.995557
   68         hx      2    bbb     H5     68 0.14940300   1.008000   ; qtot 2.144960
   69         hx      2    bbb     H6     69 0.14940300   1.008000   ; qtot 2.294363
   70         c3      2    bbb     C4     70 0.18057300  12.010000   ; qtot 2.474936
   71         hc      2    bbb     H7     71 0.01788900   1.008000   ; qtot 2.492825
   72         hc      2    bbb     H8     72 0.01788900   1.008000   ; qtot 2.510714
   73         c3      2    bbb     C5     73 -0.11337700  12.010000   ; qtot 2.397337
   74         hc      2    bbb     H9     74 0.09515400   1.008000   ; qtot 2.492491
   75         hc      2    bbb    H10     75 0.09515400   1.008000   ; qtot 2.587645
   76         c3      2    bbb     C6     76 -0.11337700  12.010000   ; qtot 2.474268
   77         hc      2    bbb    H11     77 0.09515400   1.008000   ; qtot 2.569422
   78         hc      2    bbb    H12     78 0.09515400   1.008000   ; qtot 2.664576
   79         c3      2    bbb     C7     79 0.21842400  12.010000   ; qtot 2.883000
   80         h1      2    bbb    H13     80 0.04500300   1.008000   ; qtot 2.928003
   81         h1      2    bbb    H14     81 0.04500300   1.008000   ; qtot 2.973006
   82         c3      2    bbb     C8     82 -0.06455200  12.010000   ; qtot 2.908454
   83         h1      2    bbb    H15     83 0.13554100   1.008000   ; qtot 3.043995
   84         h1      2    bbb    H16     84 0.13554100   1.008000   ; qtot 3.179536
   85         c3      2    bbb     C9     85 -0.06455200  12.010000   ; qtot 3.114984
   86         h1      2    bbb    H17     86 0.13554100   1.008000   ; qtot 3.250525
   87         h1      2    bbb    H18     87 0.13554100   1.008000   ; qtot 3.386066
   88         os      2    bbb     O1     88 -0.62587700  16.000000   ; qtot 2.760189
   89         hn      2    bbb    H19     89 0.23982500   1.008000   ; qtot 3.000014
; residue    3 bbb rtp bbb q 1.0
   90         n4      3    bbb     N1     90 0.03726400  14.010000   ; qtot 3.037278
   91         c3      3    bbb     C1     91 -0.07020100  12.010000   ; qtot 2.967077
   92         hx      3    bbb     H1     92 0.12219000   1.008000   ; qtot 3.089267
   93         hx      3    bbb     H2     93 0.12219000   1.008000   ; qtot 3.211457
   94         c3      3    bbb     C2     94 -0.07020100  12.010000   ; qtot 3.141256
   95         hx      3    bbb     H3     95 0.12219000   1.008000   ; qtot 3.263446
   96         hx      3    bbb     H4     96 0.12219000   1.008000   ; qtot 3.385636
   97         c3      3    bbb     C3     97 -0.39007700  12.010000   ; qtot 2.995559
   98         hx      3    bbb     H5     98 0.14940300   1.008000   ; qtot 3.144962
   99         hx      3    bbb     H6     99 0.14940300   1.008000   ; qtot 3.294365
  100         c3      3    bbb     C4    100 0.18057300  12.010000   ; qtot 3.474938
  101         hc      3    bbb     H7    101 0.01788900   1.008000   ; qtot 3.492827
  102         hc      3    bbb     H8    102 0.01788900   1.008000   ; qtot 3.510716
  103         c3      3    bbb     C5    103 -0.11337700  12.010000   ; qtot 3.397339
  104         hc      3    bbb     H9    104 0.09515400   1.008000   ; qtot 3.492493
  105         hc      3    bbb    H10    105 0.09515400   1.008000   ; qtot 3.587647
  106         c3      3    bbb     C6    106 -0.11337700  12.010000   ; qtot 3.474270
  107         hc      3    bbb    H11    107 0.09515400   1.008000   ; qtot 3.569424
  108         hc      3    bbb    H12    108 0.09515400   1.008000   ; qtot 3.664578
  109         c3      3    bbb     C7    109 0.21842400  12.010000   ; qtot 3.883002
  110         h1      3    bbb    H13    110 0.04500300   1.008000   ; qtot 3.928005
  111         h1      3    bbb    H14    111 0.04500300   1.008000   ; qtot 3.973008
  112         c3      3    bbb     C8    112 -0.06455200  12.010000   ; qtot 3.908456
  113         h1      3    bbb    H15    113 0.13554100   1.008000   ; qtot 4.043997
  114         h1      3    bbb    H16    114 0.13554100   1.008000   ; qtot 4.179538
  115         c3      3    bbb     C9    115 -0.06455200  12.010000   ; qtot 4.114986
  116         h1      3    bbb    H17    116 0.13554100   1.008000   ; qtot 4.250527
  117         h1      3    bbb    H18    117 0.13554100   1.008000   ; qtot 4.386068
  118         os      3    bbb     O1    118 -0.62587700  16.000000   ; qtot 3.760191
  119         hn      3    bbb    H19    119 0.23982500   1.008000   ; qtot 4.000016
; residue    4 bbb rtp bbb q 1.0
  120         n4      4    bbb     N1    120 0.03726400  14.010000   ; qtot 4.037280
  121         c3      4    bbb     C1    121 -0.07020100  12.010000   ; qtot 3.967079
  122         hx      4    bbb     H1    122 0.12219000   1.008000   ; qtot 4.089269
  123         hx      4    bbb     H2    123 0.12219000   1.008000   ; qtot 4.211459
  124         c3      4    bbb     C2    124 -0.07020100  12.010000   ; qtot 4.141258
  125         hx      4    bbb     H3    125 0.12219000   1.008000   ; qtot 4.263448
  126         hx      4    bbb     H4    126 0.12219000   1.008000   ; qtot 4.385638
  127         c3      4    bbb     C3    127 -0.39007700  12.010000   ; qtot 3.995561
  128         hx      4    bbb     H5    128 0.14940300   1.008000   ; qtot 4.144964
  129         hx      4    bbb     H6    129 0.14940300   1.008000   ; qtot 4.294367
  130         c3      4    bbb     C4    130 0.18057300  12.010000   ; qtot 4.474940
  131         hc      4    bbb     H7    131 0.01788900   1.008000   ; qtot 4.492829
  132         hc      4    bbb     H8    132 0.01788900   1.008000   ; qtot 4.510718
  133         c3      4    bbb     C5    133 -0.11337700  12.010000   ; qtot 4.397341
  134         hc      4    bbb     H9    134 0.09515400   1.008000   ; qtot 4.492495
  135         hc      4    bbb    H10    135 0.09515400   1.008000   ; qtot 4.587649
  136         c3      4    bbb     C6    136 -0.11337700  12.010000   ; qtot 4.474272
  137         hc      4    bbb    H11    137 0.09515400   1.008000   ; qtot 4.569426
  138         hc      4    bbb    H12    138 0.09515400   1.008000   ; qtot 4.664580
  139         c3      4    bbb     C7    139 0.21842400  12.010000   ; qtot 4.883004
  140         h1      4    bbb    H13    140 0.04500300   1.008000   ; qtot 4.928007
  141         h1      4    bbb    H14    141 0.04500300   1.008000   ; qtot 4.973010
  142         c3      4    bbb     C8    142 -0.06455200  12.010000   ; qtot 4.908458
  143         h1      4    bbb    H15    143 0.13554100   1.008000   ; qtot 5.043999
  144         h1      4    bbb    H16    144 0.13554100   1.008000   ; qtot 5.179540
  145         c3      4    bbb     C9    145 -0.06455200  12.010000   ; qtot 5.114988
  146         h1      4    bbb    H17    146 0.13554100   1.008000   ; qtot 5.250529
  147         h1      4    bbb    H18    147 0.13554100   1.008000   ; qtot 5.386070
  148         os      4    bbb     O1    148 -0.62587700  16.000000   ; qtot 4.760193
  149         hn      4    bbb    H19    149 0.23982500   1.008000   ; qtot 5.000018
; residue    5 bbb rtp bbb q 1.0
  150         n4      5    bbb     N1    150 0.03726400  14.010000   ; qtot 5.037282
  151         c3      5    bbb     C1    151 -0.07020100  12.010000   ; qtot 4.967081
  152         hx      5    bbb     H1    152 0.12219000   1.008000   ; qtot 5.089271
  153         hx      5    bbb     H2    153 0.12219000   1.008000   ; qtot 5.211461
  154         c3      5    bbb     C2    154 -0.07020100  12.010000   ; qtot 5.141260
  155         hx      5    bbb     H3    155 0.12219000   1.008000   ; qtot 5.263450
  156         hx      5    bbb     H4    156 0.12219000   1.008000   ; qtot 5.385640
  157         c3      5    bbb     C3    157 -0.39007700  12.010000   ; qtot 4.995563
  158         hx      5    bbb     H5    158 0.14940300   1.008000   ; qtot 5.144966
  159         hx      5    bbb     H6    159 0.14940300   1.008000   ; qtot 5.294369
  160         c3      5    bbb     C4    160 0.18057300  12.010000   ; qtot 5.474942
  161         hc      5    bbb     H7    161 0.01788900   1.008000   ; qtot 5.492831
  162         hc      5    bbb     H8    162 0.01788900   1.008000   ; qtot 5.510720
  163         c3      5    bbb     C5    163 -0.11337700  12.010000   ; qtot 5.397343
  164         hc      5    bbb     H9    164 0.09515400   1.008000   ; qtot 5.492497
  165         hc      5    bbb    H10    165 0.09515400   1.008000   ; qtot 5.587651
  166         c3      5    bbb     C6    166 -0.11337700  12.010000   ; qtot 5.474274
  167         hc      5    bbb    H11    167 0.09515400   1.008000   ; qtot 5.569428
  168         hc      5    bbb    H12    168 0.09515400   1.008000   ; qtot 5.664582
  169         c3      5    bbb     C7    169 0.21842400  12.010000   ; qtot 5.883006
  170         h1      5    bbb    H13    170 0.04500300   1.008000   ; qtot 5.928009
  171         h1      5    bbb    H14    171 0.04500300   1.008000   ; qtot 5.973012
  172         c3      5    bbb     C8    172 -0.06455200  12.010000   ; qtot 5.908460
  173         h1      5    bbb    H15    173 0.13554100   1.008000   ; qtot 6.044001
  174         h1      5    bbb    H16    174 0.13554100   1.008000   ; qtot 6.179542
  175         c3      5    bbb     C9    175 -0.06455200  12.010000   ; qtot 6.114990
  176         h1      5    bbb    H17    176 0.13554100   1.008000   ; qtot 6.250531
  177         h1      5    bbb    H18    177 0.13554100   1.008000   ; qtot 6.386072
  178         os      5    bbb     O1    178 -0.62587700  16.000000   ; qtot 5.760195
  179         hn      5    bbb    H19    179 0.23982500   1.008000   ; qtot 6.000020
; residue    6 bbb rtp bbb q 1.0
  180         n4      6    bbb     N1    180 0.03726400  14.010000   ; qtot 6.037284
  181         c3      6    bbb     C1    181 -0.07020100  12.010000   ; qtot 5.967083
  182         hx      6    bbb     H1    182 0.12219000   1.008000   ; qtot 6.089273
  183         hx      6    bbb     H2    183 0.12219000   1.008000   ; qtot 6.211463
  184         c3      6    bbb     C2    184 -0.07020100  12.010000   ; qtot 6.141262
  185         hx      6    bbb     H3    185 0.12219000   1.008000   ; qtot 6.263452
  186         hx      6    bbb     H4    186 0.12219000   1.008000   ; qtot 6.385642
  187         c3      6    bbb     C3    187 -0.39007700  12.010000   ; qtot 5.995565
  188         hx      6    bbb     H5    188 0.14940300   1.008000   ; qtot 6.144968
  189         hx      6    bbb     H6    189 0.14940300   1.008000   ; qtot 6.294371
  190         c3      6    bbb     C4    190 0.18057300  12.010000   ; qtot 6.474944
  191         hc      6    bbb     H7    191 0.01788900   1.008000   ; qtot 6.492833
  192         hc      6    bbb     H8    192 0.01788900   1.008000   ; qtot 6.510722
  193         c3      6    bbb     C5    193 -0.11337700  12.010000   ; qtot 6.397345
  194         hc      6    bbb     H9    194 0.09515400   1.008000   ; qtot 6.492499
  195         hc      6    bbb    H10    195 0.09515400   1.008000   ; qtot 6.587653
  196         c3      6    bbb     C6    196 -0.11337700  12.010000   ; qtot 6.474276
  197         hc      6    bbb    H11    197 0.09515400   1.008000   ; qtot 6.569430
  198         hc      6    bbb    H12    198 0.09515400   1.008000   ; qtot 6.664584
  199         c3      6    bbb     C7    199 0.21842400  12.010000   ; qtot 6.883008
  200         h1      6    bbb    H13    200 0.04500300   1.008000   ; qtot 6.928011
  201         h1      6    bbb    H14    201 0.04500300   1.008000   ; qtot 6.973014
  202         c3      6    bbb     C8    202 -0.06455200  12.010000   ; qtot 6.908462
  203         h1      6    bbb    H15    203 0.13554100   1.008000   ; qtot 7.044003
  204         h1      6    bbb    H16    204 0.13554100   1.008000   ; qtot 7.179544
  205         c3      6    bbb     C9    205 -0.06455200  12.010000   ; qtot 7.114992
  206         h1      6    bbb    H17    206 0.13554100   1.008000   ; qtot 7.250533
  207         h1      6    bbb    H18    207 0.13554100   1.008000   ; qtot 7.386074
  208         os      6    bbb     O1    208 -0.62587700  16.000000   ; qtot 6.760197
  209         hn      6    bbb    H19    209 0.23982500   1.008000   ; qtot 7.000022
; residue    7 bbb rtp bbb q 1.0
  210         n4      7    bbb     N1    210 0.03726400  14.010000   ; qtot 7.037286
  211         c3      7    bbb     C1    211 -0.07020100  12.010000   ; qtot 6.967085
  212         hx      7    bbb     H1    212 0.12219000   1.008000   ; qtot 7.089275
  213         hx      7    bbb     H2    213 0.12219000   1.008000   ; qtot 7.211465
  214         c3      7    bbb     C2    214 -0.07020100  12.010000   ; qtot 7.141264
  215         hx      7    bbb     H3    215 0.12219000   1.008000   ; qtot 7.263454
  216         hx      7    bbb     H4    216 0.12219000   1.008000   ; qtot 7.385644
  217         c3      7    bbb     C3    217 -0.39007700  12.010000   ; qtot 6.995567
  218         hx      7    bbb     H5    218 0.14940300   1.008000   ; qtot 7.144970
  219         hx      7    bbb     H6    219 0.14940300   1.008000   ; qtot 7.294373
  220         c3      7    bbb     C4    220 0.18057300  12.010000   ; qtot 7.474946
  221         hc      7    bbb     H7    221 0.01788900   1.008000   ; qtot 7.492835
  222         hc      7    bbb     H8    222 0.01788900   1.008000   ; qtot 7.510724
  223         c3      7    bbb     C5    223 -0.11337700  12.010000   ; qtot 7.397347
  224         hc      7    bbb     H9    224 0.09515400   1.008000   ; qtot 7.492501
  225         hc      7    bbb    H10    225 0.09515400   1.008000   ; qtot 7.587655
  226         c3      7    bbb     C6    226 -0.11337700  12.010000   ; qtot 7.474278
  227         hc      7    bbb    H11    227 0.09515400   1.008000   ; qtot 7.569432
  228         hc      7    bbb    H12    228 0.09515400   1.008000   ; qtot 7.664586
  229         c3      7    bbb     C7    229 0.21842400  12.010000   ; qtot 7.883010
  230         h1      7    bbb    H13    230 0.04500300   1.008000   ; qtot 7.928013
  231         h1      7    bbb    H14    231 0.04500300   1.008000   ; qtot 7.973016
  232         c3      7    bbb     C8    232 -0.06455200  12.010000   ; qtot 7.908464
  233         h1      7    bbb    H15    233 0.13554100   1.008000   ; qtot 8.044005
  234         h1      7    bbb    H16    234 0.13554100   1.008000   ; qtot 8.179546
  235         c3      7    bbb     C9    235 -0.06455200  12.010000   ; qtot 8.114994
  236         h1      7    bbb    H17    236 0.13554100   1.008000   ; qtot 8.250535
  237         h1      7    bbb    H18    237 0.13554100   1.008000   ; qtot 8.386076
  238         os      7    bbb     O1    238 -0.62587700  16.000000   ; qtot 7.760199
  239         hn      7    bbb    H19    239 0.23982500   1.008000   ; qtot 8.000024
; residue    8 bbb rtp bbb q 1.0
  240         n4      8    bbb     N1    240 0.03726400  14.010000   ; qtot 8.037288
  241         c3      8    bbb     C1    241 -0.07020100  12.010000   ; qtot 7.967087
  242         hx      8    bbb     H1    242 0.12219000   1.008000   ; qtot 8.089277
  243         hx      8    bbb     H2    243 0.12219000   1.008000   ; qtot 8.211467
  244         c3      8    bbb     C2    244 -0.07020100  12.010000   ; qtot 8.141266
  245         hx      8    bbb     H3    245 0.12219000   1.008000   ; qtot 8.263456
  246         hx      8    bbb     H4    246 0.12219000   1.008000   ; qtot 8.385646
  247         c3      8    bbb     C3    247 -0.39007700  12.010000   ; qtot 7.995569
  248         hx      8    bbb     H5    248 0.14940300   1.008000   ; qtot 8.144972
  249         hx      8    bbb     H6    249 0.14940300   1.008000   ; qtot 8.294375
  250         c3      8    bbb     C4    250 0.18057300  12.010000   ; qtot 8.474948
  251         hc      8    bbb     H7    251 0.01788900   1.008000   ; qtot 8.492837
  252         hc      8    bbb     H8    252 0.01788900   1.008000   ; qtot 8.510726
  253         c3      8    bbb     C5    253 -0.11337700  12.010000   ; qtot 8.397349
  254         hc      8    bbb     H9    254 0.09515400   1.008000   ; qtot 8.492503
  255         hc      8    bbb    H10    255 0.09515400   1.008000   ; qtot 8.587657
  256         c3      8    bbb     C6    256 -0.11337700  12.010000   ; qtot 8.474280
  257         hc      8    bbb    H11    257 0.09515400   1.008000   ; qtot 8.569434
  258         hc      8    bbb    H12    258 0.09515400   1.008000   ; qtot 8.664588
  259         c3      8    bbb     C7    259 0.21842400  12.010000   ; qtot 8.883012
  260         h1      8    bbb    H13    260 0.04500300   1.008000   ; qtot 8.928015
  261         h1      8    bbb    H14    261 0.04500300   1.008000   ; qtot 8.973018
  262         c3      8    bbb     C8    262 -0.06455200  12.010000   ; qtot 8.908466
  263         h1      8    bbb    H15    263 0.13554100   1.008000   ; qtot 9.044007
  264         h1      8    bbb    H16    264 0.13554100   1.008000   ; qtot 9.179548
  265         c3      8    bbb     C9    265 -0.06455200  12.010000   ; qtot 9.114996
  266         h1      8    bbb    H17    266 0.13554100   1.008000   ; qtot 9.250537
  267         h1      8    bbb    H18    267 0.13554100   1.008000   ; qtot 9.386078
  268         os      8    bbb     O1    268 -0.62587700  16.000000   ; qtot 8.760201
  269         hn      8    bbb    H19    269 0.23982500   1.008000   ; qtot 9.000026
; residue    9 bbb rtp bbb q 1.0
  270         n4      9    bbb     N1    270 0.03726400  14.010000   ; qtot 9.037290
  271         c3      9    bbb     C1    271 -0.07020100  12.010000   ; qtot 8.967089
  272         hx      9    bbb     H1    272 0.12219000   1.008000   ; qtot 9.089279
  273         hx      9    bbb     H2    273 0.12219000   1.008000   ; qtot 9.211469
  274         c3      9    bbb     C2    274 -0.07020100  12.010000   ; qtot 9.141268
  275         hx      9    bbb     H3    275 0.12219000   1.008000   ; qtot 9.263458
  276         hx      9    bbb     H4    276 0.12219000   1.008000   ; qtot 9.385648
  277         c3      9    bbb     C3    277 -0.39007700  12.010000   ; qtot 8.995571
  278         hx      9    bbb     H5    278 0.14940300   1.008000   ; qtot 9.144974
  279         hx      9    bbb     H6    279 0.14940300   1.008000   ; qtot 9.294377
  280         c3      9    bbb     C4    280 0.18057300  12.010000   ; qtot 9.474950
  281         hc      9    bbb     H7    281 0.01788900   1.008000   ; qtot 9.492839
  282         hc      9    bbb     H8    282 0.01788900   1.008000   ; qtot 9.510728
  283         c3      9    bbb     C5    283 -0.11337700  12.010000   ; qtot 9.397351
  284         hc      9    bbb     H9    284 0.09515400   1.008000   ; qtot 9.492505
  285         hc      9    bbb    H10    285 0.09515400   1.008000   ; qtot 9.587659
  286         c3      9    bbb     C6    286 -0.11337700  12.010000   ; qtot 9.474282
  287         hc      9    bbb    H11    287 0.09515400   1.008000   ; qtot 9.569436
  288         hc      9    bbb    H12    288 0.09515400   1.008000   ; qtot 9.664590
  289         c3      9    bbb     C7    289 0.21842400  12.010000   ; qtot 9.883014
  290         h1      9    bbb    H13    290 0.04500300   1.008000   ; qtot 9.928017
  291         h1      9    bbb    H14    291 0.04500300   1.008000   ; qtot 9.973020
  292         c3      9    bbb     C8    292 -0.06455200  12.010000   ; qtot 9.908468
  293         h1      9    bbb    H15    293 0.13554100   1.008000   ; qtot 10.044009
  294         h1      9    bbb    H16    294 0.13554100   1.008000   ; qtot 10.179550
  295         c3      9    bbb     C9    295 -0.06455200  12.010000   ; qtot 10.114998
  296         h1      9    bbb    H17    296 0.13554100   1.008000   ; qtot 10.250539
  297         h1      9    bbb    H18    297 0.13554100   1.008000   ; qtot 10.386080
  298         os      9    bbb     O1    298 -0.62587700  16.000000   ; qtot 9.760203
  299         hn      9    bbb    H19    299 0.23982500   1.008000   ; qtot 10.000028
; residue   10 bbb rtp bbb q 1.0
  300         n4     10    bbb     N1    300 0.03726400  14.010000   ; qtot 10.037292
  301         c3     10    bbb     C1    301 -0.07020100  12.010000   ; qtot 9.967091
  302         hx     10    bbb     H1    302 0.12219000   1.008000   ; qtot 10.089281
  303         hx     10    bbb     H2    303 0.12219000   1.008000   ; qtot 10.211471
  304         c3     10    bbb     C2    304 -0.07020100  12.010000   ; qtot 10.141270
  305         hx     10    bbb     H3    305 0.12219000   1.008000   ; qtot 10.263460
  306         hx     10    bbb     H4    306 0.12219000   1.008000   ; qtot 10.385650
  307         c3     10    bbb     C3    307 -0.39007700  12.010000   ; qtot 9.995573
  308         hx     10    bbb     H5    308 0.14940300   1.008000   ; qtot 10.144976
  309         hx     10    bbb     H6    309 0.14940300   1.008000   ; qtot 10.294379
  310         c3     10    bbb     C4    310 0.18057300  12.010000   ; qtot 10.474952
  311         hc     10    bbb     H7    311 0.01788900   1.008000   ; qtot 10.492841
  312         hc     10    bbb     H8    312 0.01788900   1.008000   ; qtot 10.510730
  313         c3     10    bbb     C5    313 -0.11337700  12.010000   ; qtot 10.397353
  314         hc     10    bbb     H9    314 0.09515400   1.008000   ; qtot 10.492507
  315         hc     10    bbb    H10    315 0.09515400   1.008000   ; qtot 10.587661
  316         c3     10    bbb     C6    316 -0.11337700  12.010000   ; qtot 10.474284
  317         hc     10    bbb    H11    317 0.09515400   1.008000   ; qtot 10.569438
  318         hc     10    bbb    H12    318 0.09515400   1.008000   ; qtot 10.664592
  319         c3     10    bbb     C7    319 0.21842400  12.010000   ; qtot 10.883016
  320         h1     10    bbb    H13    320 0.04500300   1.008000   ; qtot 10.928019
  321         h1     10    bbb    H14    321 0.04500300   1.008000   ; qtot 10.973022
  322         c3     10    bbb     C8    322 -0.06455200  12.010000   ; qtot 10.908470
  323         h1     10    bbb    H15    323 0.13554100   1.008000   ; qtot 11.044011
  324         h1     10    bbb    H16    324 0.13554100   1.008000   ; qtot 11.179552
  325         c3     10    bbb     C9    325 -0.06455200  12.010000   ; qtot 11.115000
  326         h1     10    bbb    H17    326 0.13554100   1.008000   ; qtot 11.250541
  327         h1     10    bbb    H18    327 0.13554100   1.008000   ; qtot 11.386082
  328         os     10    bbb     O1    328 -0.62587700  16.000000   ; qtot 10.760205
  329         hn     10    bbb    H19    329 0.23982500   1.008000   ; qtot 11.000030
; residue   11 bbb rtp bbb q 1.0
  330         n4     11    bbb     N1    330 0.03726400  14.010000   ; qtot 11.037294
  331         c3     11    bbb     C1    331 -0.07020100  12.010000   ; qtot 10.967093
  332         hx     11    bbb     H1    332 0.12219000   1.008000   ; qtot 11.089283
  333         hx     11    bbb     H2    333 0.12219000   1.008000   ; qtot 11.211473
  334         c3     11    bbb     C2    334 -0.07020100  12.010000   ; qtot 11.141272
  335         hx     11    bbb     H3    335 0.12219000   1.008000   ; qtot 11.263462
  336         hx     11    bbb     H4    336 0.12219000   1.008000   ; qtot 11.385652
  337         c3     11    bbb     C3    337 -0.39007700  12.010000   ; qtot 10.995575
  338         hx     11    bbb     H5    338 0.14940300   1.008000   ; qtot 11.144978
  339         hx     11    bbb     H6    339 0.14940300   1.008000   ; qtot 11.294381
  340         c3     11    bbb     C4    340 0.18057300  12.010000   ; qtot 11.474954
  341         hc     11    bbb     H7    341 0.01788900   1.008000   ; qtot 11.492843
  342         hc     11    bbb     H8    342 0.01788900   1.008000   ; qtot 11.510732
  343         c3     11    bbb     C5    343 -0.11337700  12.010000   ; qtot 11.397355
  344         hc     11    bbb     H9    344 0.09515400   1.008000   ; qtot 11.492509
  345         hc     11    bbb    H10    345 0.09515400   1.008000   ; qtot 11.587663
  346         c3     11    bbb     C6    346 -0.11337700  12.010000   ; qtot 11.474286
  347         hc     11    bbb    H11    347 0.09515400   1.008000   ; qtot 11.569440
  348         hc     11    bbb    H12    348 0.09515400   1.008000   ; qtot 11.664594
  349         c3     11    bbb     C7    349 0.21842400  12.010000   ; qtot 11.883018
  350         h1     11    bbb    H13    350 0.04500300   1.008000   ; qtot 11.928021
  351         h1     11    bbb    H14    351 0.04500300   1.008000   ; qtot 11.973024
  352         c3     11    bbb     C8    352 -0.06455200  12.010000   ; qtot 11.908472
  353         h1     11    bbb    H15    353 0.13554100   1.008000   ; qtot 12.044013
  354         h1     11    bbb    H16    354 0.13554100   1.008000   ; qtot 12.179554
  355         c3     11    bbb     C9    355 -0.06455200  12.010000   ; qtot 12.115002
  356         h1     11    bbb    H17    356 0.13554100   1.008000   ; qtot 12.250543
  357         h1     11    bbb    H18    357 0.13554100   1.008000   ; qtot 12.386084
  358         os     11    bbb     O1    358 -0.62587700  16.000000   ; qtot 11.760207
  359         hn     11    bbb    H19    359 0.23982500   1.008000   ; qtot 12.000032
; residue   12 bbb rtp bbb q 1.0
  360         n4     12    bbb     N1    360 0.03726400  14.010000   ; qtot 12.037296
  361         c3     12    bbb     C1    361 -0.07020100  12.010000   ; qtot 11.967095
  362         hx     12    bbb     H1    362 0.12219000   1.008000   ; qtot 12.089285
  363         hx     12    bbb     H2    363 0.12219000   1.008000   ; qtot 12.211475
  364         c3     12    bbb     C2    364 -0.07020100  12.010000   ; qtot 12.141274
  365         hx     12    bbb     H3    365 0.12219000   1.008000   ; qtot 12.263464
  366         hx     12    bbb     H4    366 0.12219000   1.008000   ; qtot 12.385654
  367         c3     12    bbb     C3    367 -0.39007700  12.010000   ; qtot 11.995577
  368         hx     12    bbb     H5    368 0.14940300   1.008000   ; qtot 12.144980
  369         hx     12    bbb     H6    369 0.14940300   1.008000   ; qtot 12.294383
  370         c3     12    bbb     C4    370 0.18057300  12.010000   ; qtot 12.474956
  371         hc     12    bbb     H7    371 0.01788900   1.008000   ; qtot 12.492845
  372         hc     12    bbb     H8    372 0.01788900   1.008000   ; qtot 12.510734
  373         c3     12    bbb     C5    373 -0.11337700  12.010000   ; qtot 12.397357
  374         hc     12    bbb     H9    374 0.09515400   1.008000   ; qtot 12.492511
  375         hc     12    bbb    H10    375 0.09515400   1.008000   ; qtot 12.587665
  376         c3     12    bbb     C6    376 -0.11337700  12.010000   ; qtot 12.474288
  377         hc     12    bbb    H11    377 0.09515400   1.008000   ; qtot 12.569442
  378         hc     12    bbb    H12    378 0.09515400   1.008000   ; qtot 12.664596
  379         c3     12    bbb     C7    379 0.21842400  12.010000   ; qtot 12.883020
  380         h1     12    bbb    H13    380 0.04500300   1.008000   ; qtot 12.928023
  381         h1     12    bbb    H14    381 0.04500300   1.008000   ; qtot 12.973026
  382         c3     12    bbb     C8    382 -0.06455200  12.010000   ; qtot 12.908474
  383         h1     12    bbb    H15    383 0.13554100   1.008000   ; qtot 13.044015
  384         h1     12    bbb    H16    384 0.13554100   1.008000   ; qtot 13.179556
  385         c3     12    bbb     C9    385 -0.06455200  12.010000   ; qtot 13.115004
  386         h1     12    bbb    H17    386 0.13554100   1.008000   ; qtot 13.250545
  387         h1     12    bbb    H18    387 0.13554100   1.008000   ; qtot 13.386086
  388         os     12    bbb     O1    388 -0.62587700  16.000000   ; qtot 12.760209
  389         hn     12    bbb    H19    389 0.23982500   1.008000   ; qtot 13.000034
; residue   13 bbb rtp bbb q 1.0
  390         n4     13    bbb     N1    390 0.03726400  14.010000   ; qtot 13.037298
  391         c3     13    bbb     C1    391 -0.07020100  12.010000   ; qtot 12.967097
  392         hx     13    bbb     H1    392 0.12219000   1.008000   ; qtot 13.089287
  393         hx     13    bbb     H2    393 0.12219000   1.008000   ; qtot 13.211477
  394         c3     13    bbb     C2    394 -0.07020100  12.010000   ; qtot 13.141276
  395         hx     13    bbb     H3    395 0.12219000   1.008000   ; qtot 13.263466
  396         hx     13    bbb     H4    396 0.12219000   1.008000   ; qtot 13.385656
  397         c3     13    bbb     C3    397 -0.39007700  12.010000   ; qtot 12.995579
  398         hx     13    bbb     H5    398 0.14940300   1.008000   ; qtot 13.144982
  399         hx     13    bbb     H6    399 0.14940300   1.008000   ; qtot 13.294385
  400         c3     13    bbb     C4    400 0.18057300  12.010000   ; qtot 13.474958
  401         hc     13    bbb     H7    401 0.01788900   1.008000   ; qtot 13.492847
  402         hc     13    bbb     H8    402 0.01788900   1.008000   ; qtot 13.510736
  403         c3     13    bbb     C5    403 -0.11337700  12.010000   ; qtot 13.397359
  404         hc     13    bbb     H9    404 0.09515400   1.008000   ; qtot 13.492513
  405         hc     13    bbb    H10    405 0.09515400   1.008000   ; qtot 13.587667
  406         c3     13    bbb     C6    406 -0.11337700  12.010000   ; qtot 13.474290
  407         hc     13    bbb    H11    407 0.09515400   1.008000   ; qtot 13.569444
  408         hc     13    bbb    H12    408 0.09515400   1.008000   ; qtot 13.664598
  409         c3     13    bbb     C7    409 0.21842400  12.010000   ; qtot 13.883022
  410         h1     13    bbb    H13    410 0.04500300   1.008000   ; qtot 13.928025
  411         h1     13    bbb    H14    411 0.04500300   1.008000   ; qtot 13.973028
  412         c3     13    bbb     C8    412 -0.06455200  12.010000   ; qtot 13.908476
  413         h1     13    bbb    H15    413 0.13554100   1.008000   ; qtot 14.044017
  414         h1     13    bbb    H16    414 0.13554100   1.008000   ; qtot 14.179558
  415         c3     13    bbb     C9    415 -0.06455200  12.010000   ; qtot 14.115006
  416         h1     13    bbb    H17    416 0.13554100   1.008000   ; qtot 14.250547
  417         h1     13    bbb    H18    417 0.13554100   1.008000   ; qtot 14.386088
  418         os     13    bbb     O1    418 -0.62587700  16.000000   ; qtot 13.760211
  419         hn     13    bbb    H19    419 0.23982500   1.008000   ; qtot 14.000036
; residue   14 bbb rtp bbb q 1.0
  420         n4     14    bbb     N1    420 0.03726400  14.010000   ; qtot 14.037300
  421         c3     14    bbb     C1    421 -0.07020100  12.010000   ; qtot 13.967099
  422         hx     14    bbb     H1    422 0.12219000   1.008000   ; qtot 14.089289
  423         hx     14    bbb     H2    423 0.12219000   1.008000   ; qtot 14.211479
  424         c3     14    bbb     C2    424 -0.07020100  12.010000   ; qtot 14.141278
  425         hx     14    bbb     H3    425 0.12219000   1.008000   ; qtot 14.263468
  426         hx     14    bbb     H4    426 0.12219000   1.008000   ; qtot 14.385658
  427         c3     14    bbb     C3    427 -0.39007700  12.010000   ; qtot 13.995581
  428         hx     14    bbb     H5    428 0.14940300   1.008000   ; qtot 14.144984
  429         hx     14    bbb     H6    429 0.14940300   1.008000   ; qtot 14.294387
  430         c3     14    bbb     C4    430 0.18057300  12.010000   ; qtot 14.474960
  431         hc     14    bbb     H7    431 0.01788900   1.008000   ; qtot 14.492849
  432         hc     14    bbb     H8    432 0.01788900   1.008000   ; qtot 14.510738
  433         c3     14    bbb     C5    433 -0.11337700  12.010000   ; qtot 14.397361
  434         hc     14    bbb     H9    434 0.09515400   1.008000   ; qtot 14.492515
  435         hc     14    bbb    H10    435 0.09515400   1.008000   ; qtot 14.587669
  436         c3     14    bbb     C6    436 -0.11337700  12.010000   ; qtot 14.474292
  437         hc     14    bbb    H11    437 0.09515400   1.008000   ; qtot 14.569446
  438         hc     14    bbb    H12    438 0.09515400   1.008000   ; qtot 14.664600
  439         c3     14    bbb     C7    439 0.21842400  12.010000   ; qtot 14.883024
  440         h1     14    bbb    H13    440 0.04500300   1.008000   ; qtot 14.928027
  441         h1     14    bbb    H14    441 0.04500300   1.008000   ; qtot 14.973030
  442         c3     14    bbb     C8    442 -0.06455200  12.010000   ; qtot 14.908478
  443         h1     14    bbb    H15    443 0.13554100   1.008000   ; qtot 15.044019
  444         h1     14    bbb    H16    444 0.13554100   1.008000   ; qtot 15.179560
  445         c3     14    bbb     C9    445 -0.06455200  12.010000   ; qtot 15.115008
  446         h1     14    bbb    H17    446 0.13554100   1.008000   ; qtot 15.250549
  447         h1     14    bbb    H18    447 0.13554100   1.008000   ; qtot 15.386090
  448         os     14    bbb     O1    448 -0.62587700  16.000000   ; qtot 14.760213
  449         hn     14    bbb    H19    449 0.23982500   1.008000   ; qtot 15.000038
; residue   15 bbb rtp bbb q 1.0
  450         n4     15    bbb     N1    450 0.03726400  14.010000   ; qtot 15.037302
  451         c3     15    bbb     C1    451 -0.07020100  12.010000   ; qtot 14.967101
  452         hx     15    bbb     H1    452 0.12219000   1.008000   ; qtot 15.089291
  453         hx     15    bbb     H2    453 0.12219000   1.008000   ; qtot 15.211481
  454         c3     15    bbb     C2    454 -0.07020100  12.010000   ; qtot 15.141280
  455         hx     15    bbb     H3    455 0.12219000   1.008000   ; qtot 15.263470
  456         hx     15    bbb     H4    456 0.12219000   1.008000   ; qtot 15.385660
  457         c3     15    bbb     C3    457 -0.39007700  12.010000   ; qtot 14.995583
  458         hx     15    bbb     H5    458 0.14940300   1.008000   ; qtot 15.144986
  459         hx     15    bbb     H6    459 0.14940300   1.008000   ; qtot 15.294389
  460         c3     15    bbb     C4    460 0.18057300  12.010000   ; qtot 15.474962
  461         hc     15    bbb     H7    461 0.01788900   1.008000   ; qtot 15.492851
  462         hc     15    bbb     H8    462 0.01788900   1.008000   ; qtot 15.510740
  463         c3     15    bbb     C5    463 -0.11337700  12.010000   ; qtot 15.397363
  464         hc     15    bbb     H9    464 0.09515400   1.008000   ; qtot 15.492517
  465         hc     15    bbb    H10    465 0.09515400   1.008000   ; qtot 15.587671
  466         c3     15    bbb     C6    466 -0.11337700  12.010000   ; qtot 15.474294
  467         hc     15    bbb    H11    467 0.09515400   1.008000   ; qtot 15.569448
  468         hc     15    bbb    H12    468 0.09515400   1.008000   ; qtot 15.664602
  469         c3     15    bbb     C7    469 0.21842400  12.010000   ; qtot 15.883026
  470         h1     15    bbb    H13    470 0.04500300   1.008000   ; qtot 15.928029
  471         h1     15    bbb    H14    471 0.04500300   1.008000   ; qtot 15.973032
  472         c3     15    bbb     C8    472 -0.06455200  12.010000   ; qtot 15.908480
  473         h1     15    bbb    H15    473 0.13554100   1.008000   ; qtot 16.044021
  474         h1     15    bbb    H16    474 0.13554100   1.008000   ; qtot 16.179562
  475         c3     15    bbb     C9    475 -0.06455200  12.010000   ; qtot 16.115010
  476         h1     15    bbb    H17    476 0.13554100   1.008000   ; qtot 16.250551
  477         h1     15    bbb    H18    477 0.13554100   1.008000   ; qtot 16.386092
  478         os     15    bbb     O1    478 -0.62587700  16.000000   ; qtot 15.760215
  479         hn     15    bbb    H19    479 0.23982500   1.008000   ; qtot 16.000040
; residue   16 bbb rtp bbb q 1.0
  480         n4     16    bbb     N1    480 0.03726400  14.010000   ; qtot 16.037304
  481         c3     16    bbb     C1    481 -0.07020100  12.010000   ; qtot 15.967103
  482         hx     16    bbb     H1    482 0.12219000   1.008000   ; qtot 16.089293
  483         hx     16    bbb     H2    483 0.12219000   1.008000   ; qtot 16.211483
  484         c3     16    bbb     C2    484 -0.07020100  12.010000   ; qtot 16.141282
  485         hx     16    bbb     H3    485 0.12219000   1.008000   ; qtot 16.263472
  486         hx     16    bbb     H4    486 0.12219000   1.008000   ; qtot 16.385662
  487         c3     16    bbb     C3    487 -0.39007700  12.010000   ; qtot 15.995585
  488         hx     16    bbb     H5    488 0.14940300   1.008000   ; qtot 16.144988
  489         hx     16    bbb     H6    489 0.14940300   1.008000   ; qtot 16.294391
  490         c3     16    bbb     C4    490 0.18057300  12.010000   ; qtot 16.474964
  491         hc     16    bbb     H7    491 0.01788900   1.008000   ; qtot 16.492853
  492         hc     16    bbb     H8    492 0.01788900   1.008000   ; qtot 16.510742
  493         c3     16    bbb     C5    493 -0.11337700  12.010000   ; qtot 16.397365
  494         hc     16    bbb     H9    494 0.09515400   1.008000   ; qtot 16.492519
  495         hc     16    bbb    H10    495 0.09515400   1.008000   ; qtot 16.587673
  496         c3     16    bbb     C6    496 -0.11337700  12.010000   ; qtot 16.474296
  497         hc     16    bbb    H11    497 0.09515400   1.008000   ; qtot 16.569450
  498         hc     16    bbb    H12    498 0.09515400   1.008000   ; qtot 16.664604
  499         c3     16    bbb     C7    499 0.21842400  12.010000   ; qtot 16.883028
  500         h1     16    bbb    H13    500 0.04500300   1.008000   ; qtot 16.928031
  501         h1     16    bbb    H14    501 0.04500300   1.008000   ; qtot 16.973034
  502         c3     16    bbb     C8    502 -0.06455200  12.010000   ; qtot 16.908482
  503         h1     16    bbb    H15    503 0.13554100   1.008000   ; qtot 17.044023
  504         h1     16    bbb    H16    504 0.13554100   1.008000   ; qtot 17.179564
  505         c3     16    bbb     C9    505 -0.06455200  12.010000   ; qtot 17.115012
  506         h1     16    bbb    H17    506 0.13554100   1.008000   ; qtot 17.250553
  507         h1     16    bbb    H18    507 0.13554100   1.008000   ; qtot 17.386094
  508         os     16    bbb     O1    508 -0.62587700  16.000000   ; qtot 16.760217
  509         hn     16    bbb    H19    509 0.23982500   1.008000   ; qtot 17.000042
; residue   17 bbb rtp bbb q 1.0
  510         n4     17    bbb     N1    510 0.03726400  14.010000   ; qtot 17.037306
  511         c3     17    bbb     C1    511 -0.07020100  12.010000   ; qtot 16.967105
  512         hx     17    bbb     H1    512 0.12219000   1.008000   ; qtot 17.089295
  513         hx     17    bbb     H2    513 0.12219000   1.008000   ; qtot 17.211485
  514         c3     17    bbb     C2    514 -0.07020100  12.010000   ; qtot 17.141284
  515         hx     17    bbb     H3    515 0.12219000   1.008000   ; qtot 17.263474
  516         hx     17    bbb     H4    516 0.12219000   1.008000   ; qtot 17.385664
  517         c3     17    bbb     C3    517 -0.39007700  12.010000   ; qtot 16.995587
  518         hx     17    bbb     H5    518 0.14940300   1.008000   ; qtot 17.144990
  519         hx     17    bbb     H6    519 0.14940300   1.008000   ; qtot 17.294393
  520         c3     17    bbb     C4    520 0.18057300  12.010000   ; qtot 17.474966
  521         hc     17    bbb     H7    521 0.01788900   1.008000   ; qtot 17.492855
  522         hc     17    bbb     H8    522 0.01788900   1.008000   ; qtot 17.510744
  523         c3     17    bbb     C5    523 -0.11337700  12.010000   ; qtot 17.397367
  524         hc     17    bbb     H9    524 0.09515400   1.008000   ; qtot 17.492521
  525         hc     17    bbb    H10    525 0.09515400   1.008000   ; qtot 17.587675
  526         c3     17    bbb     C6    526 -0.11337700  12.010000   ; qtot 17.474298
  527         hc     17    bbb    H11    527 0.09515400   1.008000   ; qtot 17.569452
  528         hc     17    bbb    H12    528 0.09515400   1.008000   ; qtot 17.664606
  529         c3     17    bbb     C7    529 0.21842400  12.010000   ; qtot 17.883030
  530         h1     17    bbb    H13    530 0.04500300   1.008000   ; qtot 17.928033
  531         h1     17    bbb    H14    531 0.04500300   1.008000   ; qtot 17.973036
  532         c3     17    bbb     C8    532 -0.06455200  12.010000   ; qtot 17.908484
  533         h1     17    bbb    H15    533 0.13554100   1.008000   ; qtot 18.044025
  534         h1     17    bbb    H16    534 0.13554100   1.008000   ; qtot 18.179566
  535         c3     17    bbb     C9    535 -0.06455200  12.010000   ; qtot 18.115014
  536         h1     17    bbb    H17    536 0.13554100   1.008000   ; qtot 18.250555
  537         h1     17    bbb    H18    537 0.13554100   1.008000   ; qtot 18.386096
  538         os     17    bbb     O1    538 -0.62587700  16.000000   ; qtot 17.760219
  539         hn     17    bbb    H19    539 0.23982500   1.008000   ; qtot 18.000044
; residue   18 bbb rtp bbb q 1.0
  540         n4     18    bbb     N1    540 0.03726400  14.010000   ; qtot 18.037308
  541         c3     18    bbb     C1    541 -0.07020100  12.010000   ; qtot 17.967107
  542         hx     18    bbb     H1    542 0.12219000   1.008000   ; qtot 18.089297
  543         hx     18    bbb     H2    543 0.12219000   1.008000   ; qtot 18.211487
  544         c3     18    bbb     C2    544 -0.07020100  12.010000   ; qtot 18.141286
  545         hx     18    bbb     H3    545 0.12219000   1.008000   ; qtot 18.263476
  546         hx     18    bbb     H4    546 0.12219000   1.008000   ; qtot 18.385666
  547         c3     18    bbb     C3    547 -0.39007700  12.010000   ; qtot 17.995589
  548         hx     18    bbb     H5    548 0.14940300   1.008000   ; qtot 18.144992
  549         hx     18    bbb     H6    549 0.14940300   1.008000   ; qtot 18.294395
  550         c3     18    bbb     C4    550 0.18057300  12.010000   ; qtot 18.474968
  551         hc     18    bbb     H7    551 0.01788900   1.008000   ; qtot 18.492857
  552         hc     18    bbb     H8    552 0.01788900   1.008000   ; qtot 18.510746
  553         c3     18    bbb     C5    553 -0.11337700  12.010000   ; qtot 18.397369
  554         hc     18    bbb     H9    554 0.09515400   1.008000   ; qtot 18.492523
  555         hc     18    bbb    H10    555 0.09515400   1.008000   ; qtot 18.587677
  556         c3     18    bbb     C6    556 -0.11337700  12.010000   ; qtot 18.474300
  557         hc     18    bbb    H11    557 0.09515400   1.008000   ; qtot 18.569454
  558         hc     18    bbb    H12    558 0.09515400   1.008000   ; qtot 18.664608
  559         c3     18    bbb     C7    559 0.21842400  12.010000   ; qtot 18.883032
  560         h1     18    bbb    H13    560 0.04500300   1.008000   ; qtot 18.928035
  561         h1     18    bbb    H14    561 0.04500300   1.008000   ; qtot 18.973038
  562         c3     18    bbb     C8    562 -0.06455200  12.010000   ; qtot 18.908486
  563         h1     18    bbb    H15    563 0.13554100   1.008000   ; qtot 19.044027
  564         h1     18    bbb    H16    564 0.13554100   1.008000   ; qtot 19.179568
  565         c3     18    bbb     C9    565 -0.06455200  12.010000   ; qtot 19.115016
  566         h1     18    bbb    H17    566 0.13554100   1.008000   ; qtot 19.250557
  567         h1     18    bbb    H18    567 0.13554100   1.008000   ; qtot 19.386098
  568         os     18    bbb     O1    568 -0.62587700  16.000000   ; qtot 18.760221
  569         hn     18    bbb    H19    569 0.23982500   1.008000   ; qtot 19.000046
; residue   19 bbb rtp bbb q 1.0
  570         n4     19    bbb     N1    570 0.03726400  14.010000   ; qtot 19.037310
  571         c3     19    bbb     C1    571 -0.07020100  12.010000   ; qtot 18.967109
  572         hx     19    bbb     H1    572 0.12219000   1.008000   ; qtot 19.089299
  573         hx     19    bbb     H2    573 0.12219000   1.008000   ; qtot 19.211489
  574         c3     19    bbb     C2    574 -0.07020100  12.010000   ; qtot 19.141288
  575         hx     19    bbb     H3    575 0.12219000   1.008000   ; qtot 19.263478
  576         hx     19    bbb     H4    576 0.12219000   1.008000   ; qtot 19.385668
  577         c3     19    bbb     C3    577 -0.39007700  12.010000   ; qtot 18.995591
  578         hx     19    bbb     H5    578 0.14940300   1.008000   ; qtot 19.144994
  579         hx     19    bbb     H6    579 0.14940300   1.008000   ; qtot 19.294397
  580         c3     19    bbb     C4    580 0.18057300  12.010000   ; qtot 19.474970
  581         hc     19    bbb     H7    581 0.01788900   1.008000   ; qtot 19.492859
  582         hc     19    bbb     H8    582 0.01788900   1.008000   ; qtot 19.510748
  583         c3     19    bbb     C5    583 -0.11337700  12.010000   ; qtot 19.397371
  584         hc     19    bbb     H9    584 0.09515400   1.008000   ; qtot 19.492525
  585         hc     19    bbb    H10    585 0.09515400   1.008000   ; qtot 19.587679
  586         c3     19    bbb     C6    586 -0.11337700  12.010000   ; qtot 19.474302
  587         hc     19    bbb    H11    587 0.09515400   1.008000   ; qtot 19.569456
  588         hc     19    bbb    H12    588 0.09515400   1.008000   ; qtot 19.664610
  589         c3     19    bbb     C7    589 0.21842400  12.010000   ; qtot 19.883034
  590         h1     19    bbb    H13    590 0.04500300   1.008000   ; qtot 19.928037
  591         h1     19    bbb    H14    591 0.04500300   1.008000   ; qtot 19.973040
  592         c3     19    bbb     C8    592 -0.06455200  12.010000   ; qtot 19.908488
  593         h1     19    bbb    H15    593 0.13554100   1.008000   ; qtot 20.044029
  594         h1     19    bbb    H16    594 0.13554100   1.008000   ; qtot 20.179570
  595         c3     19    bbb     C9    595 -0.06455200  12.010000   ; qtot 20.115018
  596         h1     19    bbb    H17    596 0.13554100   1.008000   ; qtot 20.250559
  597         h1     19    bbb    H18    597 0.13554100   1.008000   ; qtot 20.386100
  598         os     19    bbb     O1    598 -0.62587700  16.000000   ; qtot 19.760223
  599         hn     19    bbb    H19    599 0.23982500   1.008000   ; qtot 20.000048
; residue   20 bbb rtp bbb q 1.0
  600         n4     20    bbb     N1    600 0.03726400  14.010000   ; qtot 20.037312
  601         c3     20    bbb     C1    601 -0.07020100  12.010000   ; qtot 19.967111
  602         hx     20    bbb     H1    602 0.12219000   1.008000   ; qtot 20.089301
  603         hx     20    bbb     H2    603 0.12219000   1.008000   ; qtot 20.211491
  604         c3     20    bbb     C2    604 -0.07020100  12.010000   ; qtot 20.141290
  605         hx     20    bbb     H3    605 0.12219000   1.008000   ; qtot 20.263480
  606         hx     20    bbb     H4    606 0.12219000   1.008000   ; qtot 20.385670
  607         c3     20    bbb     C3    607 -0.39007700  12.010000   ; qtot 19.995593
  608         hx     20    bbb     H5    608 0.14940300   1.008000   ; qtot 20.144996
  609         hx     20    bbb     H6    609 0.14940300   1.008000   ; qtot 20.294399
  610         c3     20    bbb     C4    610 0.18057300  12.010000   ; qtot 20.474972
  611         hc     20    bbb     H7    611 0.01788900   1.008000   ; qtot 20.492861
  612         hc     20    bbb     H8    612 0.01788900   1.008000   ; qtot 20.510750
  613         c3     20    bbb     C5    613 -0.11337700  12.010000   ; qtot 20.397373
  614         hc     20    bbb     H9    614 0.09515400   1.008000   ; qtot 20.492527
  615         hc     20    bbb    H10    615 0.09515400   1.008000   ; qtot 20.587681
  616         c3     20    bbb     C6    616 -0.11337700  12.010000   ; qtot 20.474304
  617         hc     20    bbb    H11    617 0.09515400   1.008000   ; qtot 20.569458
  618         hc     20    bbb    H12    618 0.09515400   1.008000   ; qtot 20.664612
  619         c3     20    bbb     C7    619 0.21842400  12.010000   ; qtot 20.883036
  620         h1     20    bbb    H13    620 0.04500300   1.008000   ; qtot 20.928039
  621         h1     20    bbb    H14    621 0.04500300   1.008000   ; qtot 20.973042
  622         c3     20    bbb     C8    622 -0.06455200  12.010000   ; qtot 20.908490
  623         h1     20    bbb    H15    623 0.13554100   1.008000   ; qtot 21.044031
  624         h1     20    bbb    H16    624 0.13554100   1.008000   ; qtot 21.179572
  625         c3     20    bbb     C9    625 -0.06455200  12.010000   ; qtot 21.115020
  626         h1     20    bbb    H17    626 0.13554100   1.008000   ; qtot 21.250561
  627         h1     20    bbb    H18    627 0.13554100   1.008000   ; qtot 21.386102
  628         os     20    bbb     O1    628 -0.62587700  16.000000   ; qtot 20.760225
  629         hn     20    bbb    H19    629 0.23982500   1.008000   ; qtot 21.000050
; residue   21 bbb rtp bbb q 1.0
  630         n4     21    bbb     N1    630 0.03726400  14.010000   ; qtot 21.037314
  631         c3     21    bbb     C1    631 -0.07020100  12.010000   ; qtot 20.967113
  632         hx     21    bbb     H1    632 0.12219000   1.008000   ; qtot 21.089303
  633         hx     21    bbb     H2    633 0.12219000   1.008000   ; qtot 21.211493
  634         c3     21    bbb     C2    634 -0.07020100  12.010000   ; qtot 21.141292
  635         hx     21    bbb     H3    635 0.12219000   1.008000   ; qtot 21.263482
  636         hx     21    bbb     H4    636 0.12219000   1.008000   ; qtot 21.385672
  637         c3     21    bbb     C3    637 -0.39007700  12.010000   ; qtot 20.995595
  638         hx     21    bbb     H5    638 0.14940300   1.008000   ; qtot 21.144998
  639         hx     21    bbb     H6    639 0.14940300   1.008000   ; qtot 21.294401
  640         c3     21    bbb     C4    640 0.18057300  12.010000   ; qtot 21.474974
  641         hc     21    bbb     H7    641 0.01788900   1.008000   ; qtot 21.492863
  642         hc     21    bbb     H8    642 0.01788900   1.008000   ; qtot 21.510752
  643         c3     21    bbb     C5    643 -0.11337700  12.010000   ; qtot 21.397375
  644         hc     21    bbb     H9    644 0.09515400   1.008000   ; qtot 21.492529
  645         hc     21    bbb    H10    645 0.09515400   1.008000   ; qtot 21.587683
  646         c3     21    bbb     C6    646 -0.11337700  12.010000   ; qtot 21.474306
  647         hc     21    bbb    H11    647 0.09515400   1.008000   ; qtot 21.569460
  648         hc     21    bbb    H12    648 0.09515400   1.008000   ; qtot 21.664614
  649         c3     21    bbb     C7    649 0.21842400  12.010000   ; qtot 21.883038
  650         h1     21    bbb    H13    650 0.04500300   1.008000   ; qtot 21.928041
  651         h1     21    bbb    H14    651 0.04500300   1.008000   ; qtot 21.973044
  652         c3     21    bbb     C8    652 -0.06455200  12.010000   ; qtot 21.908492
  653         h1     21    bbb    H15    653 0.13554100   1.008000   ; qtot 22.044033
  654         h1     21    bbb    H16    654 0.13554100   1.008000   ; qtot 22.179574
  655         c3     21    bbb     C9    655 -0.06455200  12.010000   ; qtot 22.115022
  656         h1     21    bbb    H17    656 0.13554100   1.008000   ; qtot 22.250563
  657         h1     21    bbb    H18    657 0.13554100   1.008000   ; qtot 22.386104
  658         os     21    bbb     O1    658 -0.62587700  16.000000   ; qtot 21.760227
  659         hn     21    bbb    H19    659 0.23982500   1.008000   ; qtot 22.000052
; residue   22 bbb rtp bbb q 1.0
  660         n4     22    bbb     N1    660 0.03726400  14.010000   ; qtot 22.037316
  661         c3     22    bbb     C1    661 -0.07020100  12.010000   ; qtot 21.967115
  662         hx     22    bbb     H1    662 0.12219000   1.008000   ; qtot 22.089305
  663         hx     22    bbb     H2    663 0.12219000   1.008000   ; qtot 22.211495
  664         c3     22    bbb     C2    664 -0.07020100  12.010000   ; qtot 22.141294
  665         hx     22    bbb     H3    665 0.12219000   1.008000   ; qtot 22.263484
  666         hx     22    bbb     H4    666 0.12219000   1.008000   ; qtot 22.385674
  667         c3     22    bbb     C3    667 -0.39007700  12.010000   ; qtot 21.995597
  668         hx     22    bbb     H5    668 0.14940300   1.008000   ; qtot 22.145000
  669         hx     22    bbb     H6    669 0.14940300   1.008000   ; qtot 22.294403
  670         c3     22    bbb     C4    670 0.18057300  12.010000   ; qtot 22.474976
  671         hc     22    bbb     H7    671 0.01788900   1.008000   ; qtot 22.492865
  672         hc     22    bbb     H8    672 0.01788900   1.008000   ; qtot 22.510754
  673         c3     22    bbb     C5    673 -0.11337700  12.010000   ; qtot 22.397377
  674         hc     22    bbb     H9    674 0.09515400   1.008000   ; qtot 22.492531
  675         hc     22    bbb    H10    675 0.09515400   1.008000   ; qtot 22.587685
  676         c3     22    bbb     C6    676 -0.11337700  12.010000   ; qtot 22.474308
  677         hc     22    bbb    H11    677 0.09515400   1.008000   ; qtot 22.569462
  678         hc     22    bbb    H12    678 0.09515400   1.008000   ; qtot 22.664616
  679         c3     22    bbb     C7    679 0.21842400  12.010000   ; qtot 22.883040
  680         h1     22    bbb    H13    680 0.04500300   1.008000   ; qtot 22.928043
  681         h1     22    bbb    H14    681 0.04500300   1.008000   ; qtot 22.973046
  682         c3     22    bbb     C8    682 -0.06455200  12.010000   ; qtot 22.908494
  683         h1     22    bbb    H15    683 0.13554100   1.008000   ; qtot 23.044035
  684         h1     22    bbb    H16    684 0.13554100   1.008000   ; qtot 23.179576
  685         c3     22    bbb     C9    685 -0.06455200  12.010000   ; qtot 23.115024
  686         h1     22    bbb    H17    686 0.13554100   1.008000   ; qtot 23.250565
  687         h1     22    bbb    H18    687 0.13554100   1.008000   ; qtot 23.386106
  688         os     22    bbb     O1    688 -0.62587700  16.000000   ; qtot 22.760229
  689         hn     22    bbb    H19    689 0.23982500   1.008000   ; qtot 23.000054
; residue   23 bbb rtp bbb q 1.0
  690         n4     23    bbb     N1    690 0.03726400  14.010000   ; qtot 23.037318
  691         c3     23    bbb     C1    691 -0.07020100  12.010000   ; qtot 22.967117
  692         hx     23    bbb     H1    692 0.12219000   1.008000   ; qtot 23.089307
  693         hx     23    bbb     H2    693 0.12219000   1.008000   ; qtot 23.211497
  694         c3     23    bbb     C2    694 -0.07020100  12.010000   ; qtot 23.141296
  695         hx     23    bbb     H3    695 0.12219000   1.008000   ; qtot 23.263486
  696         hx     23    bbb     H4    696 0.12219000   1.008000   ; qtot 23.385676
  697         c3     23    bbb     C3    697 -0.39007700  12.010000   ; qtot 22.995599
  698         hx     23    bbb     H5    698 0.14940300   1.008000   ; qtot 23.145002
  699         hx     23    bbb     H6    699 0.14940300   1.008000   ; qtot 23.294405
  700         c3     23    bbb     C4    700 0.18057300  12.010000   ; qtot 23.474978
  701         hc     23    bbb     H7    701 0.01788900   1.008000   ; qtot 23.492867
  702         hc     23    bbb     H8    702 0.01788900   1.008000   ; qtot 23.510756
  703         c3     23    bbb     C5    703 -0.11337700  12.010000   ; qtot 23.397379
  704         hc     23    bbb     H9    704 0.09515400   1.008000   ; qtot 23.492533
  705         hc     23    bbb    H10    705 0.09515400   1.008000   ; qtot 23.587687
  706         c3     23    bbb     C6    706 -0.11337700  12.010000   ; qtot 23.474310
  707         hc     23    bbb    H11    707 0.09515400   1.008000   ; qtot 23.569464
  708         hc     23    bbb    H12    708 0.09515400   1.008000   ; qtot 23.664618
  709         c3     23    bbb     C7    709 0.21842400  12.010000   ; qtot 23.883042
  710         h1     23    bbb    H13    710 0.04500300   1.008000   ; qtot 23.928045
  711         h1     23    bbb    H14    711 0.04500300   1.008000   ; qtot 23.973048
  712         c3     23    bbb     C8    712 -0.06455200  12.010000   ; qtot 23.908496
  713         h1     23    bbb    H15    713 0.13554100   1.008000   ; qtot 24.044037
  714         h1     23    bbb    H16    714 0.13554100   1.008000   ; qtot 24.179578
  715         c3     23    bbb     C9    715 -0.06455200  12.010000   ; qtot 24.115026
  716         h1     23    bbb    H17    716 0.13554100   1.008000   ; qtot 24.250567
  717         h1     23    bbb    H18    717 0.13554100   1.008000   ; qtot 24.386108
  718         os     23    bbb     O1    718 -0.62587700  16.000000   ; qtot 23.760231
  719         hn     23    bbb    H19    719 0.23982500   1.008000   ; qtot 24.000056
; residue   24 bbb rtp bbb q 1.0
  720         n4     24    bbb     N1    720 0.03726400  14.010000   ; qtot 24.037320
  721         c3     24    bbb     C1    721 -0.07020100  12.010000   ; qtot 23.967119
  722         hx     24    bbb     H1    722 0.12219000   1.008000   ; qtot 24.089309
  723         hx     24    bbb     H2    723 0.12219000   1.008000   ; qtot 24.211499
  724         c3     24    bbb     C2    724 -0.07020100  12.010000   ; qtot 24.141298
  725         hx     24    bbb     H3    725 0.12219000   1.008000   ; qtot 24.263488
  726         hx     24    bbb     H4    726 0.12219000   1.008000   ; qtot 24.385678
  727         c3     24    bbb     C3    727 -0.39007700  12.010000   ; qtot 23.995601
  728         hx     24    bbb     H5    728 0.14940300   1.008000   ; qtot 24.145004
  729         hx     24    bbb     H6    729 0.14940300   1.008000   ; qtot 24.294407
  730         c3     24    bbb     C4    730 0.18057300  12.010000   ; qtot 24.474980
  731         hc     24    bbb     H7    731 0.01788900   1.008000   ; qtot 24.492869
  732         hc     24    bbb     H8    732 0.01788900   1.008000   ; qtot 24.510758
  733         c3     24    bbb     C5    733 -0.11337700  12.010000   ; qtot 24.397381
  734         hc     24    bbb     H9    734 0.09515400   1.008000   ; qtot 24.492535
  735         hc     24    bbb    H10    735 0.09515400   1.008000   ; qtot 24.587689
  736         c3     24    bbb     C6    736 -0.11337700  12.010000   ; qtot 24.474312
  737         hc     24    bbb    H11    737 0.09515400   1.008000   ; qtot 24.569466
  738         hc     24    bbb    H12    738 0.09515400   1.008000   ; qtot 24.664620
  739         c3     24    bbb     C7    739 0.21842400  12.010000   ; qtot 24.883044
  740         h1     24    bbb    H13    740 0.04500300   1.008000   ; qtot 24.928047
  741         h1     24    bbb    H14    741 0.04500300   1.008000   ; qtot 24.973050
  742         c3     24    bbb     C8    742 -0.06455200  12.010000   ; qtot 24.908498
  743         h1     24    bbb    H15    743 0.13554100   1.008000   ; qtot 25.044039
  744         h1     24    bbb    H16    744 0.13554100   1.008000   ; qtot 25.179580
  745         c3     24    bbb     C9    745 -0.06455200  12.010000   ; qtot 25.115028
  746         h1     24    bbb    H17    746 0.13554100   1.008000   ; qtot 25.250569
  747         h1     24    bbb    H18    747 0.13554100   1.008000   ; qtot 25.386110
  748         os     24    bbb     O1    748 -0.62587700  16.000000   ; qtot 24.760233
  749         hn     24    bbb    H19    749 0.23982500   1.008000   ; qtot 25.000058
; residue   25 bbb rtp bbb q 1.0
  750         n4     25    bbb     N1    750 0.03726400  14.010000   ; qtot 25.037322
  751         c3     25    bbb     C1    751 -0.07020100  12.010000   ; qtot 24.967121
  752         hx     25    bbb     H1    752 0.12219000   1.008000   ; qtot 25.089311
  753         hx     25    bbb     H2    753 0.12219000   1.008000   ; qtot 25.211501
  754         c3     25    bbb     C2    754 -0.07020100  12.010000   ; qtot 25.141300
  755         hx     25    bbb     H3    755 0.12219000   1.008000   ; qtot 25.263490
  756         hx     25    bbb     H4    756 0.12219000   1.008000   ; qtot 25.385680
  757         c3     25    bbb     C3    757 -0.39007700  12.010000   ; qtot 24.995603
  758         hx     25    bbb     H5    758 0.14940300   1.008000   ; qtot 25.145006
  759         hx     25    bbb     H6    759 0.14940300   1.008000   ; qtot 25.294409
  760         c3     25    bbb     C4    760 0.18057300  12.010000   ; qtot 25.474982
  761         hc     25    bbb     H7    761 0.01788900   1.008000   ; qtot 25.492871
  762         hc     25    bbb     H8    762 0.01788900   1.008000   ; qtot 25.510760
  763         c3     25    bbb     C5    763 -0.11337700  12.010000   ; qtot 25.397383
  764         hc     25    bbb     H9    764 0.09515400   1.008000   ; qtot 25.492537
  765         hc     25    bbb    H10    765 0.09515400   1.008000   ; qtot 25.587691
  766         c3     25    bbb     C6    766 -0.11337700  12.010000   ; qtot 25.474314
  767         hc     25    bbb    H11    767 0.09515400   1.008000   ; qtot 25.569468
  768         hc     25    bbb    H12    768 0.09515400   1.008000   ; qtot 25.664622
  769         c3     25    bbb     C7    769 0.21842400  12.010000   ; qtot 25.883046
  770         h1     25    bbb    H13    770 0.04500300   1.008000   ; qtot 25.928049
  771         h1     25    bbb    H14    771 0.04500300   1.008000   ; qtot 25.973052
  772         c3     25    bbb     C8    772 -0.06455200  12.010000   ; qtot 25.908500
  773         h1     25    bbb    H15    773 0.13554100   1.008000   ; qtot 26.044041
  774         h1     25    bbb    H16    774 0.13554100   1.008000   ; qtot 26.179582
  775         c3     25    bbb     C9    775 -0.06455200  12.010000   ; qtot 26.115030
  776         h1     25    bbb    H17    776 0.13554100   1.008000   ; qtot 26.250571
  777         h1     25    bbb    H18    777 0.13554100   1.008000   ; qtot 26.386112
  778         os     25    bbb     O1    778 -0.62587700  16.000000   ; qtot 25.760235
  779         hn     25    bbb    H19    779 0.23982500   1.008000   ; qtot 26.000060
; residue   26 bbb rtp bbb q 1.0
  780         n4     26    bbb     N1    780 0.03726400  14.010000   ; qtot 26.037324
  781         c3     26    bbb     C1    781 -0.07020100  12.010000   ; qtot 25.967123
  782         hx     26    bbb     H1    782 0.12219000   1.008000   ; qtot 26.089313
  783         hx     26    bbb     H2    783 0.12219000   1.008000   ; qtot 26.211503
  784         c3     26    bbb     C2    784 -0.07020100  12.010000   ; qtot 26.141302
  785         hx     26    bbb     H3    785 0.12219000   1.008000   ; qtot 26.263492
  786         hx     26    bbb     H4    786 0.12219000   1.008000   ; qtot 26.385682
  787         c3     26    bbb     C3    787 -0.39007700  12.010000   ; qtot 25.995605
  788         hx     26    bbb     H5    788 0.14940300   1.008000   ; qtot 26.145008
  789         hx     26    bbb     H6    789 0.14940300   1.008000   ; qtot 26.294411
  790         c3     26    bbb     C4    790 0.18057300  12.010000   ; qtot 26.474984
  791         hc     26    bbb     H7    791 0.01788900   1.008000   ; qtot 26.492873
  792         hc     26    bbb     H8    792 0.01788900   1.008000   ; qtot 26.510762
  793         c3     26    bbb     C5    793 -0.11337700  12.010000   ; qtot 26.397385
  794         hc     26    bbb     H9    794 0.09515400   1.008000   ; qtot 26.492539
  795         hc     26    bbb    H10    795 0.09515400   1.008000   ; qtot 26.587693
  796         c3     26    bbb     C6    796 -0.11337700  12.010000   ; qtot 26.474316
  797         hc     26    bbb    H11    797 0.09515400   1.008000   ; qtot 26.569470
  798         hc     26    bbb    H12    798 0.09515400   1.008000   ; qtot 26.664624
  799         c3     26    bbb     C7    799 0.21842400  12.010000   ; qtot 26.883048
  800         h1     26    bbb    H13    800 0.04500300   1.008000   ; qtot 26.928051
  801         h1     26    bbb    H14    801 0.04500300   1.008000   ; qtot 26.973054
  802         c3     26    bbb     C8    802 -0.06455200  12.010000   ; qtot 26.908502
  803         h1     26    bbb    H15    803 0.13554100   1.008000   ; qtot 27.044043
  804         h1     26    bbb    H16    804 0.13554100   1.008000   ; qtot 27.179584
  805         c3     26    bbb     C9    805 -0.06455200  12.010000   ; qtot 27.115032
  806         h1     26    bbb    H17    806 0.13554100   1.008000   ; qtot 27.250573
  807         h1     26    bbb    H18    807 0.13554100   1.008000   ; qtot 27.386114
  808         os     26    bbb     O1    808 -0.62587700  16.000000   ; qtot 26.760237
  809         hn     26    bbb    H19    809 0.23982500   1.008000   ; qtot 27.000062
; residue   27 bbb rtp bbb q 1.0
  810         n4     27    bbb     N1    810 0.03726400  14.010000   ; qtot 27.037326
  811         c3     27    bbb     C1    811 -0.07020100  12.010000   ; qtot 26.967125
  812         hx     27    bbb     H1    812 0.12219000   1.008000   ; qtot 27.089315
  813         hx     27    bbb     H2    813 0.12219000   1.008000   ; qtot 27.211505
  814         c3     27    bbb     C2    814 -0.07020100  12.010000   ; qtot 27.141304
  815         hx     27    bbb     H3    815 0.12219000   1.008000   ; qtot 27.263494
  816         hx     27    bbb     H4    816 0.12219000   1.008000   ; qtot 27.385684
  817         c3     27    bbb     C3    817 -0.39007700  12.010000   ; qtot 26.995607
  818         hx     27    bbb     H5    818 0.14940300   1.008000   ; qtot 27.145010
  819         hx     27    bbb     H6    819 0.14940300   1.008000   ; qtot 27.294413
  820         c3     27    bbb     C4    820 0.18057300  12.010000   ; qtot 27.474986
  821         hc     27    bbb     H7    821 0.01788900   1.008000   ; qtot 27.492875
  822         hc     27    bbb     H8    822 0.01788900   1.008000   ; qtot 27.510764
  823         c3     27    bbb     C5    823 -0.11337700  12.010000   ; qtot 27.397387
  824         hc     27    bbb     H9    824 0.09515400   1.008000   ; qtot 27.492541
  825         hc     27    bbb    H10    825 0.09515400   1.008000   ; qtot 27.587695
  826         c3     27    bbb     C6    826 -0.11337700  12.010000   ; qtot 27.474318
  827         hc     27    bbb    H11    827 0.09515400   1.008000   ; qtot 27.569472
  828         hc     27    bbb    H12    828 0.09515400   1.008000   ; qtot 27.664626
  829         c3     27    bbb     C7    829 0.21842400  12.010000   ; qtot 27.883050
  830         h1     27    bbb    H13    830 0.04500300   1.008000   ; qtot 27.928053
  831         h1     27    bbb    H14    831 0.04500300   1.008000   ; qtot 27.973056
  832         c3     27    bbb     C8    832 -0.06455200  12.010000   ; qtot 27.908504
  833         h1     27    bbb    H15    833 0.13554100   1.008000   ; qtot 28.044045
  834         h1     27    bbb    H16    834 0.13554100   1.008000   ; qtot 28.179586
  835         c3     27    bbb     C9    835 -0.06455200  12.010000   ; qtot 28.115034
  836         h1     27    bbb    H17    836 0.13554100   1.008000   ; qtot 28.250575
  837         h1     27    bbb    H18    837 0.13554100   1.008000   ; qtot 28.386116
  838         os     27    bbb     O1    838 -0.62587700  16.000000   ; qtot 27.760239
  839         hn     27    bbb    H19    839 0.23982500   1.008000   ; qtot 28.000064
; residue   28 bbb rtp bbb q 1.0
  840         n4     28    bbb     N1    840 0.03726400  14.010000   ; qtot 28.037328
  841         c3     28    bbb     C1    841 -0.07020100  12.010000   ; qtot 27.967127
  842         hx     28    bbb     H1    842 0.12219000   1.008000   ; qtot 28.089317
  843         hx     28    bbb     H2    843 0.12219000   1.008000   ; qtot 28.211507
  844         c3     28    bbb     C2    844 -0.07020100  12.010000   ; qtot 28.141306
  845         hx     28    bbb     H3    845 0.12219000   1.008000   ; qtot 28.263496
  846         hx     28    bbb     H4    846 0.12219000   1.008000   ; qtot 28.385686
  847         c3     28    bbb     C3    847 -0.39007700  12.010000   ; qtot 27.995609
  848         hx     28    bbb     H5    848 0.14940300   1.008000   ; qtot 28.145012
  849         hx     28    bbb     H6    849 0.14940300   1.008000   ; qtot 28.294415
  850         c3     28    bbb     C4    850 0.18057300  12.010000   ; qtot 28.474988
  851         hc     28    bbb     H7    851 0.01788900   1.008000   ; qtot 28.492877
  852         hc     28    bbb     H8    852 0.01788900   1.008000   ; qtot 28.510766
  853         c3     28    bbb     C5    853 -0.11337700  12.010000   ; qtot 28.397389
  854         hc     28    bbb     H9    854 0.09515400   1.008000   ; qtot 28.492543
  855         hc     28    bbb    H10    855 0.09515400   1.008000   ; qtot 28.587697
  856         c3     28    bbb     C6    856 -0.11337700  12.010000   ; qtot 28.474320
  857         hc     28    bbb    H11    857 0.09515400   1.008000   ; qtot 28.569474
  858         hc     28    bbb    H12    858 0.09515400   1.008000   ; qtot 28.664628
  859         c3     28    bbb     C7    859 0.21842400  12.010000   ; qtot 28.883052
  860         h1     28    bbb    H13    860 0.04500300   1.008000   ; qtot 28.928055
  861         h1     28    bbb    H14    861 0.04500300   1.008000   ; qtot 28.973058
  862         c3     28    bbb     C8    862 -0.06455200  12.010000   ; qtot 28.908506
  863         h1     28    bbb    H15    863 0.13554100   1.008000   ; qtot 29.044047
  864         h1     28    bbb    H16    864 0.13554100   1.008000   ; qtot 29.179588
  865         c3     28    bbb     C9    865 -0.06455200  12.010000   ; qtot 29.115036
  866         h1     28    bbb    H17    866 0.13554100   1.008000   ; qtot 29.250577
  867         h1     28    bbb    H18    867 0.13554100   1.008000   ; qtot 29.386118
  868         os     28    bbb     O1    868 -0.62587700  16.000000   ; qtot 28.760241
  869         hn     28    bbb    H19    869 0.23982500   1.008000   ; qtot 29.000066
; residue   29 bbb rtp bbb q 1.0
  870         n4     29    bbb     N1    870 0.03726400  14.010000   ; qtot 29.037330
  871         c3     29    bbb     C1    871 -0.07020100  12.010000   ; qtot 28.967129
  872         hx     29    bbb     H1    872 0.12219000   1.008000   ; qtot 29.089319
  873         hx     29    bbb     H2    873 0.12219000   1.008000   ; qtot 29.211509
  874         c3     29    bbb     C2    874 -0.07020100  12.010000   ; qtot 29.141308
  875         hx     29    bbb     H3    875 0.12219000   1.008000   ; qtot 29.263498
  876         hx     29    bbb     H4    876 0.12219000   1.008000   ; qtot 29.385688
  877         c3     29    bbb     C3    877 -0.39007700  12.010000   ; qtot 28.995611
  878         hx     29    bbb     H5    878 0.14940300   1.008000   ; qtot 29.145014
  879         hx     29    bbb     H6    879 0.14940300   1.008000   ; qtot 29.294417
  880         c3     29    bbb     C4    880 0.18057300  12.010000   ; qtot 29.474990
  881         hc     29    bbb     H7    881 0.01788900   1.008000   ; qtot 29.492879
  882         hc     29    bbb     H8    882 0.01788900   1.008000   ; qtot 29.510768
  883         c3     29    bbb     C5    883 -0.11337700  12.010000   ; qtot 29.397391
  884         hc     29    bbb     H9    884 0.09515400   1.008000   ; qtot 29.492545
  885         hc     29    bbb    H10    885 0.09515400   1.008000   ; qtot 29.587699
  886         c3     29    bbb     C6    886 -0.11337700  12.010000   ; qtot 29.474322
  887         hc     29    bbb    H11    887 0.09515400   1.008000   ; qtot 29.569476
  888         hc     29    bbb    H12    888 0.09515400   1.008000   ; qtot 29.664630
  889         c3     29    bbb     C7    889 0.21842400  12.010000   ; qtot 29.883054
  890         h1     29    bbb    H13    890 0.04500300   1.008000   ; qtot 29.928057
  891         h1     29    bbb    H14    891 0.04500300   1.008000   ; qtot 29.973060
  892         c3     29    bbb     C8    892 -0.06455200  12.010000   ; qtot 29.908508
  893         h1     29    bbb    H15    893 0.13554100   1.008000   ; qtot 30.044049
  894         h1     29    bbb    H16    894 0.13554100   1.008000   ; qtot 30.179590
  895         c3     29    bbb     C9    895 -0.06455200  12.010000   ; qtot 30.115038
  896         h1     29    bbb    H17    896 0.13554100   1.008000   ; qtot 30.250579
  897         h1     29    bbb    H18    897 0.13554100   1.008000   ; qtot 30.386120
  898         os     29    bbb     O1    898 -0.62587700  16.000000   ; qtot 29.760243
  899         hn     29    bbb    H19    899 0.23982500   1.008000   ; qtot 30.000068
; residue   30 bbb rtp bbb q 1.0
  900         n4     30    bbb     N1    900 0.03726400  14.010000   ; qtot 30.037332
  901         c3     30    bbb     C1    901 -0.07020100  12.010000   ; qtot 29.967131
  902         hx     30    bbb     H1    902 0.12219000   1.008000   ; qtot 30.089321
  903         hx     30    bbb     H2    903 0.12219000   1.008000   ; qtot 30.211511
  904         c3     30    bbb     C2    904 -0.07020100  12.010000   ; qtot 30.141310
  905         hx     30    bbb     H3    905 0.12219000   1.008000   ; qtot 30.263500
  906         hx     30    bbb     H4    906 0.12219000   1.008000   ; qtot 30.385690
  907         c3     30    bbb     C3    907 -0.39007700  12.010000   ; qtot 29.995613
  908         hx     30    bbb     H5    908 0.14940300   1.008000   ; qtot 30.145016
  909         hx     30    bbb     H6    909 0.14940300   1.008000   ; qtot 30.294419
  910         c3     30    bbb     C4    910 0.18057300  12.010000   ; qtot 30.474992
  911         hc     30    bbb     H7    911 0.01788900   1.008000   ; qtot 30.492881
  912         hc     30    bbb     H8    912 0.01788900   1.008000   ; qtot 30.510770
  913         c3     30    bbb     C5    913 -0.11337700  12.010000   ; qtot 30.397393
  914         hc     30    bbb     H9    914 0.09515400   1.008000   ; qtot 30.492547
  915         hc     30    bbb    H10    915 0.09515400   1.008000   ; qtot 30.587701
  916         c3     30    bbb     C6    916 -0.11337700  12.010000   ; qtot 30.474324
  917         hc     30    bbb    H11    917 0.09515400   1.008000   ; qtot 30.569478
  918         hc     30    bbb    H12    918 0.09515400   1.008000   ; qtot 30.664632
  919         c3     30    bbb     C7    919 0.21842400  12.010000   ; qtot 30.883056
  920         h1     30    bbb    H13    920 0.04500300   1.008000   ; qtot 30.928059
  921         h1     30    bbb    H14    921 0.04500300   1.008000   ; qtot 30.973062
  922         c3     30    bbb     C8    922 -0.06455200  12.010000   ; qtot 30.908510
  923         h1     30    bbb    H15    923 0.13554100   1.008000   ; qtot 31.044051
  924         h1     30    bbb    H16    924 0.13554100   1.008000   ; qtot 31.179592
  925         c3     30    bbb     C9    925 -0.06455200  12.010000   ; qtot 31.115040
  926         h1     30    bbb    H17    926 0.13554100   1.008000   ; qtot 31.250581
  927         h1     30    bbb    H18    927 0.13554100   1.008000   ; qtot 31.386122
  928         os     30    bbb     O1    928 -0.62587700  16.000000   ; qtot 30.760245
  929         hn     30    bbb    H19    929 0.23982500   1.008000   ; qtot 31.000070
; residue   31 bbb rtp bbb q 1.0
  930         n4     31    bbb     N1    930 0.03726400  14.010000   ; qtot 31.037334
  931         c3     31    bbb     C1    931 -0.07020100  12.010000   ; qtot 30.967133
  932         hx     31    bbb     H1    932 0.12219000   1.008000   ; qtot 31.089323
  933         hx     31    bbb     H2    933 0.12219000   1.008000   ; qtot 31.211513
  934         c3     31    bbb     C2    934 -0.07020100  12.010000   ; qtot 31.141312
  935         hx     31    bbb     H3    935 0.12219000   1.008000   ; qtot 31.263502
  936         hx     31    bbb     H4    936 0.12219000   1.008000   ; qtot 31.385692
  937         c3     31    bbb     C3    937 -0.39007700  12.010000   ; qtot 30.995615
  938         hx     31    bbb     H5    938 0.14940300   1.008000   ; qtot 31.145018
  939         hx     31    bbb     H6    939 0.14940300   1.008000   ; qtot 31.294421
  940         c3     31    bbb     C4    940 0.18057300  12.010000   ; qtot 31.474994
  941         hc     31    bbb     H7    941 0.01788900   1.008000   ; qtot 31.492883
  942         hc     31    bbb     H8    942 0.01788900   1.008000   ; qtot 31.510772
  943         c3     31    bbb     C5    943 -0.11337700  12.010000   ; qtot 31.397395
  944         hc     31    bbb     H9    944 0.09515400   1.008000   ; qtot 31.492549
  945         hc     31    bbb    H10    945 0.09515400   1.008000   ; qtot 31.587703
  946         c3     31    bbb     C6    946 -0.11337700  12.010000   ; qtot 31.474326
  947         hc     31    bbb    H11    947 0.09515400   1.008000   ; qtot 31.569480
  948         hc     31    bbb    H12    948 0.09515400   1.008000   ; qtot 31.664634
  949         c3     31    bbb     C7    949 0.21842400  12.010000   ; qtot 31.883058
  950         h1     31    bbb    H13    950 0.04500300   1.008000   ; qtot 31.928061
  951         h1     31    bbb    H14    951 0.04500300   1.008000   ; qtot 31.973064
  952         c3     31    bbb     C8    952 -0.06455200  12.010000   ; qtot 31.908512
  953         h1     31    bbb    H15    953 0.13554100   1.008000   ; qtot 32.044053
  954         h1     31    bbb    H16    954 0.13554100   1.008000   ; qtot 32.179594
  955         c3     31    bbb     C9    955 -0.06455200  12.010000   ; qtot 32.115042
  956         h1     31    bbb    H17    956 0.13554100   1.008000   ; qtot 32.250583
  957         h1     31    bbb    H18    957 0.13554100   1.008000   ; qtot 32.386124
  958         os     31    bbb     O1    958 -0.62587700  16.000000   ; qtot 31.760247
  959         hn     31    bbb    H19    959 0.23982500   1.008000   ; qtot 32.000072
; residue   32 bbb rtp bbb q 1.0
  960         n4     32    bbb     N1    960 0.03726400  14.010000   ; qtot 32.037336
  961         c3     32    bbb     C1    961 -0.07020100  12.010000   ; qtot 31.967135
  962         hx     32    bbb     H1    962 0.12219000   1.008000   ; qtot 32.089325
  963         hx     32    bbb     H2    963 0.12219000   1.008000   ; qtot 32.211515
  964         c3     32    bbb     C2    964 -0.07020100  12.010000   ; qtot 32.141314
  965         hx     32    bbb     H3    965 0.12219000   1.008000   ; qtot 32.263504
  966         hx     32    bbb     H4    966 0.12219000   1.008000   ; qtot 32.385694
  967         c3     32    bbb     C3    967 -0.39007700  12.010000   ; qtot 31.995617
  968         hx     32    bbb     H5    968 0.14940300   1.008000   ; qtot 32.145020
  969         hx     32    bbb     H6    969 0.14940300   1.008000   ; qtot 32.294423
  970         c3     32    bbb     C4    970 0.18057300  12.010000   ; qtot 32.474996
  971         hc     32    bbb     H7    971 0.01788900   1.008000   ; qtot 32.492885
  972         hc     32    bbb     H8    972 0.01788900   1.008000   ; qtot 32.510774
  973         c3     32    bbb     C5    973 -0.11337700  12.010000   ; qtot 32.397397
  974         hc     32    bbb     H9    974 0.09515400   1.008000   ; qtot 32.492551
  975         hc     32    bbb    H10    975 0.09515400   1.008000   ; qtot 32.587705
  976         c3     32    bbb     C6    976 -0.11337700  12.010000   ; qtot 32.474328
  977         hc     32    bbb    H11    977 0.09515400   1.008000   ; qtot 32.569482
  978         hc     32    bbb    H12    978 0.09515400   1.008000   ; qtot 32.664636
  979         c3     32    bbb     C7    979 0.21842400  12.010000   ; qtot 32.883060
  980         h1     32    bbb    H13    980 0.04500300   1.008000   ; qtot 32.928063
  981         h1     32    bbb    H14    981 0.04500300   1.008000   ; qtot 32.973066
  982         c3     32    bbb     C8    982 -0.06455200  12.010000   ; qtot 32.908514
  983         h1     32    bbb    H15    983 0.13554100   1.008000   ; qtot 33.044055
  984         h1     32    bbb    H16    984 0.13554100   1.008000   ; qtot 33.179596
  985         c3     32    bbb     C9    985 -0.06455200  12.010000   ; qtot 33.115044
  986         h1     32    bbb    H17    986 0.13554100   1.008000   ; qtot 33.250585
  987         h1     32    bbb    H18    987 0.13554100   1.008000   ; qtot 33.386126
  988         os     32    bbb     O1    988 -0.62587700  16.000000   ; qtot 32.760249
  989         hn     32    bbb    H19    989 0.23982500   1.008000   ; qtot 33.000074
; residue   33 bbb rtp bbb q 1.0
  990         n4     33    bbb     N1    990 0.03726400  14.010000   ; qtot 33.037338
  991         c3     33    bbb     C1    991 -0.07020100  12.010000   ; qtot 32.967137
  992         hx     33    bbb     H1    992 0.12219000   1.008000   ; qtot 33.089327
  993         hx     33    bbb     H2    993 0.12219000   1.008000   ; qtot 33.211517
  994         c3     33    bbb     C2    994 -0.07020100  12.010000   ; qtot 33.141316
  995         hx     33    bbb     H3    995 0.12219000   1.008000   ; qtot 33.263506
  996         hx     33    bbb     H4    996 0.12219000   1.008000   ; qtot 33.385696
  997         c3     33    bbb     C3    997 -0.39007700  12.010000   ; qtot 32.995619
  998         hx     33    bbb     H5    998 0.14940300   1.008000   ; qtot 33.145022
  999         hx     33    bbb     H6    999 0.14940300   1.008000   ; qtot 33.294425
 1000         c3     33    bbb     C4   1000 0.18057300  12.010000   ; qtot 33.474998
 1001         hc     33    bbb     H7   1001 0.01788900   1.008000   ; qtot 33.492887
 1002         hc     33    bbb     H8   1002 0.01788900   1.008000   ; qtot 33.510776
 1003         c3     33    bbb     C5   1003 -0.11337700  12.010000   ; qtot 33.397399
 1004         hc     33    bbb     H9   1004 0.09515400   1.008000   ; qtot 33.492553
 1005         hc     33    bbb    H10   1005 0.09515400   1.008000   ; qtot 33.587707
 1006         c3     33    bbb     C6   1006 -0.11337700  12.010000   ; qtot 33.474330
 1007         hc     33    bbb    H11   1007 0.09515400   1.008000   ; qtot 33.569484
 1008         hc     33    bbb    H12   1008 0.09515400   1.008000   ; qtot 33.664638
 1009         c3     33    bbb     C7   1009 0.21842400  12.010000   ; qtot 33.883062
 1010         h1     33    bbb    H13   1010 0.04500300   1.008000   ; qtot 33.928065
 1011         h1     33    bbb    H14   1011 0.04500300   1.008000   ; qtot 33.973068
 1012         c3     33    bbb     C8   1012 -0.06455200  12.010000   ; qtot 33.908516
 1013         h1     33    bbb    H15   1013 0.13554100   1.008000   ; qtot 34.044057
 1014         h1     33    bbb    H16   1014 0.13554100   1.008000   ; qtot 34.179598
 1015         c3     33    bbb     C9   1015 -0.06455200  12.010000   ; qtot 34.115046
 1016         h1     33    bbb    H17   1016 0.13554100   1.008000   ; qtot 34.250587
 1017         h1     33    bbb    H18   1017 0.13554100   1.008000   ; qtot 34.386128
 1018         os     33    bbb     O1   1018 -0.62587700  16.000000   ; qtot 33.760251
 1019         hn     33    bbb    H19   1019 0.23982500   1.008000   ; qtot 34.000076
; residue   34 bbb rtp bbb q 1.0
 1020         n4     34    bbb     N1   1020 0.03726400  14.010000   ; qtot 34.037340
 1021         c3     34    bbb     C1   1021 -0.07020100  12.010000   ; qtot 33.967139
 1022         hx     34    bbb     H1   1022 0.12219000   1.008000   ; qtot 34.089329
 1023         hx     34    bbb     H2   1023 0.12219000   1.008000   ; qtot 34.211519
 1024         c3     34    bbb     C2   1024 -0.07020100  12.010000   ; qtot 34.141318
 1025         hx     34    bbb     H3   1025 0.12219000   1.008000   ; qtot 34.263508
 1026         hx     34    bbb     H4   1026 0.12219000   1.008000   ; qtot 34.385698
 1027         c3     34    bbb     C3   1027 -0.39007700  12.010000   ; qtot 33.995621
 1028         hx     34    bbb     H5   1028 0.14940300   1.008000   ; qtot 34.145024
 1029         hx     34    bbb     H6   1029 0.14940300   1.008000   ; qtot 34.294427
 1030         c3     34    bbb     C4   1030 0.18057300  12.010000   ; qtot 34.475000
 1031         hc     34    bbb     H7   1031 0.01788900   1.008000   ; qtot 34.492889
 1032         hc     34    bbb     H8   1032 0.01788900   1.008000   ; qtot 34.510778
 1033         c3     34    bbb     C5   1033 -0.11337700  12.010000   ; qtot 34.397401
 1034         hc     34    bbb     H9   1034 0.09515400   1.008000   ; qtot 34.492555
 1035         hc     34    bbb    H10   1035 0.09515400   1.008000   ; qtot 34.587709
 1036         c3     34    bbb     C6   1036 -0.11337700  12.010000   ; qtot 34.474332
 1037         hc     34    bbb    H11   1037 0.09515400   1.008000   ; qtot 34.569486
 1038         hc     34    bbb    H12   1038 0.09515400   1.008000   ; qtot 34.664640
 1039         c3     34    bbb     C7   1039 0.21842400  12.010000   ; qtot 34.883064
 1040         h1     34    bbb    H13   1040 0.04500300   1.008000   ; qtot 34.928067
 1041         h1     34    bbb    H14   1041 0.04500300   1.008000   ; qtot 34.973070
 1042         c3     34    bbb     C8   1042 -0.06455200  12.010000   ; qtot 34.908518
 1043         h1     34    bbb    H15   1043 0.13554100   1.008000   ; qtot 35.044059
 1044         h1     34    bbb    H16   1044 0.13554100   1.008000   ; qtot 35.179600
 1045         c3     34    bbb     C9   1045 -0.06455200  12.010000   ; qtot 35.115048
 1046         h1     34    bbb    H17   1046 0.13554100   1.008000   ; qtot 35.250589
 1047         h1     34    bbb    H18   1047 0.13554100   1.008000   ; qtot 35.386130
 1048         os     34    bbb     O1   1048 -0.62587700  16.000000   ; qtot 34.760253
 1049         hn     34    bbb    H19   1049 0.23982500   1.008000   ; qtot 35.000078
; residue   35 bbb rtp bbb q 1.0
 1050         n4     35    bbb     N1   1050 0.03726400  14.010000   ; qtot 35.037342
 1051         c3     35    bbb     C1   1051 -0.07020100  12.010000   ; qtot 34.967141
 1052         hx     35    bbb     H1   1052 0.12219000   1.008000   ; qtot 35.089331
 1053         hx     35    bbb     H2   1053 0.12219000   1.008000   ; qtot 35.211521
 1054         c3     35    bbb     C2   1054 -0.07020100  12.010000   ; qtot 35.141320
 1055         hx     35    bbb     H3   1055 0.12219000   1.008000   ; qtot 35.263510
 1056         hx     35    bbb     H4   1056 0.12219000   1.008000   ; qtot 35.385700
 1057         c3     35    bbb     C3   1057 -0.39007700  12.010000   ; qtot 34.995623
 1058         hx     35    bbb     H5   1058 0.14940300   1.008000   ; qtot 35.145026
 1059         hx     35    bbb     H6   1059 0.14940300   1.008000   ; qtot 35.294429
 1060         c3     35    bbb     C4   1060 0.18057300  12.010000   ; qtot 35.475002
 1061         hc     35    bbb     H7   1061 0.01788900   1.008000   ; qtot 35.492891
 1062         hc     35    bbb     H8   1062 0.01788900   1.008000   ; qtot 35.510780
 1063         c3     35    bbb     C5   1063 -0.11337700  12.010000   ; qtot 35.397403
 1064         hc     35    bbb     H9   1064 0.09515400   1.008000   ; qtot 35.492557
 1065         hc     35    bbb    H10   1065 0.09515400   1.008000   ; qtot 35.587711
 1066         c3     35    bbb     C6   1066 -0.11337700  12.010000   ; qtot 35.474334
 1067         hc     35    bbb    H11   1067 0.09515400   1.008000   ; qtot 35.569488
 1068         hc     35    bbb    H12   1068 0.09515400   1.008000   ; qtot 35.664642
 1069         c3     35    bbb     C7   1069 0.21842400  12.010000   ; qtot 35.883066
 1070         h1     35    bbb    H13   1070 0.04500300   1.008000   ; qtot 35.928069
 1071         h1     35    bbb    H14   1071 0.04500300   1.008000   ; qtot 35.973072
 1072         c3     35    bbb     C8   1072 -0.06455200  12.010000   ; qtot 35.908520
 1073         h1     35    bbb    H15   1073 0.13554100   1.008000   ; qtot 36.044061
 1074         h1     35    bbb    H16   1074 0.13554100   1.008000   ; qtot 36.179602
 1075         c3     35    bbb     C9   1075 -0.06455200  12.010000   ; qtot 36.115050
 1076         h1     35    bbb    H17   1076 0.13554100   1.008000   ; qtot 36.250591
 1077         h1     35    bbb    H18   1077 0.13554100   1.008000   ; qtot 36.386132
 1078         os     35    bbb     O1   1078 -0.62587700  16.000000   ; qtot 35.760255
 1079         hn     35    bbb    H19   1079 0.23982500   1.008000   ; qtot 36.000080
; residue   36 bbb rtp bbb q 1.0
 1080         n4     36    bbb     N1   1080 0.03726400  14.010000   ; qtot 36.037344
 1081         c3     36    bbb     C1   1081 -0.07020100  12.010000   ; qtot 35.967143
 1082         hx     36    bbb     H1   1082 0.12219000   1.008000   ; qtot 36.089333
 1083         hx     36    bbb     H2   1083 0.12219000   1.008000   ; qtot 36.211523
 1084         c3     36    bbb     C2   1084 -0.07020100  12.010000   ; qtot 36.141322
 1085         hx     36    bbb     H3   1085 0.12219000   1.008000   ; qtot 36.263512
 1086         hx     36    bbb     H4   1086 0.12219000   1.008000   ; qtot 36.385702
 1087         c3     36    bbb     C3   1087 -0.39007700  12.010000   ; qtot 35.995625
 1088         hx     36    bbb     H5   1088 0.14940300   1.008000   ; qtot 36.145028
 1089         hx     36    bbb     H6   1089 0.14940300   1.008000   ; qtot 36.294431
 1090         c3     36    bbb     C4   1090 0.18057300  12.010000   ; qtot 36.475004
 1091         hc     36    bbb     H7   1091 0.01788900   1.008000   ; qtot 36.492893
 1092         hc     36    bbb     H8   1092 0.01788900   1.008000   ; qtot 36.510782
 1093         c3     36    bbb     C5   1093 -0.11337700  12.010000   ; qtot 36.397405
 1094         hc     36    bbb     H9   1094 0.09515400   1.008000   ; qtot 36.492559
 1095         hc     36    bbb    H10   1095 0.09515400   1.008000   ; qtot 36.587713
 1096         c3     36    bbb     C6   1096 -0.11337700  12.010000   ; qtot 36.474336
 1097         hc     36    bbb    H11   1097 0.09515400   1.008000   ; qtot 36.569490
 1098         hc     36    bbb    H12   1098 0.09515400   1.008000   ; qtot 36.664644
 1099         c3     36    bbb     C7   1099 0.21842400  12.010000   ; qtot 36.883068
 1100         h1     36    bbb    H13   1100 0.04500300   1.008000   ; qtot 36.928071
 1101         h1     36    bbb    H14   1101 0.04500300   1.008000   ; qtot 36.973074
 1102         c3     36    bbb     C8   1102 -0.06455200  12.010000   ; qtot 36.908522
 1103         h1     36    bbb    H15   1103 0.13554100   1.008000   ; qtot 37.044063
 1104         h1     36    bbb    H16   1104 0.13554100   1.008000   ; qtot 37.179604
 1105         c3     36    bbb     C9   1105 -0.06455200  12.010000   ; qtot 37.115052
 1106         h1     36    bbb    H17   1106 0.13554100   1.008000   ; qtot 37.250593
 1107         h1     36    bbb    H18   1107 0.13554100   1.008000   ; qtot 37.386134
 1108         os     36    bbb     O1   1108 -0.62587700  16.000000   ; qtot 36.760257
 1109         hn     36    bbb    H19   1109 0.23982500   1.008000   ; qtot 37.000082
; residue   37 bbb rtp bbb q 1.0
 1110         n4     37    bbb     N1   1110 0.03726400  14.010000   ; qtot 37.037346
 1111         c3     37    bbb     C1   1111 -0.07020100  12.010000   ; qtot 36.967145
 1112         hx     37    bbb     H1   1112 0.12219000   1.008000   ; qtot 37.089335
 1113         hx     37    bbb     H2   1113 0.12219000   1.008000   ; qtot 37.211525
 1114         c3     37    bbb     C2   1114 -0.07020100  12.010000   ; qtot 37.141324
 1115         hx     37    bbb     H3   1115 0.12219000   1.008000   ; qtot 37.263514
 1116         hx     37    bbb     H4   1116 0.12219000   1.008000   ; qtot 37.385704
 1117         c3     37    bbb     C3   1117 -0.39007700  12.010000   ; qtot 36.995627
 1118         hx     37    bbb     H5   1118 0.14940300   1.008000   ; qtot 37.145030
 1119         hx     37    bbb     H6   1119 0.14940300   1.008000   ; qtot 37.294433
 1120         c3     37    bbb     C4   1120 0.18057300  12.010000   ; qtot 37.475006
 1121         hc     37    bbb     H7   1121 0.01788900   1.008000   ; qtot 37.492895
 1122         hc     37    bbb     H8   1122 0.01788900   1.008000   ; qtot 37.510784
 1123         c3     37    bbb     C5   1123 -0.11337700  12.010000   ; qtot 37.397407
 1124         hc     37    bbb     H9   1124 0.09515400   1.008000   ; qtot 37.492561
 1125         hc     37    bbb    H10   1125 0.09515400   1.008000   ; qtot 37.587715
 1126         c3     37    bbb     C6   1126 -0.11337700  12.010000   ; qtot 37.474338
 1127         hc     37    bbb    H11   1127 0.09515400   1.008000   ; qtot 37.569492
 1128         hc     37    bbb    H12   1128 0.09515400   1.008000   ; qtot 37.664646
 1129         c3     37    bbb     C7   1129 0.21842400  12.010000   ; qtot 37.883070
 1130         h1     37    bbb    H13   1130 0.04500300   1.008000   ; qtot 37.928073
 1131         h1     37    bbb    H14   1131 0.04500300   1.008000   ; qtot 37.973076
 1132         c3     37    bbb     C8   1132 -0.06455200  12.010000   ; qtot 37.908524
 1133         h1     37    bbb    H15   1133 0.13554100   1.008000   ; qtot 38.044065
 1134         h1     37    bbb    H16   1134 0.13554100   1.008000   ; qtot 38.179606
 1135         c3     37    bbb     C9   1135 -0.06455200  12.010000   ; qtot 38.115054
 1136         h1     37    bbb    H17   1136 0.13554100   1.008000   ; qtot 38.250595
 1137         h1     37    bbb    H18   1137 0.13554100   1.008000   ; qtot 38.386136
 1138         os     37    bbb     O1   1138 -0.62587700  16.000000   ; qtot 37.760259
 1139         hn     37    bbb    H19   1139 0.23982500   1.008000   ; qtot 38.000084
; residue   38 bbb rtp bbb q 1.0
 1140         n4     38    bbb     N1   1140 0.03726400  14.010000   ; qtot 38.037348
 1141         c3     38    bbb     C1   1141 -0.07020100  12.010000   ; qtot 37.967147
 1142         hx     38    bbb     H1   1142 0.12219000   1.008000   ; qtot 38.089337
 1143         hx     38    bbb     H2   1143 0.12219000   1.008000   ; qtot 38.211527
 1144         c3     38    bbb     C2   1144 -0.07020100  12.010000   ; qtot 38.141326
 1145         hx     38    bbb     H3   1145 0.12219000   1.008000   ; qtot 38.263516
 1146         hx     38    bbb     H4   1146 0.12219000   1.008000   ; qtot 38.385706
 1147         c3     38    bbb     C3   1147 -0.39007700  12.010000   ; qtot 37.995629
 1148         hx     38    bbb     H5   1148 0.14940300   1.008000   ; qtot 38.145032
 1149         hx     38    bbb     H6   1149 0.14940300   1.008000   ; qtot 38.294435
 1150         c3     38    bbb     C4   1150 0.18057300  12.010000   ; qtot 38.475008
 1151         hc     38    bbb     H7   1151 0.01788900   1.008000   ; qtot 38.492897
 1152         hc     38    bbb     H8   1152 0.01788900   1.008000   ; qtot 38.510786
 1153         c3     38    bbb     C5   1153 -0.11337700  12.010000   ; qtot 38.397409
 1154         hc     38    bbb     H9   1154 0.09515400   1.008000   ; qtot 38.492563
 1155         hc     38    bbb    H10   1155 0.09515400   1.008000   ; qtot 38.587717
 1156         c3     38    bbb     C6   1156 -0.11337700  12.010000   ; qtot 38.474340
 1157         hc     38    bbb    H11   1157 0.09515400   1.008000   ; qtot 38.569494
 1158         hc     38    bbb    H12   1158 0.09515400   1.008000   ; qtot 38.664648
 1159         c3     38    bbb     C7   1159 0.21842400  12.010000   ; qtot 38.883072
 1160         h1     38    bbb    H13   1160 0.04500300   1.008000   ; qtot 38.928075
 1161         h1     38    bbb    H14   1161 0.04500300   1.008000   ; qtot 38.973078
 1162         c3     38    bbb     C8   1162 -0.06455200  12.010000   ; qtot 38.908526
 1163         h1     38    bbb    H15   1163 0.13554100   1.008000   ; qtot 39.044067
 1164         h1     38    bbb    H16   1164 0.13554100   1.008000   ; qtot 39.179608
 1165         c3     38    bbb     C9   1165 -0.06455200  12.010000   ; qtot 39.115056
 1166         h1     38    bbb    H17   1166 0.13554100   1.008000   ; qtot 39.250597
 1167         h1     38    bbb    H18   1167 0.13554100   1.008000   ; qtot 39.386138
 1168         os     38    bbb     O1   1168 -0.62587700  16.000000   ; qtot 38.760261
 1169         hn     38    bbb    H19   1169 0.23982500   1.008000   ; qtot 39.000086
; residue   39 bbb rtp bbb q 1.0
 1170         n4     39    bbb     N1   1170 0.03726400  14.010000   ; qtot 39.037350
 1171         c3     39    bbb     C1   1171 -0.07020100  12.010000   ; qtot 38.967149
 1172         hx     39    bbb     H1   1172 0.12219000   1.008000   ; qtot 39.089339
 1173         hx     39    bbb     H2   1173 0.12219000   1.008000   ; qtot 39.211529
 1174         c3     39    bbb     C2   1174 -0.07020100  12.010000   ; qtot 39.141328
 1175         hx     39    bbb     H3   1175 0.12219000   1.008000   ; qtot 39.263518
 1176         hx     39    bbb     H4   1176 0.12219000   1.008000   ; qtot 39.385708
 1177         c3     39    bbb     C3   1177 -0.39007700  12.010000   ; qtot 38.995631
 1178         hx     39    bbb     H5   1178 0.14940300   1.008000   ; qtot 39.145034
 1179         hx     39    bbb     H6   1179 0.14940300   1.008000   ; qtot 39.294437
 1180         c3     39    bbb     C4   1180 0.18057300  12.010000   ; qtot 39.475010
 1181         hc     39    bbb     H7   1181 0.01788900   1.008000   ; qtot 39.492899
 1182         hc     39    bbb     H8   1182 0.01788900   1.008000   ; qtot 39.510788
 1183         c3     39    bbb     C5   1183 -0.11337700  12.010000   ; qtot 39.397411
 1184         hc     39    bbb     H9   1184 0.09515400   1.008000   ; qtot 39.492565
 1185         hc     39    bbb    H10   1185 0.09515400   1.008000   ; qtot 39.587719
 1186         c3     39    bbb     C6   1186 -0.11337700  12.010000   ; qtot 39.474342
 1187         hc     39    bbb    H11   1187 0.09515400   1.008000   ; qtot 39.569496
 1188         hc     39    bbb    H12   1188 0.09515400   1.008000   ; qtot 39.664650
 1189         c3     39    bbb     C7   1189 0.21842400  12.010000   ; qtot 39.883074
 1190         h1     39    bbb    H13   1190 0.04500300   1.008000   ; qtot 39.928077
 1191         h1     39    bbb    H14   1191 0.04500300   1.008000   ; qtot 39.973080
 1192         c3     39    bbb     C8   1192 -0.06455200  12.010000   ; qtot 39.908528
 1193         h1     39    bbb    H15   1193 0.13554100   1.008000   ; qtot 40.044069
 1194         h1     39    bbb    H16   1194 0.13554100   1.008000   ; qtot 40.179610
 1195         c3     39    bbb     C9   1195 -0.06455200  12.010000   ; qtot 40.115058
 1196         h1     39    bbb    H17   1196 0.13554100   1.008000   ; qtot 40.250599
 1197         h1     39    bbb    H18   1197 0.13554100   1.008000   ; qtot 40.386140
 1198         os     39    bbb     O1   1198 -0.62587700  16.000000   ; qtot 39.760263
 1199         hn     39    bbb    H19   1199 0.23982500   1.008000   ; qtot 40.000088
; residue   40 bbb rtp bbb q 1.0
 1200         n4     40    bbb     N1   1200 0.03726400  14.010000   ; qtot 40.037352
 1201         c3     40    bbb     C1   1201 -0.07020100  12.010000   ; qtot 39.967151
 1202         hx     40    bbb     H1   1202 0.12219000   1.008000   ; qtot 40.089341
 1203         hx     40    bbb     H2   1203 0.12219000   1.008000   ; qtot 40.211531
 1204         c3     40    bbb     C2   1204 -0.07020100  12.010000   ; qtot 40.141330
 1205         hx     40    bbb     H3   1205 0.12219000   1.008000   ; qtot 40.263520
 1206         hx     40    bbb     H4   1206 0.12219000   1.008000   ; qtot 40.385710
 1207         c3     40    bbb     C3   1207 -0.39007700  12.010000   ; qtot 39.995633
 1208         hx     40    bbb     H5   1208 0.14940300   1.008000   ; qtot 40.145036
 1209         hx     40    bbb     H6   1209 0.14940300   1.008000   ; qtot 40.294439
 1210         c3     40    bbb     C4   1210 0.18057300  12.010000   ; qtot 40.475012
 1211         hc     40    bbb     H7   1211 0.01788900   1.008000   ; qtot 40.492901
 1212         hc     40    bbb     H8   1212 0.01788900   1.008000   ; qtot 40.510790
 1213         c3     40    bbb     C5   1213 -0.11337700  12.010000   ; qtot 40.397413
 1214         hc     40    bbb     H9   1214 0.09515400   1.008000   ; qtot 40.492567
 1215         hc     40    bbb    H10   1215 0.09515400   1.008000   ; qtot 40.587721
 1216         c3     40    bbb     C6   1216 -0.11337700  12.010000   ; qtot 40.474344
 1217         hc     40    bbb    H11   1217 0.09515400   1.008000   ; qtot 40.569498
 1218         hc     40    bbb    H12   1218 0.09515400   1.008000   ; qtot 40.664652
 1219         c3     40    bbb     C7   1219 0.21842400  12.010000   ; qtot 40.883076
 1220         h1     40    bbb    H13   1220 0.04500300   1.008000   ; qtot 40.928079
 1221         h1     40    bbb    H14   1221 0.04500300   1.008000   ; qtot 40.973082
 1222         c3     40    bbb     C8   1222 -0.06455200  12.010000   ; qtot 40.908530
 1223         h1     40    bbb    H15   1223 0.13554100   1.008000   ; qtot 41.044071
 1224         h1     40    bbb    H16   1224 0.13554100   1.008000   ; qtot 41.179612
 1225         c3     40    bbb     C9   1225 -0.06455200  12.010000   ; qtot 41.115060
 1226         h1     40    bbb    H17   1226 0.13554100   1.008000   ; qtot 41.250601
 1227         h1     40    bbb    H18   1227 0.13554100   1.008000   ; qtot 41.386142
 1228         os     40    bbb     O1   1228 -0.62587700  16.000000   ; qtot 40.760265
 1229         hn     40    bbb    H19   1229 0.23982500   1.008000   ; qtot 41.000090
; residue   41 bbb rtp bbb q 1.0
 1230         n4     41    bbb     N1   1230 0.03726400  14.010000   ; qtot 41.037354
 1231         c3     41    bbb     C1   1231 -0.07020100  12.010000   ; qtot 40.967153
 1232         hx     41    bbb     H1   1232 0.12219000   1.008000   ; qtot 41.089343
 1233         hx     41    bbb     H2   1233 0.12219000   1.008000   ; qtot 41.211533
 1234         c3     41    bbb     C2   1234 -0.07020100  12.010000   ; qtot 41.141332
 1235         hx     41    bbb     H3   1235 0.12219000   1.008000   ; qtot 41.263522
 1236         hx     41    bbb     H4   1236 0.12219000   1.008000   ; qtot 41.385712
 1237         c3     41    bbb     C3   1237 -0.39007700  12.010000   ; qtot 40.995635
 1238         hx     41    bbb     H5   1238 0.14940300   1.008000   ; qtot 41.145038
 1239         hx     41    bbb     H6   1239 0.14940300   1.008000   ; qtot 41.294441
 1240         c3     41    bbb     C4   1240 0.18057300  12.010000   ; qtot 41.475014
 1241         hc     41    bbb     H7   1241 0.01788900   1.008000   ; qtot 41.492903
 1242         hc     41    bbb     H8   1242 0.01788900   1.008000   ; qtot 41.510792
 1243         c3     41    bbb     C5   1243 -0.11337700  12.010000   ; qtot 41.397415
 1244         hc     41    bbb     H9   1244 0.09515400   1.008000   ; qtot 41.492569
 1245         hc     41    bbb    H10   1245 0.09515400   1.008000   ; qtot 41.587723
 1246         c3     41    bbb     C6   1246 -0.11337700  12.010000   ; qtot 41.474346
 1247         hc     41    bbb    H11   1247 0.09515400   1.008000   ; qtot 41.569500
 1248         hc     41    bbb    H12   1248 0.09515400   1.008000   ; qtot 41.664654
 1249         c3     41    bbb     C7   1249 0.21842400  12.010000   ; qtot 41.883078
 1250         h1     41    bbb    H13   1250 0.04500300   1.008000   ; qtot 41.928081
 1251         h1     41    bbb    H14   1251 0.04500300   1.008000   ; qtot 41.973084
 1252         c3     41    bbb     C8   1252 -0.06455200  12.010000   ; qtot 41.908532
 1253         h1     41    bbb    H15   1253 0.13554100   1.008000   ; qtot 42.044073
 1254         h1     41    bbb    H16   1254 0.13554100   1.008000   ; qtot 42.179614
 1255         c3     41    bbb     C9   1255 -0.06455200  12.010000   ; qtot 42.115062
 1256         h1     41    bbb    H17   1256 0.13554100   1.008000   ; qtot 42.250603
 1257         h1     41    bbb    H18   1257 0.13554100   1.008000   ; qtot 42.386144
 1258         os     41    bbb     O1   1258 -0.62587700  16.000000   ; qtot 41.760267
 1259         hn     41    bbb    H19   1259 0.23982500   1.008000   ; qtot 42.000092
; residue   42 bbb rtp bbb q 1.0
 1260         n4     42    bbb     N1   1260 0.03726400  14.010000   ; qtot 42.037356
 1261         c3     42    bbb     C1   1261 -0.07020100  12.010000   ; qtot 41.967155
 1262         hx     42    bbb     H1   1262 0.12219000   1.008000   ; qtot 42.089345
 1263         hx     42    bbb     H2   1263 0.12219000   1.008000   ; qtot 42.211535
 1264         c3     42    bbb     C2   1264 -0.07020100  12.010000   ; qtot 42.141334
 1265         hx     42    bbb     H3   1265 0.12219000   1.008000   ; qtot 42.263524
 1266         hx     42    bbb     H4   1266 0.12219000   1.008000   ; qtot 42.385714
 1267         c3     42    bbb     C3   1267 -0.39007700  12.010000   ; qtot 41.995637
 1268         hx     42    bbb     H5   1268 0.14940300   1.008000   ; qtot 42.145040
 1269         hx     42    bbb     H6   1269 0.14940300   1.008000   ; qtot 42.294443
 1270         c3     42    bbb     C4   1270 0.18057300  12.010000   ; qtot 42.475016
 1271         hc     42    bbb     H7   1271 0.01788900   1.008000   ; qtot 42.492905
 1272         hc     42    bbb     H8   1272 0.01788900   1.008000   ; qtot 42.510794
 1273         c3     42    bbb     C5   1273 -0.11337700  12.010000   ; qtot 42.397417
 1274         hc     42    bbb     H9   1274 0.09515400   1.008000   ; qtot 42.492571
 1275         hc     42    bbb    H10   1275 0.09515400   1.008000   ; qtot 42.587725
 1276         c3     42    bbb     C6   1276 -0.11337700  12.010000   ; qtot 42.474348
 1277         hc     42    bbb    H11   1277 0.09515400   1.008000   ; qtot 42.569502
 1278         hc     42    bbb    H12   1278 0.09515400   1.008000   ; qtot 42.664656
 1279         c3     42    bbb     C7   1279 0.21842400  12.010000   ; qtot 42.883080
 1280         h1     42    bbb    H13   1280 0.04500300   1.008000   ; qtot 42.928083
 1281         h1     42    bbb    H14   1281 0.04500300   1.008000   ; qtot 42.973086
 1282         c3     42    bbb     C8   1282 -0.06455200  12.010000   ; qtot 42.908534
 1283         h1     42    bbb    H15   1283 0.13554100   1.008000   ; qtot 43.044075
 1284         h1     42    bbb    H16   1284 0.13554100   1.008000   ; qtot 43.179616
 1285         c3     42    bbb     C9   1285 -0.06455200  12.010000   ; qtot 43.115064
 1286         h1     42    bbb    H17   1286 0.13554100   1.008000   ; qtot 43.250605
 1287         h1     42    bbb    H18   1287 0.13554100   1.008000   ; qtot 43.386146
 1288         os     42    bbb     O1   1288 -0.62587700  16.000000   ; qtot 42.760269
 1289         hn     42    bbb    H19   1289 0.23982500   1.008000   ; qtot 43.000094
; residue   43 bbb rtp bbb q 1.0
 1290         n4     43    bbb     N1   1290 0.03726400  14.010000   ; qtot 43.037358
 1291         c3     43    bbb     C1   1291 -0.07020100  12.010000   ; qtot 42.967157
 1292         hx     43    bbb     H1   1292 0.12219000   1.008000   ; qtot 43.089347
 1293         hx     43    bbb     H2   1293 0.12219000   1.008000   ; qtot 43.211537
 1294         c3     43    bbb     C2   1294 -0.07020100  12.010000   ; qtot 43.141336
 1295         hx     43    bbb     H3   1295 0.12219000   1.008000   ; qtot 43.263526
 1296         hx     43    bbb     H4   1296 0.12219000   1.008000   ; qtot 43.385716
 1297         c3     43    bbb     C3   1297 -0.39007700  12.010000   ; qtot 42.995639
 1298         hx     43    bbb     H5   1298 0.14940300   1.008000   ; qtot 43.145042
 1299         hx     43    bbb     H6   1299 0.14940300   1.008000   ; qtot 43.294445
 1300         c3     43    bbb     C4   1300 0.18057300  12.010000   ; qtot 43.475018
 1301         hc     43    bbb     H7   1301 0.01788900   1.008000   ; qtot 43.492907
 1302         hc     43    bbb     H8   1302 0.01788900   1.008000   ; qtot 43.510796
 1303         c3     43    bbb     C5   1303 -0.11337700  12.010000   ; qtot 43.397419
 1304         hc     43    bbb     H9   1304 0.09515400   1.008000   ; qtot 43.492573
 1305         hc     43    bbb    H10   1305 0.09515400   1.008000   ; qtot 43.587727
 1306         c3     43    bbb     C6   1306 -0.11337700  12.010000   ; qtot 43.474350
 1307         hc     43    bbb    H11   1307 0.09515400   1.008000   ; qtot 43.569504
 1308         hc     43    bbb    H12   1308 0.09515400   1.008000   ; qtot 43.664658
 1309         c3     43    bbb     C7   1309 0.21842400  12.010000   ; qtot 43.883082
 1310         h1     43    bbb    H13   1310 0.04500300   1.008000   ; qtot 43.928085
 1311         h1     43    bbb    H14   1311 0.04500300   1.008000   ; qtot 43.973088
 1312         c3     43    bbb     C8   1312 -0.06455200  12.010000   ; qtot 43.908536
 1313         h1     43    bbb    H15   1313 0.13554100   1.008000   ; qtot 44.044077
 1314         h1     43    bbb    H16   1314 0.13554100   1.008000   ; qtot 44.179618
 1315         c3     43    bbb     C9   1315 -0.06455200  12.010000   ; qtot 44.115066
 1316         h1     43    bbb    H17   1316 0.13554100   1.008000   ; qtot 44.250607
 1317         h1     43    bbb    H18   1317 0.13554100   1.008000   ; qtot 44.386148
 1318         os     43    bbb     O1   1318 -0.62587700  16.000000   ; qtot 43.760271
 1319         hn     43    bbb    H19   1319 0.23982500   1.008000   ; qtot 44.000096
; residue   44 bbb rtp bbb q 1.0
 1320         n4     44    bbb     N1   1320 0.03726400  14.010000   ; qtot 44.037360
 1321         c3     44    bbb     C1   1321 -0.07020100  12.010000   ; qtot 43.967159
 1322         hx     44    bbb     H1   1322 0.12219000   1.008000   ; qtot 44.089349
 1323         hx     44    bbb     H2   1323 0.12219000   1.008000   ; qtot 44.211539
 1324         c3     44    bbb     C2   1324 -0.07020100  12.010000   ; qtot 44.141338
 1325         hx     44    bbb     H3   1325 0.12219000   1.008000   ; qtot 44.263528
 1326         hx     44    bbb     H4   1326 0.12219000   1.008000   ; qtot 44.385718
 1327         c3     44    bbb     C3   1327 -0.39007700  12.010000   ; qtot 43.995641
 1328         hx     44    bbb     H5   1328 0.14940300   1.008000   ; qtot 44.145044
 1329         hx     44    bbb     H6   1329 0.14940300   1.008000   ; qtot 44.294447
 1330         c3     44    bbb     C4   1330 0.18057300  12.010000   ; qtot 44.475020
 1331         hc     44    bbb     H7   1331 0.01788900   1.008000   ; qtot 44.492909
 1332         hc     44    bbb     H8   1332 0.01788900   1.008000   ; qtot 44.510798
 1333         c3     44    bbb     C5   1333 -0.11337700  12.010000   ; qtot 44.397421
 1334         hc     44    bbb     H9   1334 0.09515400   1.008000   ; qtot 44.492575
 1335         hc     44    bbb    H10   1335 0.09515400   1.008000   ; qtot 44.587729
 1336         c3     44    bbb     C6   1336 -0.11337700  12.010000   ; qtot 44.474352
 1337         hc     44    bbb    H11   1337 0.09515400   1.008000   ; qtot 44.569506
 1338         hc     44    bbb    H12   1338 0.09515400   1.008000   ; qtot 44.664660
 1339         c3     44    bbb     C7   1339 0.21842400  12.010000   ; qtot 44.883084
 1340         h1     44    bbb    H13   1340 0.04500300   1.008000   ; qtot 44.928087
 1341         h1     44    bbb    H14   1341 0.04500300   1.008000   ; qtot 44.973090
 1342         c3     44    bbb     C8   1342 -0.06455200  12.010000   ; qtot 44.908538
 1343         h1     44    bbb    H15   1343 0.13554100   1.008000   ; qtot 45.044079
 1344         h1     44    bbb    H16   1344 0.13554100   1.008000   ; qtot 45.179620
 1345         c3     44    bbb     C9   1345 -0.06455200  12.010000   ; qtot 45.115068
 1346         h1     44    bbb    H17   1346 0.13554100   1.008000   ; qtot 45.250609
 1347         h1     44    bbb    H18   1347 0.13554100   1.008000   ; qtot 45.386150
 1348         os     44    bbb     O1   1348 -0.62587700  16.000000   ; qtot 44.760273
 1349         hn     44    bbb    H19   1349 0.23982500   1.008000   ; qtot 45.000098
; residue   45 bbb rtp bbb q 1.0
 1350         n4     45    bbb     N1   1350 0.03726400  14.010000   ; qtot 45.037362
 1351         c3     45    bbb     C1   1351 -0.07020100  12.010000   ; qtot 44.967161
 1352         hx     45    bbb     H1   1352 0.12219000   1.008000   ; qtot 45.089351
 1353         hx     45    bbb     H2   1353 0.12219000   1.008000   ; qtot 45.211541
 1354         c3     45    bbb     C2   1354 -0.07020100  12.010000   ; qtot 45.141340
 1355         hx     45    bbb     H3   1355 0.12219000   1.008000   ; qtot 45.263530
 1356         hx     45    bbb     H4   1356 0.12219000   1.008000   ; qtot 45.385720
 1357         c3     45    bbb     C3   1357 -0.39007700  12.010000   ; qtot 44.995643
 1358         hx     45    bbb     H5   1358 0.14940300   1.008000   ; qtot 45.145046
 1359         hx     45    bbb     H6   1359 0.14940300   1.008000   ; qtot 45.294449
 1360         c3     45    bbb     C4   1360 0.18057300  12.010000   ; qtot 45.475022
 1361         hc     45    bbb     H7   1361 0.01788900   1.008000   ; qtot 45.492911
 1362         hc     45    bbb     H8   1362 0.01788900   1.008000   ; qtot 45.510800
 1363         c3     45    bbb     C5   1363 -0.11337700  12.010000   ; qtot 45.397423
 1364         hc     45    bbb     H9   1364 0.09515400   1.008000   ; qtot 45.492577
 1365         hc     45    bbb    H10   1365 0.09515400   1.008000   ; qtot 45.587731
 1366         c3     45    bbb     C6   1366 -0.11337700  12.010000   ; qtot 45.474354
 1367         hc     45    bbb    H11   1367 0.09515400   1.008000   ; qtot 45.569508
 1368         hc     45    bbb    H12   1368 0.09515400   1.008000   ; qtot 45.664662
 1369         c3     45    bbb     C7   1369 0.21842400  12.010000   ; qtot 45.883086
 1370         h1     45    bbb    H13   1370 0.04500300   1.008000   ; qtot 45.928089
 1371         h1     45    bbb    H14   1371 0.04500300   1.008000   ; qtot 45.973092
 1372         c3     45    bbb     C8   1372 -0.06455200  12.010000   ; qtot 45.908540
 1373         h1     45    bbb    H15   1373 0.13554100   1.008000   ; qtot 46.044081
 1374         h1     45    bbb    H16   1374 0.13554100   1.008000   ; qtot 46.179622
 1375         c3     45    bbb     C9   1375 -0.06455200  12.010000   ; qtot 46.115070
 1376         h1     45    bbb    H17   1376 0.13554100   1.008000   ; qtot 46.250611
 1377         h1     45    bbb    H18   1377 0.13554100   1.008000   ; qtot 46.386152
 1378         os     45    bbb     O1   1378 -0.62587700  16.000000   ; qtot 45.760275
 1379         hn     45    bbb    H19   1379 0.23982500   1.008000   ; qtot 46.000100
; residue   46 bbb rtp bbb q 1.0
 1380         n4     46    bbb     N1   1380 0.03726400  14.010000   ; qtot 46.037364
 1381         c3     46    bbb     C1   1381 -0.07020100  12.010000   ; qtot 45.967163
 1382         hx     46    bbb     H1   1382 0.12219000   1.008000   ; qtot 46.089353
 1383         hx     46    bbb     H2   1383 0.12219000   1.008000   ; qtot 46.211543
 1384         c3     46    bbb     C2   1384 -0.07020100  12.010000   ; qtot 46.141342
 1385         hx     46    bbb     H3   1385 0.12219000   1.008000   ; qtot 46.263532
 1386         hx     46    bbb     H4   1386 0.12219000   1.008000   ; qtot 46.385722
 1387         c3     46    bbb     C3   1387 -0.39007700  12.010000   ; qtot 45.995645
 1388         hx     46    bbb     H5   1388 0.14940300   1.008000   ; qtot 46.145048
 1389         hx     46    bbb     H6   1389 0.14940300   1.008000   ; qtot 46.294451
 1390         c3     46    bbb     C4   1390 0.18057300  12.010000   ; qtot 46.475024
 1391         hc     46    bbb     H7   1391 0.01788900   1.008000   ; qtot 46.492913
 1392         hc     46    bbb     H8   1392 0.01788900   1.008000   ; qtot 46.510802
 1393         c3     46    bbb     C5   1393 -0.11337700  12.010000   ; qtot 46.397425
 1394         hc     46    bbb     H9   1394 0.09515400   1.008000   ; qtot 46.492579
 1395         hc     46    bbb    H10   1395 0.09515400   1.008000   ; qtot 46.587733
 1396         c3     46    bbb     C6   1396 -0.11337700  12.010000   ; qtot 46.474356
 1397         hc     46    bbb    H11   1397 0.09515400   1.008000   ; qtot 46.569510
 1398         hc     46    bbb    H12   1398 0.09515400   1.008000   ; qtot 46.664664
 1399         c3     46    bbb     C7   1399 0.21842400  12.010000   ; qtot 46.883088
 1400         h1     46    bbb    H13   1400 0.04500300   1.008000   ; qtot 46.928091
 1401         h1     46    bbb    H14   1401 0.04500300   1.008000   ; qtot 46.973094
 1402         c3     46    bbb     C8   1402 -0.06455200  12.010000   ; qtot 46.908542
 1403         h1     46    bbb    H15   1403 0.13554100   1.008000   ; qtot 47.044083
 1404         h1     46    bbb    H16   1404 0.13554100   1.008000   ; qtot 47.179624
 1405         c3     46    bbb     C9   1405 -0.06455200  12.010000   ; qtot 47.115072
 1406         h1     46    bbb    H17   1406 0.13554100   1.008000   ; qtot 47.250613
 1407         h1     46    bbb    H18   1407 0.13554100   1.008000   ; qtot 47.386154
 1408         os     46    bbb     O1   1408 -0.62587700  16.000000   ; qtot 46.760277
 1409         hn     46    bbb    H19   1409 0.23982500   1.008000   ; qtot 47.000102
; residue   47 bbb rtp bbb q 1.0
 1410         n4     47    bbb     N1   1410 0.03726400  14.010000   ; qtot 47.037366
 1411         c3     47    bbb     C1   1411 -0.07020100  12.010000   ; qtot 46.967165
 1412         hx     47    bbb     H1   1412 0.12219000   1.008000   ; qtot 47.089355
 1413         hx     47    bbb     H2   1413 0.12219000   1.008000   ; qtot 47.211545
 1414         c3     47    bbb     C2   1414 -0.07020100  12.010000   ; qtot 47.141344
 1415         hx     47    bbb     H3   1415 0.12219000   1.008000   ; qtot 47.263534
 1416         hx     47    bbb     H4   1416 0.12219000   1.008000   ; qtot 47.385724
 1417         c3     47    bbb     C3   1417 -0.39007700  12.010000   ; qtot 46.995647
 1418         hx     47    bbb     H5   1418 0.14940300   1.008000   ; qtot 47.145050
 1419         hx     47    bbb     H6   1419 0.14940300   1.008000   ; qtot 47.294453
 1420         c3     47    bbb     C4   1420 0.18057300  12.010000   ; qtot 47.475026
 1421         hc     47    bbb     H7   1421 0.01788900   1.008000   ; qtot 47.492915
 1422         hc     47    bbb     H8   1422 0.01788900   1.008000   ; qtot 47.510804
 1423         c3     47    bbb     C5   1423 -0.11337700  12.010000   ; qtot 47.397427
 1424         hc     47    bbb     H9   1424 0.09515400   1.008000   ; qtot 47.492581
 1425         hc     47    bbb    H10   1425 0.09515400   1.008000   ; qtot 47.587735
 1426         c3     47    bbb     C6   1426 -0.11337700  12.010000   ; qtot 47.474358
 1427         hc     47    bbb    H11   1427 0.09515400   1.008000   ; qtot 47.569512
 1428         hc     47    bbb    H12   1428 0.09515400   1.008000   ; qtot 47.664666
 1429         c3     47    bbb     C7   1429 0.21842400  12.010000   ; qtot 47.883090
 1430         h1     47    bbb    H13   1430 0.04500300   1.008000   ; qtot 47.928093
 1431         h1     47    bbb    H14   1431 0.04500300   1.008000   ; qtot 47.973096
 1432         c3     47    bbb     C8   1432 -0.06455200  12.010000   ; qtot 47.908544
 1433         h1     47    bbb    H15   1433 0.13554100   1.008000   ; qtot 48.044085
 1434         h1     47    bbb    H16   1434 0.13554100   1.008000   ; qtot 48.179626
 1435         c3     47    bbb     C9   1435 -0.06455200  12.010000   ; qtot 48.115074
 1436         h1     47    bbb    H17   1436 0.13554100   1.008000   ; qtot 48.250615
 1437         h1     47    bbb    H18   1437 0.13554100   1.008000   ; qtot 48.386156
 1438         os     47    bbb     O1   1438 -0.62587700  16.000000   ; qtot 47.760279
 1439         hn     47    bbb    H19   1439 0.23982500   1.008000   ; qtot 48.000104
; residue   48 bbb rtp bbb q 1.0
 1440         n4     48    bbb     N1   1440 0.03726400  14.010000   ; qtot 48.037368
 1441         c3     48    bbb     C1   1441 -0.07020100  12.010000   ; qtot 47.967167
 1442         hx     48    bbb     H1   1442 0.12219000   1.008000   ; qtot 48.089357
 1443         hx     48    bbb     H2   1443 0.12219000   1.008000   ; qtot 48.211547
 1444         c3     48    bbb     C2   1444 -0.07020100  12.010000   ; qtot 48.141346
 1445         hx     48    bbb     H3   1445 0.12219000   1.008000   ; qtot 48.263536
 1446         hx     48    bbb     H4   1446 0.12219000   1.008000   ; qtot 48.385726
 1447         c3     48    bbb     C3   1447 -0.39007700  12.010000   ; qtot 47.995649
 1448         hx     48    bbb     H5   1448 0.14940300   1.008000   ; qtot 48.145052
 1449         hx     48    bbb     H6   1449 0.14940300   1.008000   ; qtot 48.294455
 1450         c3     48    bbb     C4   1450 0.18057300  12.010000   ; qtot 48.475028
 1451         hc     48    bbb     H7   1451 0.01788900   1.008000   ; qtot 48.492917
 1452         hc     48    bbb     H8   1452 0.01788900   1.008000   ; qtot 48.510806
 1453         c3     48    bbb     C5   1453 -0.11337700  12.010000   ; qtot 48.397429
 1454         hc     48    bbb     H9   1454 0.09515400   1.008000   ; qtot 48.492583
 1455         hc     48    bbb    H10   1455 0.09515400   1.008000   ; qtot 48.587737
 1456         c3     48    bbb     C6   1456 -0.11337700  12.010000   ; qtot 48.474360
 1457         hc     48    bbb    H11   1457 0.09515400   1.008000   ; qtot 48.569514
 1458         hc     48    bbb    H12   1458 0.09515400   1.008000   ; qtot 48.664668
 1459         c3     48    bbb     C7   1459 0.21842400  12.010000   ; qtot 48.883092
 1460         h1     48    bbb    H13   1460 0.04500300   1.008000   ; qtot 48.928095
 1461         h1     48    bbb    H14   1461 0.04500300   1.008000   ; qtot 48.973098
 1462         c3     48    bbb     C8   1462 -0.06455200  12.010000   ; qtot 48.908546
 1463         h1     48    bbb    H15   1463 0.13554100   1.008000   ; qtot 49.044087
 1464         h1     48    bbb    H16   1464 0.13554100   1.008000   ; qtot 49.179628
 1465         c3     48    bbb     C9   1465 -0.06455200  12.010000   ; qtot 49.115076
 1466         h1     48    bbb    H17   1466 0.13554100   1.008000   ; qtot 49.250617
 1467         h1     48    bbb    H18   1467 0.13554100   1.008000   ; qtot 49.386158
 1468         os     48    bbb     O1   1468 -0.62587700  16.000000   ; qtot 48.760281
 1469         hn     48    bbb    H19   1469 0.23982500   1.008000   ; qtot 49.000106
; residue   49 bbb rtp bbb q 1.0
 1470         n4     49    bbb     N1   1470 0.03726400  14.010000   ; qtot 49.037370
 1471         c3     49    bbb     C1   1471 -0.07020100  12.010000   ; qtot 48.967169
 1472         hx     49    bbb     H1   1472 0.12219000   1.008000   ; qtot 49.089359
 1473         hx     49    bbb     H2   1473 0.12219000   1.008000   ; qtot 49.211549
 1474         c3     49    bbb     C2   1474 -0.07020100  12.010000   ; qtot 49.141348
 1475         hx     49    bbb     H3   1475 0.12219000   1.008000   ; qtot 49.263538
 1476         hx     49    bbb     H4   1476 0.12219000   1.008000   ; qtot 49.385728
 1477         c3     49    bbb     C3   1477 -0.39007700  12.010000   ; qtot 48.995651
 1478         hx     49    bbb     H5   1478 0.14940300   1.008000   ; qtot 49.145054
 1479         hx     49    bbb     H6   1479 0.14940300   1.008000   ; qtot 49.294457
 1480         c3     49    bbb     C4   1480 0.18057300  12.010000   ; qtot 49.475030
 1481         hc     49    bbb     H7   1481 0.01788900   1.008000   ; qtot 49.492919
 1482         hc     49    bbb     H8   1482 0.01788900   1.008000   ; qtot 49.510808
 1483         c3     49    bbb     C5   1483 -0.11337700  12.010000   ; qtot 49.397431
 1484         hc     49    bbb     H9   1484 0.09515400   1.008000   ; qtot 49.492585
 1485         hc     49    bbb    H10   1485 0.09515400   1.008000   ; qtot 49.587739
 1486         c3     49    bbb     C6   1486 -0.11337700  12.010000   ; qtot 49.474362
 1487         hc     49    bbb    H11   1487 0.09515400   1.008000   ; qtot 49.569516
 1488         hc     49    bbb    H12   1488 0.09515400   1.008000   ; qtot 49.664670
 1489         c3     49    bbb     C7   1489 0.21842400  12.010000   ; qtot 49.883094
 1490         h1     49    bbb    H13   1490 0.04500300   1.008000   ; qtot 49.928097
 1491         h1     49    bbb    H14   1491 0.04500300   1.008000   ; qtot 49.973100
 1492         c3     49    bbb     C8   1492 -0.06455200  12.010000   ; qtot 49.908548
 1493         h1     49    bbb    H15   1493 0.13554100   1.008000   ; qtot 50.044089
 1494         h1     49    bbb    H16   1494 0.13554100   1.008000   ; qtot 50.179630
 1495         c3     49    bbb     C9   1495 -0.06455200  12.010000   ; qtot 50.115078
 1496         h1     49    bbb    H17   1496 0.13554100   1.008000   ; qtot 50.250619
 1497         h1     49    bbb    H18   1497 0.13554100   1.008000   ; qtot 50.386160
 1498         os     49    bbb     O1   1498 -0.62587700  16.000000   ; qtot 49.760283
 1499         hn     49    bbb    H19   1499 0.23982500   1.008000   ; qtot 50.000108
; residue   50 bbb rtp bbb q 1.0
 1500         n4     50    bbb     N1   1500 0.03726400  14.010000   ; qtot 50.037372
 1501         c3     50    bbb     C1   1501 -0.07020100  12.010000   ; qtot 49.967171
 1502         hx     50    bbb     H1   1502 0.12219000   1.008000   ; qtot 50.089361
 1503         hx     50    bbb     H2   1503 0.12219000   1.008000   ; qtot 50.211551
 1504         c3     50    bbb     C2   1504 -0.07020100  12.010000   ; qtot 50.141350
 1505         hx     50    bbb     H3   1505 0.12219000   1.008000   ; qtot 50.263540
 1506         hx     50    bbb     H4   1506 0.12219000   1.008000   ; qtot 50.385730
 1507         c3     50    bbb     C3   1507 -0.39007700  12.010000   ; qtot 49.995653
 1508         hx     50    bbb     H5   1508 0.14940300   1.008000   ; qtot 50.145056
 1509         hx     50    bbb     H6   1509 0.14940300   1.008000   ; qtot 50.294459
 1510         c3     50    bbb     C4   1510 0.18057300  12.010000   ; qtot 50.475032
 1511         hc     50    bbb     H7   1511 0.01788900   1.008000   ; qtot 50.492921
 1512         hc     50    bbb     H8   1512 0.01788900   1.008000   ; qtot 50.510810
 1513         c3     50    bbb     C5   1513 -0.11337700  12.010000   ; qtot 50.397433
 1514         hc     50    bbb     H9   1514 0.09515400   1.008000   ; qtot 50.492587
 1515         hc     50    bbb    H10   1515 0.09515400   1.008000   ; qtot 50.587741
 1516         c3     50    bbb     C6   1516 -0.11337700  12.010000   ; qtot 50.474364
 1517         hc     50    bbb    H11   1517 0.09515400   1.008000   ; qtot 50.569518
 1518         hc     50    bbb    H12   1518 0.09515400   1.008000   ; qtot 50.664672
 1519         c3     50    bbb     C7   1519 0.21842400  12.010000   ; qtot 50.883096
 1520         h1     50    bbb    H13   1520 0.04500300   1.008000   ; qtot 50.928099
 1521         h1     50    bbb    H14   1521 0.04500300   1.008000   ; qtot 50.973102
 1522         c3     50    bbb     C8   1522 -0.06455200  12.010000   ; qtot 50.908550
 1523         h1     50    bbb    H15   1523 0.13554100   1.008000   ; qtot 51.044091
 1524         h1     50    bbb    H16   1524 0.13554100   1.008000   ; qtot 51.179632
 1525         c3     50    bbb     C9   1525 -0.06455200  12.010000   ; qtot 51.115080
 1526         h1     50    bbb    H17   1526 0.13554100   1.008000   ; qtot 51.250621
 1527         h1     50    bbb    H18   1527 0.13554100   1.008000   ; qtot 51.386162
 1528         os     50    bbb     O1   1528 -0.62587700  16.000000   ; qtot 50.760285
 1529         hn     50    bbb    H19   1529 0.23982500   1.008000   ; qtot 51.000110
; residue   51 bbb rtp bbb q 1.0
 1530         n4     51    bbb     N1   1530 0.03726400  14.010000   ; qtot 51.037374
 1531         c3     51    bbb     C1   1531 -0.07020100  12.010000   ; qtot 50.967173
 1532         hx     51    bbb     H1   1532 0.12219000   1.008000   ; qtot 51.089363
 1533         hx     51    bbb     H2   1533 0.12219000   1.008000   ; qtot 51.211553
 1534         c3     51    bbb     C2   1534 -0.07020100  12.010000   ; qtot 51.141352
 1535         hx     51    bbb     H3   1535 0.12219000   1.008000   ; qtot 51.263542
 1536         hx     51    bbb     H4   1536 0.12219000   1.008000   ; qtot 51.385732
 1537         c3     51    bbb     C3   1537 -0.39007700  12.010000   ; qtot 50.995655
 1538         hx     51    bbb     H5   1538 0.14940300   1.008000   ; qtot 51.145058
 1539         hx     51    bbb     H6   1539 0.14940300   1.008000   ; qtot 51.294461
 1540         c3     51    bbb     C4   1540 0.18057300  12.010000   ; qtot 51.475034
 1541         hc     51    bbb     H7   1541 0.01788900   1.008000   ; qtot 51.492923
 1542         hc     51    bbb     H8   1542 0.01788900   1.008000   ; qtot 51.510812
 1543         c3     51    bbb     C5   1543 -0.11337700  12.010000   ; qtot 51.397435
 1544         hc     51    bbb     H9   1544 0.09515400   1.008000   ; qtot 51.492589
 1545         hc     51    bbb    H10   1545 0.09515400   1.008000   ; qtot 51.587743
 1546         c3     51    bbb     C6   1546 -0.11337700  12.010000   ; qtot 51.474366
 1547         hc     51    bbb    H11   1547 0.09515400   1.008000   ; qtot 51.569520
 1548         hc     51    bbb    H12   1548 0.09515400   1.008000   ; qtot 51.664674
 1549         c3     51    bbb     C7   1549 0.21842400  12.010000   ; qtot 51.883098
 1550         h1     51    bbb    H13   1550 0.04500300   1.008000   ; qtot 51.928101
 1551         h1     51    bbb    H14   1551 0.04500300   1.008000   ; qtot 51.973104
 1552         c3     51    bbb     C8   1552 -0.06455200  12.010000   ; qtot 51.908552
 1553         h1     51    bbb    H15   1553 0.13554100   1.008000   ; qtot 52.044093
 1554         h1     51    bbb    H16   1554 0.13554100   1.008000   ; qtot 52.179634
 1555         c3     51    bbb     C9   1555 -0.06455200  12.010000   ; qtot 52.115082
 1556         h1     51    bbb    H17   1556 0.13554100   1.008000   ; qtot 52.250623
 1557         h1     51    bbb    H18   1557 0.13554100   1.008000   ; qtot 52.386164
 1558         os     51    bbb     O1   1558 -0.62587700  16.000000   ; qtot 51.760287
 1559         hn     51    bbb    H19   1559 0.23982500   1.008000   ; qtot 52.000112
; residue   52 bbb rtp bbb q 1.0
 1560         n4     52    bbb     N1   1560 0.03726400  14.010000   ; qtot 52.037376
 1561         c3     52    bbb     C1   1561 -0.07020100  12.010000   ; qtot 51.967175
 1562         hx     52    bbb     H1   1562 0.12219000   1.008000   ; qtot 52.089365
 1563         hx     52    bbb     H2   1563 0.12219000   1.008000   ; qtot 52.211555
 1564         c3     52    bbb     C2   1564 -0.07020100  12.010000   ; qtot 52.141354
 1565         hx     52    bbb     H3   1565 0.12219000   1.008000   ; qtot 52.263544
 1566         hx     52    bbb     H4   1566 0.12219000   1.008000   ; qtot 52.385734
 1567         c3     52    bbb     C3   1567 -0.39007700  12.010000   ; qtot 51.995657
 1568         hx     52    bbb     H5   1568 0.14940300   1.008000   ; qtot 52.145060
 1569         hx     52    bbb     H6   1569 0.14940300   1.008000   ; qtot 52.294463
 1570         c3     52    bbb     C4   1570 0.18057300  12.010000   ; qtot 52.475036
 1571         hc     52    bbb     H7   1571 0.01788900   1.008000   ; qtot 52.492925
 1572         hc     52    bbb     H8   1572 0.01788900   1.008000   ; qtot 52.510814
 1573         c3     52    bbb     C5   1573 -0.11337700  12.010000   ; qtot 52.397437
 1574         hc     52    bbb     H9   1574 0.09515400   1.008000   ; qtot 52.492591
 1575         hc     52    bbb    H10   1575 0.09515400   1.008000   ; qtot 52.587745
 1576         c3     52    bbb     C6   1576 -0.11337700  12.010000   ; qtot 52.474368
 1577         hc     52    bbb    H11   1577 0.09515400   1.008000   ; qtot 52.569522
 1578         hc     52    bbb    H12   1578 0.09515400   1.008000   ; qtot 52.664676
 1579         c3     52    bbb     C7   1579 0.21842400  12.010000   ; qtot 52.883100
 1580         h1     52    bbb    H13   1580 0.04500300   1.008000   ; qtot 52.928103
 1581         h1     52    bbb    H14   1581 0.04500300   1.008000   ; qtot 52.973106
 1582         c3     52    bbb     C8   1582 -0.06455200  12.010000   ; qtot 52.908554
 1583         h1     52    bbb    H15   1583 0.13554100   1.008000   ; qtot 53.044095
 1584         h1     52    bbb    H16   1584 0.13554100   1.008000   ; qtot 53.179636
 1585         c3     52    bbb     C9   1585 -0.06455200  12.010000   ; qtot 53.115084
 1586         h1     52    bbb    H17   1586 0.13554100   1.008000   ; qtot 53.250625
 1587         h1     52    bbb    H18   1587 0.13554100   1.008000   ; qtot 53.386166
 1588         os     52    bbb     O1   1588 -0.62587700  16.000000   ; qtot 52.760289
 1589         hn     52    bbb    H19   1589 0.23982500   1.008000   ; qtot 53.000114
; residue   53 bbb rtp bbb q 1.0
 1590         n4     53    bbb     N1   1590 0.03726400  14.010000   ; qtot 53.037378
 1591         c3     53    bbb     C1   1591 -0.07020100  12.010000   ; qtot 52.967177
 1592         hx     53    bbb     H1   1592 0.12219000   1.008000   ; qtot 53.089367
 1593         hx     53    bbb     H2   1593 0.12219000   1.008000   ; qtot 53.211557
 1594         c3     53    bbb     C2   1594 -0.07020100  12.010000   ; qtot 53.141356
 1595         hx     53    bbb     H3   1595 0.12219000   1.008000   ; qtot 53.263546
 1596         hx     53    bbb     H4   1596 0.12219000   1.008000   ; qtot 53.385736
 1597         c3     53    bbb     C3   1597 -0.39007700  12.010000   ; qtot 52.995659
 1598         hx     53    bbb     H5   1598 0.14940300   1.008000   ; qtot 53.145062
 1599         hx     53    bbb     H6   1599 0.14940300   1.008000   ; qtot 53.294465
 1600         c3     53    bbb     C4   1600 0.18057300  12.010000   ; qtot 53.475038
 1601         hc     53    bbb     H7   1601 0.01788900   1.008000   ; qtot 53.492927
 1602         hc     53    bbb     H8   1602 0.01788900   1.008000   ; qtot 53.510816
 1603         c3     53    bbb     C5   1603 -0.11337700  12.010000   ; qtot 53.397439
 1604         hc     53    bbb     H9   1604 0.09515400   1.008000   ; qtot 53.492593
 1605         hc     53    bbb    H10   1605 0.09515400   1.008000   ; qtot 53.587747
 1606         c3     53    bbb     C6   1606 -0.11337700  12.010000   ; qtot 53.474370
 1607         hc     53    bbb    H11   1607 0.09515400   1.008000   ; qtot 53.569524
 1608         hc     53    bbb    H12   1608 0.09515400   1.008000   ; qtot 53.664678
 1609         c3     53    bbb     C7   1609 0.21842400  12.010000   ; qtot 53.883102
 1610         h1     53    bbb    H13   1610 0.04500300   1.008000   ; qtot 53.928105
 1611         h1     53    bbb    H14   1611 0.04500300   1.008000   ; qtot 53.973108
 1612         c3     53    bbb     C8   1612 -0.06455200  12.010000   ; qtot 53.908556
 1613         h1     53    bbb    H15   1613 0.13554100   1.008000   ; qtot 54.044097
 1614         h1     53    bbb    H16   1614 0.13554100   1.008000   ; qtot 54.179638
 1615         c3     53    bbb     C9   1615 -0.06455200  12.010000   ; qtot 54.115086
 1616         h1     53    bbb    H17   1616 0.13554100   1.008000   ; qtot 54.250627
 1617         h1     53    bbb    H18   1617 0.13554100   1.008000   ; qtot 54.386168
 1618         os     53    bbb     O1   1618 -0.62587700  16.000000   ; qtot 53.760291
 1619         hn     53    bbb    H19   1619 0.23982500   1.008000   ; qtot 54.000116
; residue   54 bbb rtp bbb q 1.0
 1620         n4     54    bbb     N1   1620 0.03726400  14.010000   ; qtot 54.037380
 1621         c3     54    bbb     C1   1621 -0.07020100  12.010000   ; qtot 53.967179
 1622         hx     54    bbb     H1   1622 0.12219000   1.008000   ; qtot 54.089369
 1623         hx     54    bbb     H2   1623 0.12219000   1.008000   ; qtot 54.211559
 1624         c3     54    bbb     C2   1624 -0.07020100  12.010000   ; qtot 54.141358
 1625         hx     54    bbb     H3   1625 0.12219000   1.008000   ; qtot 54.263548
 1626         hx     54    bbb     H4   1626 0.12219000   1.008000   ; qtot 54.385738
 1627         c3     54    bbb     C3   1627 -0.39007700  12.010000   ; qtot 53.995661
 1628         hx     54    bbb     H5   1628 0.14940300   1.008000   ; qtot 54.145064
 1629         hx     54    bbb     H6   1629 0.14940300   1.008000   ; qtot 54.294467
 1630         c3     54    bbb     C4   1630 0.18057300  12.010000   ; qtot 54.475040
 1631         hc     54    bbb     H7   1631 0.01788900   1.008000   ; qtot 54.492929
 1632         hc     54    bbb     H8   1632 0.01788900   1.008000   ; qtot 54.510818
 1633         c3     54    bbb     C5   1633 -0.11337700  12.010000   ; qtot 54.397441
 1634         hc     54    bbb     H9   1634 0.09515400   1.008000   ; qtot 54.492595
 1635         hc     54    bbb    H10   1635 0.09515400   1.008000   ; qtot 54.587749
 1636         c3     54    bbb     C6   1636 -0.11337700  12.010000   ; qtot 54.474372
 1637         hc     54    bbb    H11   1637 0.09515400   1.008000   ; qtot 54.569526
 1638         hc     54    bbb    H12   1638 0.09515400   1.008000   ; qtot 54.664680
 1639         c3     54    bbb     C7   1639 0.21842400  12.010000   ; qtot 54.883104
 1640         h1     54    bbb    H13   1640 0.04500300   1.008000   ; qtot 54.928107
 1641         h1     54    bbb    H14   1641 0.04500300   1.008000   ; qtot 54.973110
 1642         c3     54    bbb     C8   1642 -0.06455200  12.010000   ; qtot 54.908558
 1643         h1     54    bbb    H15   1643 0.13554100   1.008000   ; qtot 55.044099
 1644         h1     54    bbb    H16   1644 0.13554100   1.008000   ; qtot 55.179640
 1645         c3     54    bbb     C9   1645 -0.06455200  12.010000   ; qtot 55.115088
 1646         h1     54    bbb    H17   1646 0.13554100   1.008000   ; qtot 55.250629
 1647         h1     54    bbb    H18   1647 0.13554100   1.008000   ; qtot 55.386170
 1648         os     54    bbb     O1   1648 -0.62587700  16.000000   ; qtot 54.760293
 1649         hn     54    bbb    H19   1649 0.23982500   1.008000   ; qtot 55.000118
; residue   55 bbb rtp bbb q 1.0
 1650         n4     55    bbb     N1   1650 0.03726400  14.010000   ; qtot 55.037382
 1651         c3     55    bbb     C1   1651 -0.07020100  12.010000   ; qtot 54.967181
 1652         hx     55    bbb     H1   1652 0.12219000   1.008000   ; qtot 55.089371
 1653         hx     55    bbb     H2   1653 0.12219000   1.008000   ; qtot 55.211561
 1654         c3     55    bbb     C2   1654 -0.07020100  12.010000   ; qtot 55.141360
 1655         hx     55    bbb     H3   1655 0.12219000   1.008000   ; qtot 55.263550
 1656         hx     55    bbb     H4   1656 0.12219000   1.008000   ; qtot 55.385740
 1657         c3     55    bbb     C3   1657 -0.39007700  12.010000   ; qtot 54.995663
 1658         hx     55    bbb     H5   1658 0.14940300   1.008000   ; qtot 55.145066
 1659         hx     55    bbb     H6   1659 0.14940300   1.008000   ; qtot 55.294469
 1660         c3     55    bbb     C4   1660 0.18057300  12.010000   ; qtot 55.475042
 1661         hc     55    bbb     H7   1661 0.01788900   1.008000   ; qtot 55.492931
 1662         hc     55    bbb     H8   1662 0.01788900   1.008000   ; qtot 55.510820
 1663         c3     55    bbb     C5   1663 -0.11337700  12.010000   ; qtot 55.397443
 1664         hc     55    bbb     H9   1664 0.09515400   1.008000   ; qtot 55.492597
 1665         hc     55    bbb    H10   1665 0.09515400   1.008000   ; qtot 55.587751
 1666         c3     55    bbb     C6   1666 -0.11337700  12.010000   ; qtot 55.474374
 1667         hc     55    bbb    H11   1667 0.09515400   1.008000   ; qtot 55.569528
 1668         hc     55    bbb    H12   1668 0.09515400   1.008000   ; qtot 55.664682
 1669         c3     55    bbb     C7   1669 0.21842400  12.010000   ; qtot 55.883106
 1670         h1     55    bbb    H13   1670 0.04500300   1.008000   ; qtot 55.928109
 1671         h1     55    bbb    H14   1671 0.04500300   1.008000   ; qtot 55.973112
 1672         c3     55    bbb     C8   1672 -0.06455200  12.010000   ; qtot 55.908560
 1673         h1     55    bbb    H15   1673 0.13554100   1.008000   ; qtot 56.044101
 1674         h1     55    bbb    H16   1674 0.13554100   1.008000   ; qtot 56.179642
 1675         c3     55    bbb     C9   1675 -0.06455200  12.010000   ; qtot 56.115090
 1676         h1     55    bbb    H17   1676 0.13554100   1.008000   ; qtot 56.250631
 1677         h1     55    bbb    H18   1677 0.13554100   1.008000   ; qtot 56.386172
 1678         os     55    bbb     O1   1678 -0.62587700  16.000000   ; qtot 55.760295
 1679         hn     55    bbb    H19   1679 0.23982500   1.008000   ; qtot 56.000120
; residue   56 bbb rtp bbb q 1.0
 1680         n4     56    bbb     N1   1680 0.03726400  14.010000   ; qtot 56.037384
 1681         c3     56    bbb     C1   1681 -0.07020100  12.010000   ; qtot 55.967183
 1682         hx     56    bbb     H1   1682 0.12219000   1.008000   ; qtot 56.089373
 1683         hx     56    bbb     H2   1683 0.12219000   1.008000   ; qtot 56.211563
 1684         c3     56    bbb     C2   1684 -0.07020100  12.010000   ; qtot 56.141362
 1685         hx     56    bbb     H3   1685 0.12219000   1.008000   ; qtot 56.263552
 1686         hx     56    bbb     H4   1686 0.12219000   1.008000   ; qtot 56.385742
 1687         c3     56    bbb     C3   1687 -0.39007700  12.010000   ; qtot 55.995665
 1688         hx     56    bbb     H5   1688 0.14940300   1.008000   ; qtot 56.145068
 1689         hx     56    bbb     H6   1689 0.14940300   1.008000   ; qtot 56.294471
 1690         c3     56    bbb     C4   1690 0.18057300  12.010000   ; qtot 56.475044
 1691         hc     56    bbb     H7   1691 0.01788900   1.008000   ; qtot 56.492933
 1692         hc     56    bbb     H8   1692 0.01788900   1.008000   ; qtot 56.510822
 1693         c3     56    bbb     C5   1693 -0.11337700  12.010000   ; qtot 56.397445
 1694         hc     56    bbb     H9   1694 0.09515400   1.008000   ; qtot 56.492599
 1695         hc     56    bbb    H10   1695 0.09515400   1.008000   ; qtot 56.587753
 1696         c3     56    bbb     C6   1696 -0.11337700  12.010000   ; qtot 56.474376
 1697         hc     56    bbb    H11   1697 0.09515400   1.008000   ; qtot 56.569530
 1698         hc     56    bbb    H12   1698 0.09515400   1.008000   ; qtot 56.664684
 1699         c3     56    bbb     C7   1699 0.21842400  12.010000   ; qtot 56.883108
 1700         h1     56    bbb    H13   1700 0.04500300   1.008000   ; qtot 56.928111
 1701         h1     56    bbb    H14   1701 0.04500300   1.008000   ; qtot 56.973114
 1702         c3     56    bbb     C8   1702 -0.06455200  12.010000   ; qtot 56.908562
 1703         h1     56    bbb    H15   1703 0.13554100   1.008000   ; qtot 57.044103
 1704         h1     56    bbb    H16   1704 0.13554100   1.008000   ; qtot 57.179644
 1705         c3     56    bbb     C9   1705 -0.06455200  12.010000   ; qtot 57.115092
 1706         h1     56    bbb    H17   1706 0.13554100   1.008000   ; qtot 57.250633
 1707         h1     56    bbb    H18   1707 0.13554100   1.008000   ; qtot 57.386174
 1708         os     56    bbb     O1   1708 -0.62587700  16.000000   ; qtot 56.760297
 1709         hn     56    bbb    H19   1709 0.23982500   1.008000   ; qtot 57.000122
; residue   57 bbb rtp bbb q 1.0
 1710         n4     57    bbb     N1   1710 0.03726400  14.010000   ; qtot 57.037386
 1711         c3     57    bbb     C1   1711 -0.07020100  12.010000   ; qtot 56.967185
 1712         hx     57    bbb     H1   1712 0.12219000   1.008000   ; qtot 57.089375
 1713         hx     57    bbb     H2   1713 0.12219000   1.008000   ; qtot 57.211565
 1714         c3     57    bbb     C2   1714 -0.07020100  12.010000   ; qtot 57.141364
 1715         hx     57    bbb     H3   1715 0.12219000   1.008000   ; qtot 57.263554
 1716         hx     57    bbb     H4   1716 0.12219000   1.008000   ; qtot 57.385744
 1717         c3     57    bbb     C3   1717 -0.39007700  12.010000   ; qtot 56.995667
 1718         hx     57    bbb     H5   1718 0.14940300   1.008000   ; qtot 57.145070
 1719         hx     57    bbb     H6   1719 0.14940300   1.008000   ; qtot 57.294473
 1720         c3     57    bbb     C4   1720 0.18057300  12.010000   ; qtot 57.475046
 1721         hc     57    bbb     H7   1721 0.01788900   1.008000   ; qtot 57.492935
 1722         hc     57    bbb     H8   1722 0.01788900   1.008000   ; qtot 57.510824
 1723         c3     57    bbb     C5   1723 -0.11337700  12.010000   ; qtot 57.397447
 1724         hc     57    bbb     H9   1724 0.09515400   1.008000   ; qtot 57.492601
 1725         hc     57    bbb    H10   1725 0.09515400   1.008000   ; qtot 57.587755
 1726         c3     57    bbb     C6   1726 -0.11337700  12.010000   ; qtot 57.474378
 1727         hc     57    bbb    H11   1727 0.09515400   1.008000   ; qtot 57.569532
 1728         hc     57    bbb    H12   1728 0.09515400   1.008000   ; qtot 57.664686
 1729         c3     57    bbb     C7   1729 0.21842400  12.010000   ; qtot 57.883110
 1730         h1     57    bbb    H13   1730 0.04500300   1.008000   ; qtot 57.928113
 1731         h1     57    bbb    H14   1731 0.04500300   1.008000   ; qtot 57.973116
 1732         c3     57    bbb     C8   1732 -0.06455200  12.010000   ; qtot 57.908564
 1733         h1     57    bbb    H15   1733 0.13554100   1.008000   ; qtot 58.044105
 1734         h1     57    bbb    H16   1734 0.13554100   1.008000   ; qtot 58.179646
 1735         c3     57    bbb     C9   1735 -0.06455200  12.010000   ; qtot 58.115094
 1736         h1     57    bbb    H17   1736 0.13554100   1.008000   ; qtot 58.250635
 1737         h1     57    bbb    H18   1737 0.13554100   1.008000   ; qtot 58.386176
 1738         os     57    bbb     O1   1738 -0.62587700  16.000000   ; qtot 57.760299
 1739         hn     57    bbb    H19   1739 0.23982500   1.008000   ; qtot 58.000124
; residue   58 bbb rtp bbb q 1.0
 1740         n4     58    bbb     N1   1740 0.03726400  14.010000   ; qtot 58.037388
 1741         c3     58    bbb     C1   1741 -0.07020100  12.010000   ; qtot 57.967187
 1742         hx     58    bbb     H1   1742 0.12219000   1.008000   ; qtot 58.089377
 1743         hx     58    bbb     H2   1743 0.12219000   1.008000   ; qtot 58.211567
 1744         c3     58    bbb     C2   1744 -0.07020100  12.010000   ; qtot 58.141366
 1745         hx     58    bbb     H3   1745 0.12219000   1.008000   ; qtot 58.263556
 1746         hx     58    bbb     H4   1746 0.12219000   1.008000   ; qtot 58.385746
 1747         c3     58    bbb     C3   1747 -0.39007700  12.010000   ; qtot 57.995669
 1748         hx     58    bbb     H5   1748 0.14940300   1.008000   ; qtot 58.145072
 1749         hx     58    bbb     H6   1749 0.14940300   1.008000   ; qtot 58.294475
 1750         c3     58    bbb     C4   1750 0.18057300  12.010000   ; qtot 58.475048
 1751         hc     58    bbb     H7   1751 0.01788900   1.008000   ; qtot 58.492937
 1752         hc     58    bbb     H8   1752 0.01788900   1.008000   ; qtot 58.510826
 1753         c3     58    bbb     C5   1753 -0.11337700  12.010000   ; qtot 58.397449
 1754         hc     58    bbb     H9   1754 0.09515400   1.008000   ; qtot 58.492603
 1755         hc     58    bbb    H10   1755 0.09515400   1.008000   ; qtot 58.587757
 1756         c3     58    bbb     C6   1756 -0.11337700  12.010000   ; qtot 58.474380
 1757         hc     58    bbb    H11   1757 0.09515400   1.008000   ; qtot 58.569534
 1758         hc     58    bbb    H12   1758 0.09515400   1.008000   ; qtot 58.664688
 1759         c3     58    bbb     C7   1759 0.21842400  12.010000   ; qtot 58.883112
 1760         h1     58    bbb    H13   1760 0.04500300   1.008000   ; qtot 58.928115
 1761         h1     58    bbb    H14   1761 0.04500300   1.008000   ; qtot 58.973118
 1762         c3     58    bbb     C8   1762 -0.06455200  12.010000   ; qtot 58.908566
 1763         h1     58    bbb    H15   1763 0.13554100   1.008000   ; qtot 59.044107
 1764         h1     58    bbb    H16   1764 0.13554100   1.008000   ; qtot 59.179648
 1765         c3     58    bbb     C9   1765 -0.06455200  12.010000   ; qtot 59.115096
 1766         h1     58    bbb    H17   1766 0.13554100   1.008000   ; qtot 59.250637
 1767         h1     58    bbb    H18   1767 0.13554100   1.008000   ; qtot 59.386178
 1768         os     58    bbb     O1   1768 -0.62587700  16.000000   ; qtot 58.760301
 1769         hn     58    bbb    H19   1769 0.23982500   1.008000   ; qtot 59.000126
; residue   59 bbb rtp bbb q 1.0
 1770         n4     59    bbb     N1   1770 0.03726400  14.010000   ; qtot 59.037390
 1771         c3     59    bbb     C1   1771 -0.07020100  12.010000   ; qtot 58.967189
 1772         hx     59    bbb     H1   1772 0.12219000   1.008000   ; qtot 59.089379
 1773         hx     59    bbb     H2   1773 0.12219000   1.008000   ; qtot 59.211569
 1774         c3     59    bbb     C2   1774 -0.07020100  12.010000   ; qtot 59.141368
 1775         hx     59    bbb     H3   1775 0.12219000   1.008000   ; qtot 59.263558
 1776         hx     59    bbb     H4   1776 0.12219000   1.008000   ; qtot 59.385748
 1777         c3     59    bbb     C3   1777 -0.39007700  12.010000   ; qtot 58.995671
 1778         hx     59    bbb     H5   1778 0.14940300   1.008000   ; qtot 59.145074
 1779         hx     59    bbb     H6   1779 0.14940300   1.008000   ; qtot 59.294477
 1780         c3     59    bbb     C4   1780 0.18057300  12.010000   ; qtot 59.475050
 1781         hc     59    bbb     H7   1781 0.01788900   1.008000   ; qtot 59.492939
 1782         hc     59    bbb     H8   1782 0.01788900   1.008000   ; qtot 59.510828
 1783         c3     59    bbb     C5   1783 -0.11337700  12.010000   ; qtot 59.397451
 1784         hc     59    bbb     H9   1784 0.09515400   1.008000   ; qtot 59.492605
 1785         hc     59    bbb    H10   1785 0.09515400   1.008000   ; qtot 59.587759
 1786         c3     59    bbb     C6   1786 -0.11337700  12.010000   ; qtot 59.474382
 1787         hc     59    bbb    H11   1787 0.09515400   1.008000   ; qtot 59.569536
 1788         hc     59    bbb    H12   1788 0.09515400   1.008000   ; qtot 59.664690
 1789         c3     59    bbb     C7   1789 0.21842400  12.010000   ; qtot 59.883114
 1790         h1     59    bbb    H13   1790 0.04500300   1.008000   ; qtot 59.928117
 1791         h1     59    bbb    H14   1791 0.04500300   1.008000   ; qtot 59.973120
 1792         c3     59    bbb     C8   1792 -0.06455200  12.010000   ; qtot 59.908568
 1793         h1     59    bbb    H15   1793 0.13554100   1.008000   ; qtot 60.044109
 1794         h1     59    bbb    H16   1794 0.13554100   1.008000   ; qtot 60.179650
 1795         c3     59    bbb     C9   1795 -0.06455200  12.010000   ; qtot 60.115098
 1796         h1     59    bbb    H17   1796 0.13554100   1.008000   ; qtot 60.250639
 1797         h1     59    bbb    H18   1797 0.13554100   1.008000   ; qtot 60.386180
 1798         os     59    bbb     O1   1798 -0.62587700  16.000000   ; qtot 59.760303
 1799         hn     59    bbb    H19   1799 0.23982500   1.008000   ; qtot 60.000128
; residue   60 bbb rtp bbb q 1.0
 1800         n4     60    bbb     N1   1800 0.03726400  14.010000   ; qtot 60.037392
 1801         c3     60    bbb     C1   1801 -0.07020100  12.010000   ; qtot 59.967191
 1802         hx     60    bbb     H1   1802 0.12219000   1.008000   ; qtot 60.089381
 1803         hx     60    bbb     H2   1803 0.12219000   1.008000   ; qtot 60.211571
 1804         c3     60    bbb     C2   1804 -0.07020100  12.010000   ; qtot 60.141370
 1805         hx     60    bbb     H3   1805 0.12219000   1.008000   ; qtot 60.263560
 1806         hx     60    bbb     H4   1806 0.12219000   1.008000   ; qtot 60.385750
 1807         c3     60    bbb     C3   1807 -0.39007700  12.010000   ; qtot 59.995673
 1808         hx     60    bbb     H5   1808 0.14940300   1.008000   ; qtot 60.145076
 1809         hx     60    bbb     H6   1809 0.14940300   1.008000   ; qtot 60.294479
 1810         c3     60    bbb     C4   1810 0.18057300  12.010000   ; qtot 60.475052
 1811         hc     60    bbb     H7   1811 0.01788900   1.008000   ; qtot 60.492941
 1812         hc     60    bbb     H8   1812 0.01788900   1.008000   ; qtot 60.510830
 1813         c3     60    bbb     C5   1813 -0.11337700  12.010000   ; qtot 60.397453
 1814         hc     60    bbb     H9   1814 0.09515400   1.008000   ; qtot 60.492607
 1815         hc     60    bbb    H10   1815 0.09515400   1.008000   ; qtot 60.587761
 1816         c3     60    bbb     C6   1816 -0.11337700  12.010000   ; qtot 60.474384
 1817         hc     60    bbb    H11   1817 0.09515400   1.008000   ; qtot 60.569538
 1818         hc     60    bbb    H12   1818 0.09515400   1.008000   ; qtot 60.664692
 1819         c3     60    bbb     C7   1819 0.21842400  12.010000   ; qtot 60.883116
 1820         h1     60    bbb    H13   1820 0.04500300   1.008000   ; qtot 60.928119
 1821         h1     60    bbb    H14   1821 0.04500300   1.008000   ; qtot 60.973122
 1822         c3     60    bbb     C8   1822 -0.06455200  12.010000   ; qtot 60.908570
 1823         h1     60    bbb    H15   1823 0.13554100   1.008000   ; qtot 61.044111
 1824         h1     60    bbb    H16   1824 0.13554100   1.008000   ; qtot 61.179652
 1825         c3     60    bbb     C9   1825 -0.06455200  12.010000   ; qtot 61.115100
 1826         h1     60    bbb    H17   1826 0.13554100   1.008000   ; qtot 61.250641
 1827         h1     60    bbb    H18   1827 0.13554100   1.008000   ; qtot 61.386182
 1828         os     60    bbb     O1   1828 -0.62587700  16.000000   ; qtot 60.760305
 1829         hn     60    bbb    H19   1829 0.23982500   1.008000   ; qtot 61.000130
; residue   61 bbb rtp bbb q 1.0
 1830         n4     61    bbb     N1   1830 0.03726400  14.010000   ; qtot 61.037394
 1831         c3     61    bbb     C1   1831 -0.07020100  12.010000   ; qtot 60.967193
 1832         hx     61    bbb     H1   1832 0.12219000   1.008000   ; qtot 61.089383
 1833         hx     61    bbb     H2   1833 0.12219000   1.008000   ; qtot 61.211573
 1834         c3     61    bbb     C2   1834 -0.07020100  12.010000   ; qtot 61.141372
 1835         hx     61    bbb     H3   1835 0.12219000   1.008000   ; qtot 61.263562
 1836         hx     61    bbb     H4   1836 0.12219000   1.008000   ; qtot 61.385752
 1837         c3     61    bbb     C3   1837 -0.39007700  12.010000   ; qtot 60.995675
 1838         hx     61    bbb     H5   1838 0.14940300   1.008000   ; qtot 61.145078
 1839         hx     61    bbb     H6   1839 0.14940300   1.008000   ; qtot 61.294481
 1840         c3     61    bbb     C4   1840 0.18057300  12.010000   ; qtot 61.475054
 1841         hc     61    bbb     H7   1841 0.01788900   1.008000   ; qtot 61.492943
 1842         hc     61    bbb     H8   1842 0.01788900   1.008000   ; qtot 61.510832
 1843         c3     61    bbb     C5   1843 -0.11337700  12.010000   ; qtot 61.397455
 1844         hc     61    bbb     H9   1844 0.09515400   1.008000   ; qtot 61.492609
 1845         hc     61    bbb    H10   1845 0.09515400   1.008000   ; qtot 61.587763
 1846         c3     61    bbb     C6   1846 -0.11337700  12.010000   ; qtot 61.474386
 1847         hc     61    bbb    H11   1847 0.09515400   1.008000   ; qtot 61.569540
 1848         hc     61    bbb    H12   1848 0.09515400   1.008000   ; qtot 61.664694
 1849         c3     61    bbb     C7   1849 0.21842400  12.010000   ; qtot 61.883118
 1850         h1     61    bbb    H13   1850 0.04500300   1.008000   ; qtot 61.928121
 1851         h1     61    bbb    H14   1851 0.04500300   1.008000   ; qtot 61.973124
 1852         c3     61    bbb     C8   1852 -0.06455200  12.010000   ; qtot 61.908572
 1853         h1     61    bbb    H15   1853 0.13554100   1.008000   ; qtot 62.044113
 1854         h1     61    bbb    H16   1854 0.13554100   1.008000   ; qtot 62.179654
 1855         c3     61    bbb     C9   1855 -0.06455200  12.010000   ; qtot 62.115102
 1856         h1     61    bbb    H17   1856 0.13554100   1.008000   ; qtot 62.250643
 1857         h1     61    bbb    H18   1857 0.13554100   1.008000   ; qtot 62.386184
 1858         os     61    bbb     O1   1858 -0.62587700  16.000000   ; qtot 61.760307
 1859         hn     61    bbb    H19   1859 0.23982500   1.008000   ; qtot 62.000132
; residue   62 bbb rtp bbb q 1.0
 1860         n4     62    bbb     N1   1860 0.03726400  14.010000   ; qtot 62.037396
 1861         c3     62    bbb     C1   1861 -0.07020100  12.010000   ; qtot 61.967195
 1862         hx     62    bbb     H1   1862 0.12219000   1.008000   ; qtot 62.089385
 1863         hx     62    bbb     H2   1863 0.12219000   1.008000   ; qtot 62.211575
 1864         c3     62    bbb     C2   1864 -0.07020100  12.010000   ; qtot 62.141374
 1865         hx     62    bbb     H3   1865 0.12219000   1.008000   ; qtot 62.263564
 1866         hx     62    bbb     H4   1866 0.12219000   1.008000   ; qtot 62.385754
 1867         c3     62    bbb     C3   1867 -0.39007700  12.010000   ; qtot 61.995677
 1868         hx     62    bbb     H5   1868 0.14940300   1.008000   ; qtot 62.145080
 1869         hx     62    bbb     H6   1869 0.14940300   1.008000   ; qtot 62.294483
 1870         c3     62    bbb     C4   1870 0.18057300  12.010000   ; qtot 62.475056
 1871         hc     62    bbb     H7   1871 0.01788900   1.008000   ; qtot 62.492945
 1872         hc     62    bbb     H8   1872 0.01788900   1.008000   ; qtot 62.510834
 1873         c3     62    bbb     C5   1873 -0.11337700  12.010000   ; qtot 62.397457
 1874         hc     62    bbb     H9   1874 0.09515400   1.008000   ; qtot 62.492611
 1875         hc     62    bbb    H10   1875 0.09515400   1.008000   ; qtot 62.587765
 1876         c3     62    bbb     C6   1876 -0.11337700  12.010000   ; qtot 62.474388
 1877         hc     62    bbb    H11   1877 0.09515400   1.008000   ; qtot 62.569542
 1878         hc     62    bbb    H12   1878 0.09515400   1.008000   ; qtot 62.664696
 1879         c3     62    bbb     C7   1879 0.21842400  12.010000   ; qtot 62.883120
 1880         h1     62    bbb    H13   1880 0.04500300   1.008000   ; qtot 62.928123
 1881         h1     62    bbb    H14   1881 0.04500300   1.008000   ; qtot 62.973126
 1882         c3     62    bbb     C8   1882 -0.06455200  12.010000   ; qtot 62.908574
 1883         h1     62    bbb    H15   1883 0.13554100   1.008000   ; qtot 63.044115
 1884         h1     62    bbb    H16   1884 0.13554100   1.008000   ; qtot 63.179656
 1885         c3     62    bbb     C9   1885 -0.06455200  12.010000   ; qtot 63.115104
 1886         h1     62    bbb    H17   1886 0.13554100   1.008000   ; qtot 63.250645
 1887         h1     62    bbb    H18   1887 0.13554100   1.008000   ; qtot 63.386186
 1888         os     62    bbb     O1   1888 -0.62587700  16.000000   ; qtot 62.760309
 1889         hn     62    bbb    H19   1889 0.23982500   1.008000   ; qtot 63.000134
; residue   63 bbb rtp bbb q 1.0
 1890         n4     63    bbb     N1   1890 0.03726400  14.010000   ; qtot 63.037398
 1891         c3     63    bbb     C1   1891 -0.07020100  12.010000   ; qtot 62.967197
 1892         hx     63    bbb     H1   1892 0.12219000   1.008000   ; qtot 63.089387
 1893         hx     63    bbb     H2   1893 0.12219000   1.008000   ; qtot 63.211577
 1894         c3     63    bbb     C2   1894 -0.07020100  12.010000   ; qtot 63.141376
 1895         hx     63    bbb     H3   1895 0.12219000   1.008000   ; qtot 63.263566
 1896         hx     63    bbb     H4   1896 0.12219000   1.008000   ; qtot 63.385756
 1897         c3     63    bbb     C3   1897 -0.39007700  12.010000   ; qtot 62.995679
 1898         hx     63    bbb     H5   1898 0.14940300   1.008000   ; qtot 63.145082
 1899         hx     63    bbb     H6   1899 0.14940300   1.008000   ; qtot 63.294485
 1900         c3     63    bbb     C4   1900 0.18057300  12.010000   ; qtot 63.475058
 1901         hc     63    bbb     H7   1901 0.01788900   1.008000   ; qtot 63.492947
 1902         hc     63    bbb     H8   1902 0.01788900   1.008000   ; qtot 63.510836
 1903         c3     63    bbb     C5   1903 -0.11337700  12.010000   ; qtot 63.397459
 1904         hc     63    bbb     H9   1904 0.09515400   1.008000   ; qtot 63.492613
 1905         hc     63    bbb    H10   1905 0.09515400   1.008000   ; qtot 63.587767
 1906         c3     63    bbb     C6   1906 -0.11337700  12.010000   ; qtot 63.474390
 1907         hc     63    bbb    H11   1907 0.09515400   1.008000   ; qtot 63.569544
 1908         hc     63    bbb    H12   1908 0.09515400   1.008000   ; qtot 63.664698
 1909         c3     63    bbb     C7   1909 0.21842400  12.010000   ; qtot 63.883122
 1910         h1     63    bbb    H13   1910 0.04500300   1.008000   ; qtot 63.928125
 1911         h1     63    bbb    H14   1911 0.04500300   1.008000   ; qtot 63.973128
 1912         c3     63    bbb     C8   1912 -0.06455200  12.010000   ; qtot 63.908576
 1913         h1     63    bbb    H15   1913 0.13554100   1.008000   ; qtot 64.044117
 1914         h1     63    bbb    H16   1914 0.13554100   1.008000   ; qtot 64.179658
 1915         c3     63    bbb     C9   1915 -0.06455200  12.010000   ; qtot 64.115106
 1916         h1     63    bbb    H17   1916 0.13554100   1.008000   ; qtot 64.250647
 1917         h1     63    bbb    H18   1917 0.13554100   1.008000   ; qtot 64.386188
 1918         os     63    bbb     O1   1918 -0.62587700  16.000000   ; qtot 63.760311
 1919         hn     63    bbb    H19   1919 0.23982500   1.008000   ; qtot 64.000136
; residue   64 bbb rtp bbb q 1.0
 1920         n4     64    bbb     N1   1920 0.03726400  14.010000   ; qtot 64.037400
 1921         c3     64    bbb     C1   1921 -0.07020100  12.010000   ; qtot 63.967199
 1922         hx     64    bbb     H1   1922 0.12219000   1.008000   ; qtot 64.089389
 1923         hx     64    bbb     H2   1923 0.12219000   1.008000   ; qtot 64.211579
 1924         c3     64    bbb     C2   1924 -0.07020100  12.010000   ; qtot 64.141378
 1925         hx     64    bbb     H3   1925 0.12219000   1.008000   ; qtot 64.263568
 1926         hx     64    bbb     H4   1926 0.12219000   1.008000   ; qtot 64.385758
 1927         c3     64    bbb     C3   1927 -0.39007700  12.010000   ; qtot 63.995681
 1928         hx     64    bbb     H5   1928 0.14940300   1.008000   ; qtot 64.145084
 1929         hx     64    bbb     H6   1929 0.14940300   1.008000   ; qtot 64.294487
 1930         c3     64    bbb     C4   1930 0.18057300  12.010000   ; qtot 64.475060
 1931         hc     64    bbb     H7   1931 0.01788900   1.008000   ; qtot 64.492949
 1932         hc     64    bbb     H8   1932 0.01788900   1.008000   ; qtot 64.510838
 1933         c3     64    bbb     C5   1933 -0.11337700  12.010000   ; qtot 64.397461
 1934         hc     64    bbb     H9   1934 0.09515400   1.008000   ; qtot 64.492615
 1935         hc     64    bbb    H10   1935 0.09515400   1.008000   ; qtot 64.587769
 1936         c3     64    bbb     C6   1936 -0.11337700  12.010000   ; qtot 64.474392
 1937         hc     64    bbb    H11   1937 0.09515400   1.008000   ; qtot 64.569546
 1938         hc     64    bbb    H12   1938 0.09515400   1.008000   ; qtot 64.664700
 1939         c3     64    bbb     C7   1939 0.21842400  12.010000   ; qtot 64.883124
 1940         h1     64    bbb    H13   1940 0.04500300   1.008000   ; qtot 64.928127
 1941         h1     64    bbb    H14   1941 0.04500300   1.008000   ; qtot 64.973130
 1942         c3     64    bbb     C8   1942 -0.06455200  12.010000   ; qtot 64.908578
 1943         h1     64    bbb    H15   1943 0.13554100   1.008000   ; qtot 65.044119
 1944         h1     64    bbb    H16   1944 0.13554100   1.008000   ; qtot 65.179660
 1945         c3     64    bbb     C9   1945 -0.06455200  12.010000   ; qtot 65.115108
 1946         h1     64    bbb    H17   1946 0.13554100   1.008000   ; qtot 65.250649
 1947         h1     64    bbb    H18   1947 0.13554100   1.008000   ; qtot 65.386190
 1948         os     64    bbb     O1   1948 -0.62587700  16.000000   ; qtot 64.760313
 1949         hn     64    bbb    H19   1949 0.23982500   1.008000   ; qtot 65.000138
; residue   65 bbb rtp bbb q 1.0
 1950         n4     65    bbb     N1   1950 0.03726400  14.010000   ; qtot 65.037402
 1951         c3     65    bbb     C1   1951 -0.07020100  12.010000   ; qtot 64.967201
 1952         hx     65    bbb     H1   1952 0.12219000   1.008000   ; qtot 65.089391
 1953         hx     65    bbb     H2   1953 0.12219000   1.008000   ; qtot 65.211581
 1954         c3     65    bbb     C2   1954 -0.07020100  12.010000   ; qtot 65.141380
 1955         hx     65    bbb     H3   1955 0.12219000   1.008000   ; qtot 65.263570
 1956         hx     65    bbb     H4   1956 0.12219000   1.008000   ; qtot 65.385760
 1957         c3     65    bbb     C3   1957 -0.39007700  12.010000   ; qtot 64.995683
 1958         hx     65    bbb     H5   1958 0.14940300   1.008000   ; qtot 65.145086
 1959         hx     65    bbb     H6   1959 0.14940300   1.008000   ; qtot 65.294489
 1960         c3     65    bbb     C4   1960 0.18057300  12.010000   ; qtot 65.475062
 1961         hc     65    bbb     H7   1961 0.01788900   1.008000   ; qtot 65.492951
 1962         hc     65    bbb     H8   1962 0.01788900   1.008000   ; qtot 65.510840
 1963         c3     65    bbb     C5   1963 -0.11337700  12.010000   ; qtot 65.397463
 1964         hc     65    bbb     H9   1964 0.09515400   1.008000   ; qtot 65.492617
 1965         hc     65    bbb    H10   1965 0.09515400   1.008000   ; qtot 65.587771
 1966         c3     65    bbb     C6   1966 -0.11337700  12.010000   ; qtot 65.474394
 1967         hc     65    bbb    H11   1967 0.09515400   1.008000   ; qtot 65.569548
 1968         hc     65    bbb    H12   1968 0.09515400   1.008000   ; qtot 65.664702
 1969         c3     65    bbb     C7   1969 0.21842400  12.010000   ; qtot 65.883126
 1970         h1     65    bbb    H13   1970 0.04500300   1.008000   ; qtot 65.928129
 1971         h1     65    bbb    H14   1971 0.04500300   1.008000   ; qtot 65.973132
 1972         c3     65    bbb     C8   1972 -0.06455200  12.010000   ; qtot 65.908580
 1973         h1     65    bbb    H15   1973 0.13554100   1.008000   ; qtot 66.044121
 1974         h1     65    bbb    H16   1974 0.13554100   1.008000   ; qtot 66.179662
 1975         c3     65    bbb     C9   1975 -0.06455200  12.010000   ; qtot 66.115110
 1976         h1     65    bbb    H17   1976 0.13554100   1.008000   ; qtot 66.250651
 1977         h1     65    bbb    H18   1977 0.13554100   1.008000   ; qtot 66.386192
 1978         os     65    bbb     O1   1978 -0.62587700  16.000000   ; qtot 65.760315
 1979         hn     65    bbb    H19   1979 0.23982500   1.008000   ; qtot 66.000140
; residue   66 bbb rtp bbb q 1.0
 1980         n4     66    bbb     N1   1980 0.03726400  14.010000   ; qtot 66.037404
 1981         c3     66    bbb     C1   1981 -0.07020100  12.010000   ; qtot 65.967203
 1982         hx     66    bbb     H1   1982 0.12219000   1.008000   ; qtot 66.089393
 1983         hx     66    bbb     H2   1983 0.12219000   1.008000   ; qtot 66.211583
 1984         c3     66    bbb     C2   1984 -0.07020100  12.010000   ; qtot 66.141382
 1985         hx     66    bbb     H3   1985 0.12219000   1.008000   ; qtot 66.263572
 1986         hx     66    bbb     H4   1986 0.12219000   1.008000   ; qtot 66.385762
 1987         c3     66    bbb     C3   1987 -0.39007700  12.010000   ; qtot 65.995685
 1988         hx     66    bbb     H5   1988 0.14940300   1.008000   ; qtot 66.145088
 1989         hx     66    bbb     H6   1989 0.14940300   1.008000   ; qtot 66.294491
 1990         c3     66    bbb     C4   1990 0.18057300  12.010000   ; qtot 66.475064
 1991         hc     66    bbb     H7   1991 0.01788900   1.008000   ; qtot 66.492953
 1992         hc     66    bbb     H8   1992 0.01788900   1.008000   ; qtot 66.510842
 1993         c3     66    bbb     C5   1993 -0.11337700  12.010000   ; qtot 66.397465
 1994         hc     66    bbb     H9   1994 0.09515400   1.008000   ; qtot 66.492619
 1995         hc     66    bbb    H10   1995 0.09515400   1.008000   ; qtot 66.587773
 1996         c3     66    bbb     C6   1996 -0.11337700  12.010000   ; qtot 66.474396
 1997         hc     66    bbb    H11   1997 0.09515400   1.008000   ; qtot 66.569550
 1998         hc     66    bbb    H12   1998 0.09515400   1.008000   ; qtot 66.664704
 1999         c3     66    bbb     C7   1999 0.21842400  12.010000   ; qtot 66.883128
 2000         h1     66    bbb    H13   2000 0.04500300   1.008000   ; qtot 66.928131
 2001         h1     66    bbb    H14   2001 0.04500300   1.008000   ; qtot 66.973134
 2002         c3     66    bbb     C8   2002 -0.06455200  12.010000   ; qtot 66.908582
 2003         h1     66    bbb    H15   2003 0.13554100   1.008000   ; qtot 67.044123
 2004         h1     66    bbb    H16   2004 0.13554100   1.008000   ; qtot 67.179664
 2005         c3     66    bbb     C9   2005 -0.06455200  12.010000   ; qtot 67.115112
 2006         h1     66    bbb    H17   2006 0.13554100   1.008000   ; qtot 67.250653
 2007         h1     66    bbb    H18   2007 0.13554100   1.008000   ; qtot 67.386194
 2008         os     66    bbb     O1   2008 -0.62587700  16.000000   ; qtot 66.760317
 2009         hn     66    bbb    H19   2009 0.23982500   1.008000   ; qtot 67.000142
; residue   67 bbb rtp bbb q 1.0
 2010         n4     67    bbb     N1   2010 0.03726400  14.010000   ; qtot 67.037406
 2011         c3     67    bbb     C1   2011 -0.07020100  12.010000   ; qtot 66.967205
 2012         hx     67    bbb     H1   2012 0.12219000   1.008000   ; qtot 67.089395
 2013         hx     67    bbb     H2   2013 0.12219000   1.008000   ; qtot 67.211585
 2014         c3     67    bbb     C2   2014 -0.07020100  12.010000   ; qtot 67.141384
 2015         hx     67    bbb     H3   2015 0.12219000   1.008000   ; qtot 67.263574
 2016         hx     67    bbb     H4   2016 0.12219000   1.008000   ; qtot 67.385764
 2017         c3     67    bbb     C3   2017 -0.39007700  12.010000   ; qtot 66.995687
 2018         hx     67    bbb     H5   2018 0.14940300   1.008000   ; qtot 67.145090
 2019         hx     67    bbb     H6   2019 0.14940300   1.008000   ; qtot 67.294493
 2020         c3     67    bbb     C4   2020 0.18057300  12.010000   ; qtot 67.475066
 2021         hc     67    bbb     H7   2021 0.01788900   1.008000   ; qtot 67.492955
 2022         hc     67    bbb     H8   2022 0.01788900   1.008000   ; qtot 67.510844
 2023         c3     67    bbb     C5   2023 -0.11337700  12.010000   ; qtot 67.397467
 2024         hc     67    bbb     H9   2024 0.09515400   1.008000   ; qtot 67.492621
 2025         hc     67    bbb    H10   2025 0.09515400   1.008000   ; qtot 67.587775
 2026         c3     67    bbb     C6   2026 -0.11337700  12.010000   ; qtot 67.474398
 2027         hc     67    bbb    H11   2027 0.09515400   1.008000   ; qtot 67.569552
 2028         hc     67    bbb    H12   2028 0.09515400   1.008000   ; qtot 67.664706
 2029         c3     67    bbb     C7   2029 0.21842400  12.010000   ; qtot 67.883130
 2030         h1     67    bbb    H13   2030 0.04500300   1.008000   ; qtot 67.928133
 2031         h1     67    bbb    H14   2031 0.04500300   1.008000   ; qtot 67.973136
 2032         c3     67    bbb     C8   2032 -0.06455200  12.010000   ; qtot 67.908584
 2033         h1     67    bbb    H15   2033 0.13554100   1.008000   ; qtot 68.044125
 2034         h1     67    bbb    H16   2034 0.13554100   1.008000   ; qtot 68.179666
 2035         c3     67    bbb     C9   2035 -0.06455200  12.010000   ; qtot 68.115114
 2036         h1     67    bbb    H17   2036 0.13554100   1.008000   ; qtot 68.250655
 2037         h1     67    bbb    H18   2037 0.13554100   1.008000   ; qtot 68.386196
 2038         os     67    bbb     O1   2038 -0.62587700  16.000000   ; qtot 67.760319
 2039         hn     67    bbb    H19   2039 0.23982500   1.008000   ; qtot 68.000144
; residue   68 bbb rtp bbb q 1.0
 2040         n4     68    bbb     N1   2040 0.03726400  14.010000   ; qtot 68.037408
 2041         c3     68    bbb     C1   2041 -0.07020100  12.010000   ; qtot 67.967207
 2042         hx     68    bbb     H1   2042 0.12219000   1.008000   ; qtot 68.089397
 2043         hx     68    bbb     H2   2043 0.12219000   1.008000   ; qtot 68.211587
 2044         c3     68    bbb     C2   2044 -0.07020100  12.010000   ; qtot 68.141386
 2045         hx     68    bbb     H3   2045 0.12219000   1.008000   ; qtot 68.263576
 2046         hx     68    bbb     H4   2046 0.12219000   1.008000   ; qtot 68.385766
 2047         c3     68    bbb     C3   2047 -0.39007700  12.010000   ; qtot 67.995689
 2048         hx     68    bbb     H5   2048 0.14940300   1.008000   ; qtot 68.145092
 2049         hx     68    bbb     H6   2049 0.14940300   1.008000   ; qtot 68.294495
 2050         c3     68    bbb     C4   2050 0.18057300  12.010000   ; qtot 68.475068
 2051         hc     68    bbb     H7   2051 0.01788900   1.008000   ; qtot 68.492957
 2052         hc     68    bbb     H8   2052 0.01788900   1.008000   ; qtot 68.510846
 2053         c3     68    bbb     C5   2053 -0.11337700  12.010000   ; qtot 68.397469
 2054         hc     68    bbb     H9   2054 0.09515400   1.008000   ; qtot 68.492623
 2055         hc     68    bbb    H10   2055 0.09515400   1.008000   ; qtot 68.587777
 2056         c3     68    bbb     C6   2056 -0.11337700  12.010000   ; qtot 68.474400
 2057         hc     68    bbb    H11   2057 0.09515400   1.008000   ; qtot 68.569554
 2058         hc     68    bbb    H12   2058 0.09515400   1.008000   ; qtot 68.664708
 2059         c3     68    bbb     C7   2059 0.21842400  12.010000   ; qtot 68.883132
 2060         h1     68    bbb    H13   2060 0.04500300   1.008000   ; qtot 68.928135
 2061         h1     68    bbb    H14   2061 0.04500300   1.008000   ; qtot 68.973138
 2062         c3     68    bbb     C8   2062 -0.06455200  12.010000   ; qtot 68.908586
 2063         h1     68    bbb    H15   2063 0.13554100   1.008000   ; qtot 69.044127
 2064         h1     68    bbb    H16   2064 0.13554100   1.008000   ; qtot 69.179668
 2065         c3     68    bbb     C9   2065 -0.06455200  12.010000   ; qtot 69.115116
 2066         h1     68    bbb    H17   2066 0.13554100   1.008000   ; qtot 69.250657
 2067         h1     68    bbb    H18   2067 0.13554100   1.008000   ; qtot 69.386198
 2068         os     68    bbb     O1   2068 -0.62587700  16.000000   ; qtot 68.760321
 2069         hn     68    bbb    H19   2069 0.23982500   1.008000   ; qtot 69.000146
; residue   69 bbb rtp bbb q 1.0
 2070         n4     69    bbb     N1   2070 0.03726400  14.010000   ; qtot 69.037410
 2071         c3     69    bbb     C1   2071 -0.07020100  12.010000   ; qtot 68.967209
 2072         hx     69    bbb     H1   2072 0.12219000   1.008000   ; qtot 69.089399
 2073         hx     69    bbb     H2   2073 0.12219000   1.008000   ; qtot 69.211589
 2074         c3     69    bbb     C2   2074 -0.07020100  12.010000   ; qtot 69.141388
 2075         hx     69    bbb     H3   2075 0.12219000   1.008000   ; qtot 69.263578
 2076         hx     69    bbb     H4   2076 0.12219000   1.008000   ; qtot 69.385768
 2077         c3     69    bbb     C3   2077 -0.39007700  12.010000   ; qtot 68.995691
 2078         hx     69    bbb     H5   2078 0.14940300   1.008000   ; qtot 69.145094
 2079         hx     69    bbb     H6   2079 0.14940300   1.008000   ; qtot 69.294497
 2080         c3     69    bbb     C4   2080 0.18057300  12.010000   ; qtot 69.475070
 2081         hc     69    bbb     H7   2081 0.01788900   1.008000   ; qtot 69.492959
 2082         hc     69    bbb     H8   2082 0.01788900   1.008000   ; qtot 69.510848
 2083         c3     69    bbb     C5   2083 -0.11337700  12.010000   ; qtot 69.397471
 2084         hc     69    bbb     H9   2084 0.09515400   1.008000   ; qtot 69.492625
 2085         hc     69    bbb    H10   2085 0.09515400   1.008000   ; qtot 69.587779
 2086         c3     69    bbb     C6   2086 -0.11337700  12.010000   ; qtot 69.474402
 2087         hc     69    bbb    H11   2087 0.09515400   1.008000   ; qtot 69.569556
 2088         hc     69    bbb    H12   2088 0.09515400   1.008000   ; qtot 69.664710
 2089         c3     69    bbb     C7   2089 0.21842400  12.010000   ; qtot 69.883134
 2090         h1     69    bbb    H13   2090 0.04500300   1.008000   ; qtot 69.928137
 2091         h1     69    bbb    H14   2091 0.04500300   1.008000   ; qtot 69.973140
 2092         c3     69    bbb     C8   2092 -0.06455200  12.010000   ; qtot 69.908588
 2093         h1     69    bbb    H15   2093 0.13554100   1.008000   ; qtot 70.044129
 2094         h1     69    bbb    H16   2094 0.13554100   1.008000   ; qtot 70.179670
 2095         c3     69    bbb     C9   2095 -0.06455200  12.010000   ; qtot 70.115118
 2096         h1     69    bbb    H17   2096 0.13554100   1.008000   ; qtot 70.250659
 2097         h1     69    bbb    H18   2097 0.13554100   1.008000   ; qtot 70.386200
 2098         os     69    bbb     O1   2098 -0.62587700  16.000000   ; qtot 69.760323
 2099         hn     69    bbb    H19   2099 0.23982500   1.008000   ; qtot 70.000148
; residue   70 bbb rtp bbb q 1.0
 2100         n4     70    bbb     N1   2100 0.03726400  14.010000   ; qtot 70.037412
 2101         c3     70    bbb     C1   2101 -0.07020100  12.010000   ; qtot 69.967211
 2102         hx     70    bbb     H1   2102 0.12219000   1.008000   ; qtot 70.089401
 2103         hx     70    bbb     H2   2103 0.12219000   1.008000   ; qtot 70.211591
 2104         c3     70    bbb     C2   2104 -0.07020100  12.010000   ; qtot 70.141390
 2105         hx     70    bbb     H3   2105 0.12219000   1.008000   ; qtot 70.263580
 2106         hx     70    bbb     H4   2106 0.12219000   1.008000   ; qtot 70.385770
 2107         c3     70    bbb     C3   2107 -0.39007700  12.010000   ; qtot 69.995693
 2108         hx     70    bbb     H5   2108 0.14940300   1.008000   ; qtot 70.145096
 2109         hx     70    bbb     H6   2109 0.14940300   1.008000   ; qtot 70.294499
 2110         c3     70    bbb     C4   2110 0.18057300  12.010000   ; qtot 70.475072
 2111         hc     70    bbb     H7   2111 0.01788900   1.008000   ; qtot 70.492961
 2112         hc     70    bbb     H8   2112 0.01788900   1.008000   ; qtot 70.510850
 2113         c3     70    bbb     C5   2113 -0.11337700  12.010000   ; qtot 70.397473
 2114         hc     70    bbb     H9   2114 0.09515400   1.008000   ; qtot 70.492627
 2115         hc     70    bbb    H10   2115 0.09515400   1.008000   ; qtot 70.587781
 2116         c3     70    bbb     C6   2116 -0.11337700  12.010000   ; qtot 70.474404
 2117         hc     70    bbb    H11   2117 0.09515400   1.008000   ; qtot 70.569558
 2118         hc     70    bbb    H12   2118 0.09515400   1.008000   ; qtot 70.664712
 2119         c3     70    bbb     C7   2119 0.21842400  12.010000   ; qtot 70.883136
 2120         h1     70    bbb    H13   2120 0.04500300   1.008000   ; qtot 70.928139
 2121         h1     70    bbb    H14   2121 0.04500300   1.008000   ; qtot 70.973142
 2122         c3     70    bbb     C8   2122 -0.06455200  12.010000   ; qtot 70.908590
 2123         h1     70    bbb    H15   2123 0.13554100   1.008000   ; qtot 71.044131
 2124         h1     70    bbb    H16   2124 0.13554100   1.008000   ; qtot 71.179672
 2125         c3     70    bbb     C9   2125 -0.06455200  12.010000   ; qtot 71.115120
 2126         h1     70    bbb    H17   2126 0.13554100   1.008000   ; qtot 71.250661
 2127         h1     70    bbb    H18   2127 0.13554100   1.008000   ; qtot 71.386202
 2128         os     70    bbb     O1   2128 -0.62587700  16.000000   ; qtot 70.760325
 2129         hn     70    bbb    H19   2129 0.23982500   1.008000   ; qtot 71.000150
; residue   71 bbb rtp bbb q 1.0
 2130         n4     71    bbb     N1   2130 0.03726400  14.010000   ; qtot 71.037414
 2131         c3     71    bbb     C1   2131 -0.07020100  12.010000   ; qtot 70.967213
 2132         hx     71    bbb     H1   2132 0.12219000   1.008000   ; qtot 71.089403
 2133         hx     71    bbb     H2   2133 0.12219000   1.008000   ; qtot 71.211593
 2134         c3     71    bbb     C2   2134 -0.07020100  12.010000   ; qtot 71.141392
 2135         hx     71    bbb     H3   2135 0.12219000   1.008000   ; qtot 71.263582
 2136         hx     71    bbb     H4   2136 0.12219000   1.008000   ; qtot 71.385772
 2137         c3     71    bbb     C3   2137 -0.39007700  12.010000   ; qtot 70.995695
 2138         hx     71    bbb     H5   2138 0.14940300   1.008000   ; qtot 71.145098
 2139         hx     71    bbb     H6   2139 0.14940300   1.008000   ; qtot 71.294501
 2140         c3     71    bbb     C4   2140 0.18057300  12.010000   ; qtot 71.475074
 2141         hc     71    bbb     H7   2141 0.01788900   1.008000   ; qtot 71.492963
 2142         hc     71    bbb     H8   2142 0.01788900   1.008000   ; qtot 71.510852
 2143         c3     71    bbb     C5   2143 -0.11337700  12.010000   ; qtot 71.397475
 2144         hc     71    bbb     H9   2144 0.09515400   1.008000   ; qtot 71.492629
 2145         hc     71    bbb    H10   2145 0.09515400   1.008000   ; qtot 71.587783
 2146         c3     71    bbb     C6   2146 -0.11337700  12.010000   ; qtot 71.474406
 2147         hc     71    bbb    H11   2147 0.09515400   1.008000   ; qtot 71.569560
 2148         hc     71    bbb    H12   2148 0.09515400   1.008000   ; qtot 71.664714
 2149         c3     71    bbb     C7   2149 0.21842400  12.010000   ; qtot 71.883138
 2150         h1     71    bbb    H13   2150 0.04500300   1.008000   ; qtot 71.928141
 2151         h1     71    bbb    H14   2151 0.04500300   1.008000   ; qtot 71.973144
 2152         c3     71    bbb     C8   2152 -0.06455200  12.010000   ; qtot 71.908592
 2153         h1     71    bbb    H15   2153 0.13554100   1.008000   ; qtot 72.044133
 2154         h1     71    bbb    H16   2154 0.13554100   1.008000   ; qtot 72.179674
 2155         c3     71    bbb     C9   2155 -0.06455200  12.010000   ; qtot 72.115122
 2156         h1     71    bbb    H17   2156 0.13554100   1.008000   ; qtot 72.250663
 2157         h1     71    bbb    H18   2157 0.13554100   1.008000   ; qtot 72.386204
 2158         os     71    bbb     O1   2158 -0.62587700  16.000000   ; qtot 71.760327
 2159         hn     71    bbb    H19   2159 0.23982500   1.008000   ; qtot 72.000152
; residue   72 bbb rtp bbb q 1.0
 2160         n4     72    bbb     N1   2160 0.03726400  14.010000   ; qtot 72.037416
 2161         c3     72    bbb     C1   2161 -0.07020100  12.010000   ; qtot 71.967215
 2162         hx     72    bbb     H1   2162 0.12219000   1.008000   ; qtot 72.089405
 2163         hx     72    bbb     H2   2163 0.12219000   1.008000   ; qtot 72.211595
 2164         c3     72    bbb     C2   2164 -0.07020100  12.010000   ; qtot 72.141394
 2165         hx     72    bbb     H3   2165 0.12219000   1.008000   ; qtot 72.263584
 2166         hx     72    bbb     H4   2166 0.12219000   1.008000   ; qtot 72.385774
 2167         c3     72    bbb     C3   2167 -0.39007700  12.010000   ; qtot 71.995697
 2168         hx     72    bbb     H5   2168 0.14940300   1.008000   ; qtot 72.145100
 2169         hx     72    bbb     H6   2169 0.14940300   1.008000   ; qtot 72.294503
 2170         c3     72    bbb     C4   2170 0.18057300  12.010000   ; qtot 72.475076
 2171         hc     72    bbb     H7   2171 0.01788900   1.008000   ; qtot 72.492965
 2172         hc     72    bbb     H8   2172 0.01788900   1.008000   ; qtot 72.510854
 2173         c3     72    bbb     C5   2173 -0.11337700  12.010000   ; qtot 72.397477
 2174         hc     72    bbb     H9   2174 0.09515400   1.008000   ; qtot 72.492631
 2175         hc     72    bbb    H10   2175 0.09515400   1.008000   ; qtot 72.587785
 2176         c3     72    bbb     C6   2176 -0.11337700  12.010000   ; qtot 72.474408
 2177         hc     72    bbb    H11   2177 0.09515400   1.008000   ; qtot 72.569562
 2178         hc     72    bbb    H12   2178 0.09515400   1.008000   ; qtot 72.664716
 2179         c3     72    bbb     C7   2179 0.21842400  12.010000   ; qtot 72.883140
 2180         h1     72    bbb    H13   2180 0.04500300   1.008000   ; qtot 72.928143
 2181         h1     72    bbb    H14   2181 0.04500300   1.008000   ; qtot 72.973146
 2182         c3     72    bbb     C8   2182 -0.06455200  12.010000   ; qtot 72.908594
 2183         h1     72    bbb    H15   2183 0.13554100   1.008000   ; qtot 73.044135
 2184         h1     72    bbb    H16   2184 0.13554100   1.008000   ; qtot 73.179676
 2185         c3     72    bbb     C9   2185 -0.06455200  12.010000   ; qtot 73.115124
 2186         h1     72    bbb    H17   2186 0.13554100   1.008000   ; qtot 73.250665
 2187         h1     72    bbb    H18   2187 0.13554100   1.008000   ; qtot 73.386206
 2188         os     72    bbb     O1   2188 -0.62587700  16.000000   ; qtot 72.760329
 2189         hn     72    bbb    H19   2189 0.23982500   1.008000   ; qtot 73.000154
; residue   73 bbb rtp bbb q 1.0
 2190         n4     73    bbb     N1   2190 0.03726400  14.010000   ; qtot 73.037418
 2191         c3     73    bbb     C1   2191 -0.07020100  12.010000   ; qtot 72.967217
 2192         hx     73    bbb     H1   2192 0.12219000   1.008000   ; qtot 73.089407
 2193         hx     73    bbb     H2   2193 0.12219000   1.008000   ; qtot 73.211597
 2194         c3     73    bbb     C2   2194 -0.07020100  12.010000   ; qtot 73.141396
 2195         hx     73    bbb     H3   2195 0.12219000   1.008000   ; qtot 73.263586
 2196         hx     73    bbb     H4   2196 0.12219000   1.008000   ; qtot 73.385776
 2197         c3     73    bbb     C3   2197 -0.39007700  12.010000   ; qtot 72.995699
 2198         hx     73    bbb     H5   2198 0.14940300   1.008000   ; qtot 73.145102
 2199         hx     73    bbb     H6   2199 0.14940300   1.008000   ; qtot 73.294505
 2200         c3     73    bbb     C4   2200 0.18057300  12.010000   ; qtot 73.475078
 2201         hc     73    bbb     H7   2201 0.01788900   1.008000   ; qtot 73.492967
 2202         hc     73    bbb     H8   2202 0.01788900   1.008000   ; qtot 73.510856
 2203         c3     73    bbb     C5   2203 -0.11337700  12.010000   ; qtot 73.397479
 2204         hc     73    bbb     H9   2204 0.09515400   1.008000   ; qtot 73.492633
 2205         hc     73    bbb    H10   2205 0.09515400   1.008000   ; qtot 73.587787
 2206         c3     73    bbb     C6   2206 -0.11337700  12.010000   ; qtot 73.474410
 2207         hc     73    bbb    H11   2207 0.09515400   1.008000   ; qtot 73.569564
 2208         hc     73    bbb    H12   2208 0.09515400   1.008000   ; qtot 73.664718
 2209         c3     73    bbb     C7   2209 0.21842400  12.010000   ; qtot 73.883142
 2210         h1     73    bbb    H13   2210 0.04500300   1.008000   ; qtot 73.928145
 2211         h1     73    bbb    H14   2211 0.04500300   1.008000   ; qtot 73.973148
 2212         c3     73    bbb     C8   2212 -0.06455200  12.010000   ; qtot 73.908596
 2213         h1     73    bbb    H15   2213 0.13554100   1.008000   ; qtot 74.044137
 2214         h1     73    bbb    H16   2214 0.13554100   1.008000   ; qtot 74.179678
 2215         c3     73    bbb     C9   2215 -0.06455200  12.010000   ; qtot 74.115126
 2216         h1     73    bbb    H17   2216 0.13554100   1.008000   ; qtot 74.250667
 2217         h1     73    bbb    H18   2217 0.13554100   1.008000   ; qtot 74.386208
 2218         os     73    bbb     O1   2218 -0.62587700  16.000000   ; qtot 73.760331
 2219         hn     73    bbb    H19   2219 0.23982500   1.008000   ; qtot 74.000156
; residue   74 bbb rtp bbb q 1.0
 2220         n4     74    bbb     N1   2220 0.03726400  14.010000   ; qtot 74.037420
 2221         c3     74    bbb     C1   2221 -0.07020100  12.010000   ; qtot 73.967219
 2222         hx     74    bbb     H1   2222 0.12219000   1.008000   ; qtot 74.089409
 2223         hx     74    bbb     H2   2223 0.12219000   1.008000   ; qtot 74.211599
 2224         c3     74    bbb     C2   2224 -0.07020100  12.010000   ; qtot 74.141398
 2225         hx     74    bbb     H3   2225 0.12219000   1.008000   ; qtot 74.263588
 2226         hx     74    bbb     H4   2226 0.12219000   1.008000   ; qtot 74.385778
 2227         c3     74    bbb     C3   2227 -0.39007700  12.010000   ; qtot 73.995701
 2228         hx     74    bbb     H5   2228 0.14940300   1.008000   ; qtot 74.145104
 2229         hx     74    bbb     H6   2229 0.14940300   1.008000   ; qtot 74.294507
 2230         c3     74    bbb     C4   2230 0.18057300  12.010000   ; qtot 74.475080
 2231         hc     74    bbb     H7   2231 0.01788900   1.008000   ; qtot 74.492969
 2232         hc     74    bbb     H8   2232 0.01788900   1.008000   ; qtot 74.510858
 2233         c3     74    bbb     C5   2233 -0.11337700  12.010000   ; qtot 74.397481
 2234         hc     74    bbb     H9   2234 0.09515400   1.008000   ; qtot 74.492635
 2235         hc     74    bbb    H10   2235 0.09515400   1.008000   ; qtot 74.587789
 2236         c3     74    bbb     C6   2236 -0.11337700  12.010000   ; qtot 74.474412
 2237         hc     74    bbb    H11   2237 0.09515400   1.008000   ; qtot 74.569566
 2238         hc     74    bbb    H12   2238 0.09515400   1.008000   ; qtot 74.664720
 2239         c3     74    bbb     C7   2239 0.21842400  12.010000   ; qtot 74.883144
 2240         h1     74    bbb    H13   2240 0.04500300   1.008000   ; qtot 74.928147
 2241         h1     74    bbb    H14   2241 0.04500300   1.008000   ; qtot 74.973150
 2242         c3     74    bbb     C8   2242 -0.06455200  12.010000   ; qtot 74.908598
 2243         h1     74    bbb    H15   2243 0.13554100   1.008000   ; qtot 75.044139
 2244         h1     74    bbb    H16   2244 0.13554100   1.008000   ; qtot 75.179680
 2245         c3     74    bbb     C9   2245 -0.06455200  12.010000   ; qtot 75.115128
 2246         h1     74    bbb    H17   2246 0.13554100   1.008000   ; qtot 75.250669
 2247         h1     74    bbb    H18   2247 0.13554100   1.008000   ; qtot 75.386210
 2248         os     74    bbb     O1   2248 -0.62587700  16.000000   ; qtot 74.760333
 2249         hn     74    bbb    H19   2249 0.23982500   1.008000   ; qtot 75.000158
; residue   75 bbb rtp bbb q 1.0
 2250         n4     75    bbb     N1   2250 0.03726400  14.010000   ; qtot 75.037422
 2251         c3     75    bbb     C1   2251 -0.07020100  12.010000   ; qtot 74.967221
 2252         hx     75    bbb     H1   2252 0.12219000   1.008000   ; qtot 75.089411
 2253         hx     75    bbb     H2   2253 0.12219000   1.008000   ; qtot 75.211601
 2254         c3     75    bbb     C2   2254 -0.07020100  12.010000   ; qtot 75.141400
 2255         hx     75    bbb     H3   2255 0.12219000   1.008000   ; qtot 75.263590
 2256         hx     75    bbb     H4   2256 0.12219000   1.008000   ; qtot 75.385780
 2257         c3     75    bbb     C3   2257 -0.39007700  12.010000   ; qtot 74.995703
 2258         hx     75    bbb     H5   2258 0.14940300   1.008000   ; qtot 75.145106
 2259         hx     75    bbb     H6   2259 0.14940300   1.008000   ; qtot 75.294509
 2260         c3     75    bbb     C4   2260 0.18057300  12.010000   ; qtot 75.475082
 2261         hc     75    bbb     H7   2261 0.01788900   1.008000   ; qtot 75.492971
 2262         hc     75    bbb     H8   2262 0.01788900   1.008000   ; qtot 75.510860
 2263         c3     75    bbb     C5   2263 -0.11337700  12.010000   ; qtot 75.397483
 2264         hc     75    bbb     H9   2264 0.09515400   1.008000   ; qtot 75.492637
 2265         hc     75    bbb    H10   2265 0.09515400   1.008000   ; qtot 75.587791
 2266         c3     75    bbb     C6   2266 -0.11337700  12.010000   ; qtot 75.474414
 2267         hc     75    bbb    H11   2267 0.09515400   1.008000   ; qtot 75.569568
 2268         hc     75    bbb    H12   2268 0.09515400   1.008000   ; qtot 75.664722
 2269         c3     75    bbb     C7   2269 0.21842400  12.010000   ; qtot 75.883146
 2270         h1     75    bbb    H13   2270 0.04500300   1.008000   ; qtot 75.928149
 2271         h1     75    bbb    H14   2271 0.04500300   1.008000   ; qtot 75.973152
 2272         c3     75    bbb     C8   2272 -0.06455200  12.010000   ; qtot 75.908600
 2273         h1     75    bbb    H15   2273 0.13554100   1.008000   ; qtot 76.044141
 2274         h1     75    bbb    H16   2274 0.13554100   1.008000   ; qtot 76.179682
 2275         c3     75    bbb     C9   2275 -0.06455200  12.010000   ; qtot 76.115130
 2276         h1     75    bbb    H17   2276 0.13554100   1.008000   ; qtot 76.250671
 2277         h1     75    bbb    H18   2277 0.13554100   1.008000   ; qtot 76.386212
 2278         os     75    bbb     O1   2278 -0.62587700  16.000000   ; qtot 75.760335
 2279         hn     75    bbb    H19   2279 0.23982500   1.008000   ; qtot 76.000160
; residue   76 bbb rtp bbb q 1.0
 2280         n4     76    bbb     N1   2280 0.03726400  14.010000   ; qtot 76.037424
 2281         c3     76    bbb     C1   2281 -0.07020100  12.010000   ; qtot 75.967223
 2282         hx     76    bbb     H1   2282 0.12219000   1.008000   ; qtot 76.089413
 2283         hx     76    bbb     H2   2283 0.12219000   1.008000   ; qtot 76.211603
 2284         c3     76    bbb     C2   2284 -0.07020100  12.010000   ; qtot 76.141402
 2285         hx     76    bbb     H3   2285 0.12219000   1.008000   ; qtot 76.263592
 2286         hx     76    bbb     H4   2286 0.12219000   1.008000   ; qtot 76.385782
 2287         c3     76    bbb     C3   2287 -0.39007700  12.010000   ; qtot 75.995705
 2288         hx     76    bbb     H5   2288 0.14940300   1.008000   ; qtot 76.145108
 2289         hx     76    bbb     H6   2289 0.14940300   1.008000   ; qtot 76.294511
 2290         c3     76    bbb     C4   2290 0.18057300  12.010000   ; qtot 76.475084
 2291         hc     76    bbb     H7   2291 0.01788900   1.008000   ; qtot 76.492973
 2292         hc     76    bbb     H8   2292 0.01788900   1.008000   ; qtot 76.510862
 2293         c3     76    bbb     C5   2293 -0.11337700  12.010000   ; qtot 76.397485
 2294         hc     76    bbb     H9   2294 0.09515400   1.008000   ; qtot 76.492639
 2295         hc     76    bbb    H10   2295 0.09515400   1.008000   ; qtot 76.587793
 2296         c3     76    bbb     C6   2296 -0.11337700  12.010000   ; qtot 76.474416
 2297         hc     76    bbb    H11   2297 0.09515400   1.008000   ; qtot 76.569570
 2298         hc     76    bbb    H12   2298 0.09515400   1.008000   ; qtot 76.664724
 2299         c3     76    bbb     C7   2299 0.21842400  12.010000   ; qtot 76.883148
 2300         h1     76    bbb    H13   2300 0.04500300   1.008000   ; qtot 76.928151
 2301         h1     76    bbb    H14   2301 0.04500300   1.008000   ; qtot 76.973154
 2302         c3     76    bbb     C8   2302 -0.06455200  12.010000   ; qtot 76.908602
 2303         h1     76    bbb    H15   2303 0.13554100   1.008000   ; qtot 77.044143
 2304         h1     76    bbb    H16   2304 0.13554100   1.008000   ; qtot 77.179684
 2305         c3     76    bbb     C9   2305 -0.06455200  12.010000   ; qtot 77.115132
 2306         h1     76    bbb    H17   2306 0.13554100   1.008000   ; qtot 77.250673
 2307         h1     76    bbb    H18   2307 0.13554100   1.008000   ; qtot 77.386214
 2308         os     76    bbb     O1   2308 -0.62587700  16.000000   ; qtot 76.760337
 2309         hn     76    bbb    H19   2309 0.23982500   1.008000   ; qtot 77.000162
; residue   77 bbb rtp bbb q 1.0
 2310         n4     77    bbb     N1   2310 0.03726400  14.010000   ; qtot 77.037426
 2311         c3     77    bbb     C1   2311 -0.07020100  12.010000   ; qtot 76.967225
 2312         hx     77    bbb     H1   2312 0.12219000   1.008000   ; qtot 77.089415
 2313         hx     77    bbb     H2   2313 0.12219000   1.008000   ; qtot 77.211605
 2314         c3     77    bbb     C2   2314 -0.07020100  12.010000   ; qtot 77.141404
 2315         hx     77    bbb     H3   2315 0.12219000   1.008000   ; qtot 77.263594
 2316         hx     77    bbb     H4   2316 0.12219000   1.008000   ; qtot 77.385784
 2317         c3     77    bbb     C3   2317 -0.39007700  12.010000   ; qtot 76.995707
 2318         hx     77    bbb     H5   2318 0.14940300   1.008000   ; qtot 77.145110
 2319         hx     77    bbb     H6   2319 0.14940300   1.008000   ; qtot 77.294513
 2320         c3     77    bbb     C4   2320 0.18057300  12.010000   ; qtot 77.475086
 2321         hc     77    bbb     H7   2321 0.01788900   1.008000   ; qtot 77.492975
 2322         hc     77    bbb     H8   2322 0.01788900   1.008000   ; qtot 77.510864
 2323         c3     77    bbb     C5   2323 -0.11337700  12.010000   ; qtot 77.397487
 2324         hc     77    bbb     H9   2324 0.09515400   1.008000   ; qtot 77.492641
 2325         hc     77    bbb    H10   2325 0.09515400   1.008000   ; qtot 77.587795
 2326         c3     77    bbb     C6   2326 -0.11337700  12.010000   ; qtot 77.474418
 2327         hc     77    bbb    H11   2327 0.09515400   1.008000   ; qtot 77.569572
 2328         hc     77    bbb    H12   2328 0.09515400   1.008000   ; qtot 77.664726
 2329         c3     77    bbb     C7   2329 0.21842400  12.010000   ; qtot 77.883150
 2330         h1     77    bbb    H13   2330 0.04500300   1.008000   ; qtot 77.928153
 2331         h1     77    bbb    H14   2331 0.04500300   1.008000   ; qtot 77.973156
 2332         c3     77    bbb     C8   2332 -0.06455200  12.010000   ; qtot 77.908604
 2333         h1     77    bbb    H15   2333 0.13554100   1.008000   ; qtot 78.044145
 2334         h1     77    bbb    H16   2334 0.13554100   1.008000   ; qtot 78.179686
 2335         c3     77    bbb     C9   2335 -0.06455200  12.010000   ; qtot 78.115134
 2336         h1     77    bbb    H17   2336 0.13554100   1.008000   ; qtot 78.250675
 2337         h1     77    bbb    H18   2337 0.13554100   1.008000   ; qtot 78.386216
 2338         os     77    bbb     O1   2338 -0.62587700  16.000000   ; qtot 77.760339
 2339         hn     77    bbb    H19   2339 0.23982500   1.008000   ; qtot 78.000164
; residue   78 bbb rtp bbb q 1.0
 2340         n4     78    bbb     N1   2340 0.03726400  14.010000   ; qtot 78.037428
 2341         c3     78    bbb     C1   2341 -0.07020100  12.010000   ; qtot 77.967227
 2342         hx     78    bbb     H1   2342 0.12219000   1.008000   ; qtot 78.089417
 2343         hx     78    bbb     H2   2343 0.12219000   1.008000   ; qtot 78.211607
 2344         c3     78    bbb     C2   2344 -0.07020100  12.010000   ; qtot 78.141406
 2345         hx     78    bbb     H3   2345 0.12219000   1.008000   ; qtot 78.263596
 2346         hx     78    bbb     H4   2346 0.12219000   1.008000   ; qtot 78.385786
 2347         c3     78    bbb     C3   2347 -0.39007700  12.010000   ; qtot 77.995709
 2348         hx     78    bbb     H5   2348 0.14940300   1.008000   ; qtot 78.145112
 2349         hx     78    bbb     H6   2349 0.14940300   1.008000   ; qtot 78.294515
 2350         c3     78    bbb     C4   2350 0.18057300  12.010000   ; qtot 78.475088
 2351         hc     78    bbb     H7   2351 0.01788900   1.008000   ; qtot 78.492977
 2352         hc     78    bbb     H8   2352 0.01788900   1.008000   ; qtot 78.510866
 2353         c3     78    bbb     C5   2353 -0.11337700  12.010000   ; qtot 78.397489
 2354         hc     78    bbb     H9   2354 0.09515400   1.008000   ; qtot 78.492643
 2355         hc     78    bbb    H10   2355 0.09515400   1.008000   ; qtot 78.587797
 2356         c3     78    bbb     C6   2356 -0.11337700  12.010000   ; qtot 78.474420
 2357         hc     78    bbb    H11   2357 0.09515400   1.008000   ; qtot 78.569574
 2358         hc     78    bbb    H12   2358 0.09515400   1.008000   ; qtot 78.664728
 2359         c3     78    bbb     C7   2359 0.21842400  12.010000   ; qtot 78.883152
 2360         h1     78    bbb    H13   2360 0.04500300   1.008000   ; qtot 78.928155
 2361         h1     78    bbb    H14   2361 0.04500300   1.008000   ; qtot 78.973158
 2362         c3     78    bbb     C8   2362 -0.06455200  12.010000   ; qtot 78.908606
 2363         h1     78    bbb    H15   2363 0.13554100   1.008000   ; qtot 79.044147
 2364         h1     78    bbb    H16   2364 0.13554100   1.008000   ; qtot 79.179688
 2365         c3     78    bbb     C9   2365 -0.06455200  12.010000   ; qtot 79.115136
 2366         h1     78    bbb    H17   2366 0.13554100   1.008000   ; qtot 79.250677
 2367         h1     78    bbb    H18   2367 0.13554100   1.008000   ; qtot 79.386218
 2368         os     78    bbb     O1   2368 -0.62587700  16.000000   ; qtot 78.760341
 2369         hn     78    bbb    H19   2369 0.23982500   1.008000   ; qtot 79.000166
; residue   79 bbb rtp bbb q 1.0
 2370         n4     79    bbb     N1   2370 0.03726400  14.010000   ; qtot 79.037430
 2371         c3     79    bbb     C1   2371 -0.07020100  12.010000   ; qtot 78.967229
 2372         hx     79    bbb     H1   2372 0.12219000   1.008000   ; qtot 79.089419
 2373         hx     79    bbb     H2   2373 0.12219000   1.008000   ; qtot 79.211609
 2374         c3     79    bbb     C2   2374 -0.07020100  12.010000   ; qtot 79.141408
 2375         hx     79    bbb     H3   2375 0.12219000   1.008000   ; qtot 79.263598
 2376         hx     79    bbb     H4   2376 0.12219000   1.008000   ; qtot 79.385788
 2377         c3     79    bbb     C3   2377 -0.39007700  12.010000   ; qtot 78.995711
 2378         hx     79    bbb     H5   2378 0.14940300   1.008000   ; qtot 79.145114
 2379         hx     79    bbb     H6   2379 0.14940300   1.008000   ; qtot 79.294517
 2380         c3     79    bbb     C4   2380 0.18057300  12.010000   ; qtot 79.475090
 2381         hc     79    bbb     H7   2381 0.01788900   1.008000   ; qtot 79.492979
 2382         hc     79    bbb     H8   2382 0.01788900   1.008000   ; qtot 79.510868
 2383         c3     79    bbb     C5   2383 -0.11337700  12.010000   ; qtot 79.397491
 2384         hc     79    bbb     H9   2384 0.09515400   1.008000   ; qtot 79.492645
 2385         hc     79    bbb    H10   2385 0.09515400   1.008000   ; qtot 79.587799
 2386         c3     79    bbb     C6   2386 -0.11337700  12.010000   ; qtot 79.474422
 2387         hc     79    bbb    H11   2387 0.09515400   1.008000   ; qtot 79.569576
 2388         hc     79    bbb    H12   2388 0.09515400   1.008000   ; qtot 79.664730
 2389         c3     79    bbb     C7   2389 0.21842400  12.010000   ; qtot 79.883154
 2390         h1     79    bbb    H13   2390 0.04500300   1.008000   ; qtot 79.928157
 2391         h1     79    bbb    H14   2391 0.04500300   1.008000   ; qtot 79.973160
 2392         c3     79    bbb     C8   2392 -0.06455200  12.010000   ; qtot 79.908608
 2393         h1     79    bbb    H15   2393 0.13554100   1.008000   ; qtot 80.044149
 2394         h1     79    bbb    H16   2394 0.13554100   1.008000   ; qtot 80.179690
 2395         c3     79    bbb     C9   2395 -0.06455200  12.010000   ; qtot 80.115138
 2396         h1     79    bbb    H17   2396 0.13554100   1.008000   ; qtot 80.250679
 2397         h1     79    bbb    H18   2397 0.13554100   1.008000   ; qtot 80.386220
 2398         os     79    bbb     O1   2398 -0.62587700  16.000000   ; qtot 79.760343
 2399         hn     79    bbb    H19   2399 0.23982500   1.008000   ; qtot 80.000168
; residue   80 bbb rtp bbb q 1.0
 2400         n4     80    bbb     N1   2400 0.03726400  14.010000   ; qtot 80.037432
 2401         c3     80    bbb     C1   2401 -0.07020100  12.010000   ; qtot 79.967231
 2402         hx     80    bbb     H1   2402 0.12219000   1.008000   ; qtot 80.089421
 2403         hx     80    bbb     H2   2403 0.12219000   1.008000   ; qtot 80.211611
 2404         c3     80    bbb     C2   2404 -0.07020100  12.010000   ; qtot 80.141410
 2405         hx     80    bbb     H3   2405 0.12219000   1.008000   ; qtot 80.263600
 2406         hx     80    bbb     H4   2406 0.12219000   1.008000   ; qtot 80.385790
 2407         c3     80    bbb     C3   2407 -0.39007700  12.010000   ; qtot 79.995713
 2408         hx     80    bbb     H5   2408 0.14940300   1.008000   ; qtot 80.145116
 2409         hx     80    bbb     H6   2409 0.14940300   1.008000   ; qtot 80.294519
 2410         c3     80    bbb     C4   2410 0.18057300  12.010000   ; qtot 80.475092
 2411         hc     80    bbb     H7   2411 0.01788900   1.008000   ; qtot 80.492981
 2412         hc     80    bbb     H8   2412 0.01788900   1.008000   ; qtot 80.510870
 2413         c3     80    bbb     C5   2413 -0.11337700  12.010000   ; qtot 80.397493
 2414         hc     80    bbb     H9   2414 0.09515400   1.008000   ; qtot 80.492647
 2415         hc     80    bbb    H10   2415 0.09515400   1.008000   ; qtot 80.587801
 2416         c3     80    bbb     C6   2416 -0.11337700  12.010000   ; qtot 80.474424
 2417         hc     80    bbb    H11   2417 0.09515400   1.008000   ; qtot 80.569578
 2418         hc     80    bbb    H12   2418 0.09515400   1.008000   ; qtot 80.664732
 2419         c3     80    bbb     C7   2419 0.21842400  12.010000   ; qtot 80.883156
 2420         h1     80    bbb    H13   2420 0.04500300   1.008000   ; qtot 80.928159
 2421         h1     80    bbb    H14   2421 0.04500300   1.008000   ; qtot 80.973162
 2422         c3     80    bbb     C8   2422 -0.06455200  12.010000   ; qtot 80.908610
 2423         h1     80    bbb    H15   2423 0.13554100   1.008000   ; qtot 81.044151
 2424         h1     80    bbb    H16   2424 0.13554100   1.008000   ; qtot 81.179692
 2425         c3     80    bbb     C9   2425 -0.06455200  12.010000   ; qtot 81.115140
 2426         h1     80    bbb    H17   2426 0.13554100   1.008000   ; qtot 81.250681
 2427         h1     80    bbb    H18   2427 0.13554100   1.008000   ; qtot 81.386222
 2428         os     80    bbb     O1   2428 -0.62587700  16.000000   ; qtot 80.760345
 2429         hn     80    bbb    H19   2429 0.23982500   1.008000   ; qtot 81.000170
; residue   81 bbb rtp bbb q 1.0
 2430         n4     81    bbb     N1   2430 0.03726400  14.010000   ; qtot 81.037434
 2431         c3     81    bbb     C1   2431 -0.07020100  12.010000   ; qtot 80.967233
 2432         hx     81    bbb     H1   2432 0.12219000   1.008000   ; qtot 81.089423
 2433         hx     81    bbb     H2   2433 0.12219000   1.008000   ; qtot 81.211613
 2434         c3     81    bbb     C2   2434 -0.07020100  12.010000   ; qtot 81.141412
 2435         hx     81    bbb     H3   2435 0.12219000   1.008000   ; qtot 81.263602
 2436         hx     81    bbb     H4   2436 0.12219000   1.008000   ; qtot 81.385792
 2437         c3     81    bbb     C3   2437 -0.39007700  12.010000   ; qtot 80.995715
 2438         hx     81    bbb     H5   2438 0.14940300   1.008000   ; qtot 81.145118
 2439         hx     81    bbb     H6   2439 0.14940300   1.008000   ; qtot 81.294521
 2440         c3     81    bbb     C4   2440 0.18057300  12.010000   ; qtot 81.475094
 2441         hc     81    bbb     H7   2441 0.01788900   1.008000   ; qtot 81.492983
 2442         hc     81    bbb     H8   2442 0.01788900   1.008000   ; qtot 81.510872
 2443         c3     81    bbb     C5   2443 -0.11337700  12.010000   ; qtot 81.397495
 2444         hc     81    bbb     H9   2444 0.09515400   1.008000   ; qtot 81.492649
 2445         hc     81    bbb    H10   2445 0.09515400   1.008000   ; qtot 81.587803
 2446         c3     81    bbb     C6   2446 -0.11337700  12.010000   ; qtot 81.474426
 2447         hc     81    bbb    H11   2447 0.09515400   1.008000   ; qtot 81.569580
 2448         hc     81    bbb    H12   2448 0.09515400   1.008000   ; qtot 81.664734
 2449         c3     81    bbb     C7   2449 0.21842400  12.010000   ; qtot 81.883158
 2450         h1     81    bbb    H13   2450 0.04500300   1.008000   ; qtot 81.928161
 2451         h1     81    bbb    H14   2451 0.04500300   1.008000   ; qtot 81.973164
 2452         c3     81    bbb     C8   2452 -0.06455200  12.010000   ; qtot 81.908612
 2453         h1     81    bbb    H15   2453 0.13554100   1.008000   ; qtot 82.044153
 2454         h1     81    bbb    H16   2454 0.13554100   1.008000   ; qtot 82.179694
 2455         c3     81    bbb     C9   2455 -0.06455200  12.010000   ; qtot 82.115142
 2456         h1     81    bbb    H17   2456 0.13554100   1.008000   ; qtot 82.250683
 2457         h1     81    bbb    H18   2457 0.13554100   1.008000   ; qtot 82.386224
 2458         os     81    bbb     O1   2458 -0.62587700  16.000000   ; qtot 81.760347
 2459         hn     81    bbb    H19   2459 0.23982500   1.008000   ; qtot 82.000172
; residue   82 bbb rtp bbb q 1.0
 2460         n4     82    bbb     N1   2460 0.03726400  14.010000   ; qtot 82.037436
 2461         c3     82    bbb     C1   2461 -0.07020100  12.010000   ; qtot 81.967235
 2462         hx     82    bbb     H1   2462 0.12219000   1.008000   ; qtot 82.089425
 2463         hx     82    bbb     H2   2463 0.12219000   1.008000   ; qtot 82.211615
 2464         c3     82    bbb     C2   2464 -0.07020100  12.010000   ; qtot 82.141414
 2465         hx     82    bbb     H3   2465 0.12219000   1.008000   ; qtot 82.263604
 2466         hx     82    bbb     H4   2466 0.12219000   1.008000   ; qtot 82.385794
 2467         c3     82    bbb     C3   2467 -0.39007700  12.010000   ; qtot 81.995717
 2468         hx     82    bbb     H5   2468 0.14940300   1.008000   ; qtot 82.145120
 2469         hx     82    bbb     H6   2469 0.14940300   1.008000   ; qtot 82.294523
 2470         c3     82    bbb     C4   2470 0.18057300  12.010000   ; qtot 82.475096
 2471         hc     82    bbb     H7   2471 0.01788900   1.008000   ; qtot 82.492985
 2472         hc     82    bbb     H8   2472 0.01788900   1.008000   ; qtot 82.510874
 2473         c3     82    bbb     C5   2473 -0.11337700  12.010000   ; qtot 82.397497
 2474         hc     82    bbb     H9   2474 0.09515400   1.008000   ; qtot 82.492651
 2475         hc     82    bbb    H10   2475 0.09515400   1.008000   ; qtot 82.587805
 2476         c3     82    bbb     C6   2476 -0.11337700  12.010000   ; qtot 82.474428
 2477         hc     82    bbb    H11   2477 0.09515400   1.008000   ; qtot 82.569582
 2478         hc     82    bbb    H12   2478 0.09515400   1.008000   ; qtot 82.664736
 2479         c3     82    bbb     C7   2479 0.21842400  12.010000   ; qtot 82.883160
 2480         h1     82    bbb    H13   2480 0.04500300   1.008000   ; qtot 82.928163
 2481         h1     82    bbb    H14   2481 0.04500300   1.008000   ; qtot 82.973166
 2482         c3     82    bbb     C8   2482 -0.06455200  12.010000   ; qtot 82.908614
 2483         h1     82    bbb    H15   2483 0.13554100   1.008000   ; qtot 83.044155
 2484         h1     82    bbb    H16   2484 0.13554100   1.008000   ; qtot 83.179696
 2485         c3     82    bbb     C9   2485 -0.06455200  12.010000   ; qtot 83.115144
 2486         h1     82    bbb    H17   2486 0.13554100   1.008000   ; qtot 83.250685
 2487         h1     82    bbb    H18   2487 0.13554100   1.008000   ; qtot 83.386226
 2488         os     82    bbb     O1   2488 -0.62587700  16.000000   ; qtot 82.760349
 2489         hn     82    bbb    H19   2489 0.23982500   1.008000   ; qtot 83.000174
; residue   83 bbb rtp bbb q 1.0
 2490         n4     83    bbb     N1   2490 0.03726400  14.010000   ; qtot 83.037438
 2491         c3     83    bbb     C1   2491 -0.07020100  12.010000   ; qtot 82.967237
 2492         hx     83    bbb     H1   2492 0.12219000   1.008000   ; qtot 83.089427
 2493         hx     83    bbb     H2   2493 0.12219000   1.008000   ; qtot 83.211617
 2494         c3     83    bbb     C2   2494 -0.07020100  12.010000   ; qtot 83.141416
 2495         hx     83    bbb     H3   2495 0.12219000   1.008000   ; qtot 83.263606
 2496         hx     83    bbb     H4   2496 0.12219000   1.008000   ; qtot 83.385796
 2497         c3     83    bbb     C3   2497 -0.39007700  12.010000   ; qtot 82.995719
 2498         hx     83    bbb     H5   2498 0.14940300   1.008000   ; qtot 83.145122
 2499         hx     83    bbb     H6   2499 0.14940300   1.008000   ; qtot 83.294525
 2500         c3     83    bbb     C4   2500 0.18057300  12.010000   ; qtot 83.475098
 2501         hc     83    bbb     H7   2501 0.01788900   1.008000   ; qtot 83.492987
 2502         hc     83    bbb     H8   2502 0.01788900   1.008000   ; qtot 83.510876
 2503         c3     83    bbb     C5   2503 -0.11337700  12.010000   ; qtot 83.397499
 2504         hc     83    bbb     H9   2504 0.09515400   1.008000   ; qtot 83.492653
 2505         hc     83    bbb    H10   2505 0.09515400   1.008000   ; qtot 83.587807
 2506         c3     83    bbb     C6   2506 -0.11337700  12.010000   ; qtot 83.474430
 2507         hc     83    bbb    H11   2507 0.09515400   1.008000   ; qtot 83.569584
 2508         hc     83    bbb    H12   2508 0.09515400   1.008000   ; qtot 83.664738
 2509         c3     83    bbb     C7   2509 0.21842400  12.010000   ; qtot 83.883162
 2510         h1     83    bbb    H13   2510 0.04500300   1.008000   ; qtot 83.928165
 2511         h1     83    bbb    H14   2511 0.04500300   1.008000   ; qtot 83.973168
 2512         c3     83    bbb     C8   2512 -0.06455200  12.010000   ; qtot 83.908616
 2513         h1     83    bbb    H15   2513 0.13554100   1.008000   ; qtot 84.044157
 2514         h1     83    bbb    H16   2514 0.13554100   1.008000   ; qtot 84.179698
 2515         c3     83    bbb     C9   2515 -0.06455200  12.010000   ; qtot 84.115146
 2516         h1     83    bbb    H17   2516 0.13554100   1.008000   ; qtot 84.250687
 2517         h1     83    bbb    H18   2517 0.13554100   1.008000   ; qtot 84.386228
 2518         os     83    bbb     O1   2518 -0.62587700  16.000000   ; qtot 83.760351
 2519         hn     83    bbb    H19   2519 0.23982500   1.008000   ; qtot 84.000176
; residue   84 bbb rtp bbb q 1.0
 2520         n4     84    bbb     N1   2520 0.03726400  14.010000   ; qtot 84.037440
 2521         c3     84    bbb     C1   2521 -0.07020100  12.010000   ; qtot 83.967239
 2522         hx     84    bbb     H1   2522 0.12219000   1.008000   ; qtot 84.089429
 2523         hx     84    bbb     H2   2523 0.12219000   1.008000   ; qtot 84.211619
 2524         c3     84    bbb     C2   2524 -0.07020100  12.010000   ; qtot 84.141418
 2525         hx     84    bbb     H3   2525 0.12219000   1.008000   ; qtot 84.263608
 2526         hx     84    bbb     H4   2526 0.12219000   1.008000   ; qtot 84.385798
 2527         c3     84    bbb     C3   2527 -0.39007700  12.010000   ; qtot 83.995721
 2528         hx     84    bbb     H5   2528 0.14940300   1.008000   ; qtot 84.145124
 2529         hx     84    bbb     H6   2529 0.14940300   1.008000   ; qtot 84.294527
 2530         c3     84    bbb     C4   2530 0.18057300  12.010000   ; qtot 84.475100
 2531         hc     84    bbb     H7   2531 0.01788900   1.008000   ; qtot 84.492989
 2532         hc     84    bbb     H8   2532 0.01788900   1.008000   ; qtot 84.510878
 2533         c3     84    bbb     C5   2533 -0.11337700  12.010000   ; qtot 84.397501
 2534         hc     84    bbb     H9   2534 0.09515400   1.008000   ; qtot 84.492655
 2535         hc     84    bbb    H10   2535 0.09515400   1.008000   ; qtot 84.587809
 2536         c3     84    bbb     C6   2536 -0.11337700  12.010000   ; qtot 84.474432
 2537         hc     84    bbb    H11   2537 0.09515400   1.008000   ; qtot 84.569586
 2538         hc     84    bbb    H12   2538 0.09515400   1.008000   ; qtot 84.664740
 2539         c3     84    bbb     C7   2539 0.21842400  12.010000   ; qtot 84.883164
 2540         h1     84    bbb    H13   2540 0.04500300   1.008000   ; qtot 84.928167
 2541         h1     84    bbb    H14   2541 0.04500300   1.008000   ; qtot 84.973170
 2542         c3     84    bbb     C8   2542 -0.06455200  12.010000   ; qtot 84.908618
 2543         h1     84    bbb    H15   2543 0.13554100   1.008000   ; qtot 85.044159
 2544         h1     84    bbb    H16   2544 0.13554100   1.008000   ; qtot 85.179700
 2545         c3     84    bbb     C9   2545 -0.06455200  12.010000   ; qtot 85.115148
 2546         h1     84    bbb    H17   2546 0.13554100   1.008000   ; qtot 85.250689
 2547         h1     84    bbb    H18   2547 0.13554100   1.008000   ; qtot 85.386230
 2548         os     84    bbb     O1   2548 -0.62587700  16.000000   ; qtot 84.760353
 2549         hn     84    bbb    H19   2549 0.23982500   1.008000   ; qtot 85.000178
; residue   85 bbb rtp bbb q 1.0
 2550         n4     85    bbb     N1   2550 0.03726400  14.010000   ; qtot 85.037442
 2551         c3     85    bbb     C1   2551 -0.07020100  12.010000   ; qtot 84.967241
 2552         hx     85    bbb     H1   2552 0.12219000   1.008000   ; qtot 85.089431
 2553         hx     85    bbb     H2   2553 0.12219000   1.008000   ; qtot 85.211621
 2554         c3     85    bbb     C2   2554 -0.07020100  12.010000   ; qtot 85.141420
 2555         hx     85    bbb     H3   2555 0.12219000   1.008000   ; qtot 85.263610
 2556         hx     85    bbb     H4   2556 0.12219000   1.008000   ; qtot 85.385800
 2557         c3     85    bbb     C3   2557 -0.39007700  12.010000   ; qtot 84.995723
 2558         hx     85    bbb     H5   2558 0.14940300   1.008000   ; qtot 85.145126
 2559         hx     85    bbb     H6   2559 0.14940300   1.008000   ; qtot 85.294529
 2560         c3     85    bbb     C4   2560 0.18057300  12.010000   ; qtot 85.475102
 2561         hc     85    bbb     H7   2561 0.01788900   1.008000   ; qtot 85.492991
 2562         hc     85    bbb     H8   2562 0.01788900   1.008000   ; qtot 85.510880
 2563         c3     85    bbb     C5   2563 -0.11337700  12.010000   ; qtot 85.397503
 2564         hc     85    bbb     H9   2564 0.09515400   1.008000   ; qtot 85.492657
 2565         hc     85    bbb    H10   2565 0.09515400   1.008000   ; qtot 85.587811
 2566         c3     85    bbb     C6   2566 -0.11337700  12.010000   ; qtot 85.474434
 2567         hc     85    bbb    H11   2567 0.09515400   1.008000   ; qtot 85.569588
 2568         hc     85    bbb    H12   2568 0.09515400   1.008000   ; qtot 85.664742
 2569         c3     85    bbb     C7   2569 0.21842400  12.010000   ; qtot 85.883166
 2570         h1     85    bbb    H13   2570 0.04500300   1.008000   ; qtot 85.928169
 2571         h1     85    bbb    H14   2571 0.04500300   1.008000   ; qtot 85.973172
 2572         c3     85    bbb     C8   2572 -0.06455200  12.010000   ; qtot 85.908620
 2573         h1     85    bbb    H15   2573 0.13554100   1.008000   ; qtot 86.044161
 2574         h1     85    bbb    H16   2574 0.13554100   1.008000   ; qtot 86.179702
 2575         c3     85    bbb     C9   2575 -0.06455200  12.010000   ; qtot 86.115150
 2576         h1     85    bbb    H17   2576 0.13554100   1.008000   ; qtot 86.250691
 2577         h1     85    bbb    H18   2577 0.13554100   1.008000   ; qtot 86.386232
 2578         os     85    bbb     O1   2578 -0.62587700  16.000000   ; qtot 85.760355
 2579         hn     85    bbb    H19   2579 0.23982500   1.008000   ; qtot 86.000180
; residue   86 bbb rtp bbb q 1.0
 2580         n4     86    bbb     N1   2580 0.03726400  14.010000   ; qtot 86.037444
 2581         c3     86    bbb     C1   2581 -0.07020100  12.010000   ; qtot 85.967243
 2582         hx     86    bbb     H1   2582 0.12219000   1.008000   ; qtot 86.089433
 2583         hx     86    bbb     H2   2583 0.12219000   1.008000   ; qtot 86.211623
 2584         c3     86    bbb     C2   2584 -0.07020100  12.010000   ; qtot 86.141422
 2585         hx     86    bbb     H3   2585 0.12219000   1.008000   ; qtot 86.263612
 2586         hx     86    bbb     H4   2586 0.12219000   1.008000   ; qtot 86.385802
 2587         c3     86    bbb     C3   2587 -0.39007700  12.010000   ; qtot 85.995725
 2588         hx     86    bbb     H5   2588 0.14940300   1.008000   ; qtot 86.145128
 2589         hx     86    bbb     H6   2589 0.14940300   1.008000   ; qtot 86.294531
 2590         c3     86    bbb     C4   2590 0.18057300  12.010000   ; qtot 86.475104
 2591         hc     86    bbb     H7   2591 0.01788900   1.008000   ; qtot 86.492993
 2592         hc     86    bbb     H8   2592 0.01788900   1.008000   ; qtot 86.510882
 2593         c3     86    bbb     C5   2593 -0.11337700  12.010000   ; qtot 86.397505
 2594         hc     86    bbb     H9   2594 0.09515400   1.008000   ; qtot 86.492659
 2595         hc     86    bbb    H10   2595 0.09515400   1.008000   ; qtot 86.587813
 2596         c3     86    bbb     C6   2596 -0.11337700  12.010000   ; qtot 86.474436
 2597         hc     86    bbb    H11   2597 0.09515400   1.008000   ; qtot 86.569590
 2598         hc     86    bbb    H12   2598 0.09515400   1.008000   ; qtot 86.664744
 2599         c3     86    bbb     C7   2599 0.21842400  12.010000   ; qtot 86.883168
 2600         h1     86    bbb    H13   2600 0.04500300   1.008000   ; qtot 86.928171
 2601         h1     86    bbb    H14   2601 0.04500300   1.008000   ; qtot 86.973174
 2602         c3     86    bbb     C8   2602 -0.06455200  12.010000   ; qtot 86.908622
 2603         h1     86    bbb    H15   2603 0.13554100   1.008000   ; qtot 87.044163
 2604         h1     86    bbb    H16   2604 0.13554100   1.008000   ; qtot 87.179704
 2605         c3     86    bbb     C9   2605 -0.06455200  12.010000   ; qtot 87.115152
 2606         h1     86    bbb    H17   2606 0.13554100   1.008000   ; qtot 87.250693
 2607         h1     86    bbb    H18   2607 0.13554100   1.008000   ; qtot 87.386234
 2608         os     86    bbb     O1   2608 -0.62587700  16.000000   ; qtot 86.760357
 2609         hn     86    bbb    H19   2609 0.23982500   1.008000   ; qtot 87.000182
; residue   87 bbb rtp bbb q 1.0
 2610         n4     87    bbb     N1   2610 0.03726400  14.010000   ; qtot 87.037446
 2611         c3     87    bbb     C1   2611 -0.07020100  12.010000   ; qtot 86.967245
 2612         hx     87    bbb     H1   2612 0.12219000   1.008000   ; qtot 87.089435
 2613         hx     87    bbb     H2   2613 0.12219000   1.008000   ; qtot 87.211625
 2614         c3     87    bbb     C2   2614 -0.07020100  12.010000   ; qtot 87.141424
 2615         hx     87    bbb     H3   2615 0.12219000   1.008000   ; qtot 87.263614
 2616         hx     87    bbb     H4   2616 0.12219000   1.008000   ; qtot 87.385804
 2617         c3     87    bbb     C3   2617 -0.39007700  12.010000   ; qtot 86.995727
 2618         hx     87    bbb     H5   2618 0.14940300   1.008000   ; qtot 87.145130
 2619         hx     87    bbb     H6   2619 0.14940300   1.008000   ; qtot 87.294533
 2620         c3     87    bbb     C4   2620 0.18057300  12.010000   ; qtot 87.475106
 2621         hc     87    bbb     H7   2621 0.01788900   1.008000   ; qtot 87.492995
 2622         hc     87    bbb     H8   2622 0.01788900   1.008000   ; qtot 87.510884
 2623         c3     87    bbb     C5   2623 -0.11337700  12.010000   ; qtot 87.397507
 2624         hc     87    bbb     H9   2624 0.09515400   1.008000   ; qtot 87.492661
 2625         hc     87    bbb    H10   2625 0.09515400   1.008000   ; qtot 87.587815
 2626         c3     87    bbb     C6   2626 -0.11337700  12.010000   ; qtot 87.474438
 2627         hc     87    bbb    H11   2627 0.09515400   1.008000   ; qtot 87.569592
 2628         hc     87    bbb    H12   2628 0.09515400   1.008000   ; qtot 87.664746
 2629         c3     87    bbb     C7   2629 0.21842400  12.010000   ; qtot 87.883170
 2630         h1     87    bbb    H13   2630 0.04500300   1.008000   ; qtot 87.928173
 2631         h1     87    bbb    H14   2631 0.04500300   1.008000   ; qtot 87.973176
 2632         c3     87    bbb     C8   2632 -0.06455200  12.010000   ; qtot 87.908624
 2633         h1     87    bbb    H15   2633 0.13554100   1.008000   ; qtot 88.044165
 2634         h1     87    bbb    H16   2634 0.13554100   1.008000   ; qtot 88.179706
 2635         c3     87    bbb     C9   2635 -0.06455200  12.010000   ; qtot 88.115154
 2636         h1     87    bbb    H17   2636 0.13554100   1.008000   ; qtot 88.250695
 2637         h1     87    bbb    H18   2637 0.13554100   1.008000   ; qtot 88.386236
 2638         os     87    bbb     O1   2638 -0.62587700  16.000000   ; qtot 87.760359
 2639         hn     87    bbb    H19   2639 0.23982500   1.008000   ; qtot 88.000184
; residue   88 bbb rtp bbb q 1.0
 2640         n4     88    bbb     N1   2640 0.03726400  14.010000   ; qtot 88.037448
 2641         c3     88    bbb     C1   2641 -0.07020100  12.010000   ; qtot 87.967247
 2642         hx     88    bbb     H1   2642 0.12219000   1.008000   ; qtot 88.089437
 2643         hx     88    bbb     H2   2643 0.12219000   1.008000   ; qtot 88.211627
 2644         c3     88    bbb     C2   2644 -0.07020100  12.010000   ; qtot 88.141426
 2645         hx     88    bbb     H3   2645 0.12219000   1.008000   ; qtot 88.263616
 2646         hx     88    bbb     H4   2646 0.12219000   1.008000   ; qtot 88.385806
 2647         c3     88    bbb     C3   2647 -0.39007700  12.010000   ; qtot 87.995729
 2648         hx     88    bbb     H5   2648 0.14940300   1.008000   ; qtot 88.145132
 2649         hx     88    bbb     H6   2649 0.14940300   1.008000   ; qtot 88.294535
 2650         c3     88    bbb     C4   2650 0.18057300  12.010000   ; qtot 88.475108
 2651         hc     88    bbb     H7   2651 0.01788900   1.008000   ; qtot 88.492997
 2652         hc     88    bbb     H8   2652 0.01788900   1.008000   ; qtot 88.510886
 2653         c3     88    bbb     C5   2653 -0.11337700  12.010000   ; qtot 88.397509
 2654         hc     88    bbb     H9   2654 0.09515400   1.008000   ; qtot 88.492663
 2655         hc     88    bbb    H10   2655 0.09515400   1.008000   ; qtot 88.587817
 2656         c3     88    bbb     C6   2656 -0.11337700  12.010000   ; qtot 88.474440
 2657         hc     88    bbb    H11   2657 0.09515400   1.008000   ; qtot 88.569594
 2658         hc     88    bbb    H12   2658 0.09515400   1.008000   ; qtot 88.664748
 2659         c3     88    bbb     C7   2659 0.21842400  12.010000   ; qtot 88.883172
 2660         h1     88    bbb    H13   2660 0.04500300   1.008000   ; qtot 88.928175
 2661         h1     88    bbb    H14   2661 0.04500300   1.008000   ; qtot 88.973178
 2662         c3     88    bbb     C8   2662 -0.06455200  12.010000   ; qtot 88.908626
 2663         h1     88    bbb    H15   2663 0.13554100   1.008000   ; qtot 89.044167
 2664         h1     88    bbb    H16   2664 0.13554100   1.008000   ; qtot 89.179708
 2665         c3     88    bbb     C9   2665 -0.06455200  12.010000   ; qtot 89.115156
 2666         h1     88    bbb    H17   2666 0.13554100   1.008000   ; qtot 89.250697
 2667         h1     88    bbb    H18   2667 0.13554100   1.008000   ; qtot 89.386238
 2668         os     88    bbb     O1   2668 -0.62587700  16.000000   ; qtot 88.760361
 2669         hn     88    bbb    H19   2669 0.23982500   1.008000   ; qtot 89.000186
; residue   89 bbb rtp bbb q 1.0
 2670         n4     89    bbb     N1   2670 0.03726400  14.010000   ; qtot 89.037450
 2671         c3     89    bbb     C1   2671 -0.07020100  12.010000   ; qtot 88.967249
 2672         hx     89    bbb     H1   2672 0.12219000   1.008000   ; qtot 89.089439
 2673         hx     89    bbb     H2   2673 0.12219000   1.008000   ; qtot 89.211629
 2674         c3     89    bbb     C2   2674 -0.07020100  12.010000   ; qtot 89.141428
 2675         hx     89    bbb     H3   2675 0.12219000   1.008000   ; qtot 89.263618
 2676         hx     89    bbb     H4   2676 0.12219000   1.008000   ; qtot 89.385808
 2677         c3     89    bbb     C3   2677 -0.39007700  12.010000   ; qtot 88.995731
 2678         hx     89    bbb     H5   2678 0.14940300   1.008000   ; qtot 89.145134
 2679         hx     89    bbb     H6   2679 0.14940300   1.008000   ; qtot 89.294537
 2680         c3     89    bbb     C4   2680 0.18057300  12.010000   ; qtot 89.475110
 2681         hc     89    bbb     H7   2681 0.01788900   1.008000   ; qtot 89.492999
 2682         hc     89    bbb     H8   2682 0.01788900   1.008000   ; qtot 89.510888
 2683         c3     89    bbb     C5   2683 -0.11337700  12.010000   ; qtot 89.397511
 2684         hc     89    bbb     H9   2684 0.09515400   1.008000   ; qtot 89.492665
 2685         hc     89    bbb    H10   2685 0.09515400   1.008000   ; qtot 89.587819
 2686         c3     89    bbb     C6   2686 -0.11337700  12.010000   ; qtot 89.474442
 2687         hc     89    bbb    H11   2687 0.09515400   1.008000   ; qtot 89.569596
 2688         hc     89    bbb    H12   2688 0.09515400   1.008000   ; qtot 89.664750
 2689         c3     89    bbb     C7   2689 0.21842400  12.010000   ; qtot 89.883174
 2690         h1     89    bbb    H13   2690 0.04500300   1.008000   ; qtot 89.928177
 2691         h1     89    bbb    H14   2691 0.04500300   1.008000   ; qtot 89.973180
 2692         c3     89    bbb     C8   2692 -0.06455200  12.010000   ; qtot 89.908628
 2693         h1     89    bbb    H15   2693 0.13554100   1.008000   ; qtot 90.044169
 2694         h1     89    bbb    H16   2694 0.13554100   1.008000   ; qtot 90.179710
 2695         c3     89    bbb     C9   2695 -0.06455200  12.010000   ; qtot 90.115158
 2696         h1     89    bbb    H17   2696 0.13554100   1.008000   ; qtot 90.250699
 2697         h1     89    bbb    H18   2697 0.13554100   1.008000   ; qtot 90.386240
 2698         os     89    bbb     O1   2698 -0.62587700  16.000000   ; qtot 89.760363
 2699         hn     89    bbb    H19   2699 0.23982500   1.008000   ; qtot 90.000188
; residue   90 bbb rtp bbb q 1.0
 2700         n4     90    bbb     N1   2700 0.03726400  14.010000   ; qtot 90.037452
 2701         c3     90    bbb     C1   2701 -0.07020100  12.010000   ; qtot 89.967251
 2702         hx     90    bbb     H1   2702 0.12219000   1.008000   ; qtot 90.089441
 2703         hx     90    bbb     H2   2703 0.12219000   1.008000   ; qtot 90.211631
 2704         c3     90    bbb     C2   2704 -0.07020100  12.010000   ; qtot 90.141430
 2705         hx     90    bbb     H3   2705 0.12219000   1.008000   ; qtot 90.263620
 2706         hx     90    bbb     H4   2706 0.12219000   1.008000   ; qtot 90.385810
 2707         c3     90    bbb     C3   2707 -0.39007700  12.010000   ; qtot 89.995733
 2708         hx     90    bbb     H5   2708 0.14940300   1.008000   ; qtot 90.145136
 2709         hx     90    bbb     H6   2709 0.14940300   1.008000   ; qtot 90.294539
 2710         c3     90    bbb     C4   2710 0.18057300  12.010000   ; qtot 90.475112
 2711         hc     90    bbb     H7   2711 0.01788900   1.008000   ; qtot 90.493001
 2712         hc     90    bbb     H8   2712 0.01788900   1.008000   ; qtot 90.510890
 2713         c3     90    bbb     C5   2713 -0.11337700  12.010000   ; qtot 90.397513
 2714         hc     90    bbb     H9   2714 0.09515400   1.008000   ; qtot 90.492667
 2715         hc     90    bbb    H10   2715 0.09515400   1.008000   ; qtot 90.587821
 2716         c3     90    bbb     C6   2716 -0.11337700  12.010000   ; qtot 90.474444
 2717         hc     90    bbb    H11   2717 0.09515400   1.008000   ; qtot 90.569598
 2718         hc     90    bbb    H12   2718 0.09515400   1.008000   ; qtot 90.664752
 2719         c3     90    bbb     C7   2719 0.21842400  12.010000   ; qtot 90.883176
 2720         h1     90    bbb    H13   2720 0.04500300   1.008000   ; qtot 90.928179
 2721         h1     90    bbb    H14   2721 0.04500300   1.008000   ; qtot 90.973182
 2722         c3     90    bbb     C8   2722 -0.06455200  12.010000   ; qtot 90.908630
 2723         h1     90    bbb    H15   2723 0.13554100   1.008000   ; qtot 91.044171
 2724         h1     90    bbb    H16   2724 0.13554100   1.008000   ; qtot 91.179712
 2725         c3     90    bbb     C9   2725 -0.06455200  12.010000   ; qtot 91.115160
 2726         h1     90    bbb    H17   2726 0.13554100   1.008000   ; qtot 91.250701
 2727         h1     90    bbb    H18   2727 0.13554100   1.008000   ; qtot 91.386242
 2728         os     90    bbb     O1   2728 -0.62587700  16.000000   ; qtot 90.760365
 2729         hn     90    bbb    H19   2729 0.23982500   1.008000   ; qtot 91.000190
; residue   91 bbb rtp bbb q 1.0
 2730         n4     91    bbb     N1   2730 0.03726400  14.010000   ; qtot 91.037454
 2731         c3     91    bbb     C1   2731 -0.07020100  12.010000   ; qtot 90.967253
 2732         hx     91    bbb     H1   2732 0.12219000   1.008000   ; qtot 91.089443
 2733         hx     91    bbb     H2   2733 0.12219000   1.008000   ; qtot 91.211633
 2734         c3     91    bbb     C2   2734 -0.07020100  12.010000   ; qtot 91.141432
 2735         hx     91    bbb     H3   2735 0.12219000   1.008000   ; qtot 91.263622
 2736         hx     91    bbb     H4   2736 0.12219000   1.008000   ; qtot 91.385812
 2737         c3     91    bbb     C3   2737 -0.39007700  12.010000   ; qtot 90.995735
 2738         hx     91    bbb     H5   2738 0.14940300   1.008000   ; qtot 91.145138
 2739         hx     91    bbb     H6   2739 0.14940300   1.008000   ; qtot 91.294541
 2740         c3     91    bbb     C4   2740 0.18057300  12.010000   ; qtot 91.475114
 2741         hc     91    bbb     H7   2741 0.01788900   1.008000   ; qtot 91.493003
 2742         hc     91    bbb     H8   2742 0.01788900   1.008000   ; qtot 91.510892
 2743         c3     91    bbb     C5   2743 -0.11337700  12.010000   ; qtot 91.397515
 2744         hc     91    bbb     H9   2744 0.09515400   1.008000   ; qtot 91.492669
 2745         hc     91    bbb    H10   2745 0.09515400   1.008000   ; qtot 91.587823
 2746         c3     91    bbb     C6   2746 -0.11337700  12.010000   ; qtot 91.474446
 2747         hc     91    bbb    H11   2747 0.09515400   1.008000   ; qtot 91.569600
 2748         hc     91    bbb    H12   2748 0.09515400   1.008000   ; qtot 91.664754
 2749         c3     91    bbb     C7   2749 0.21842400  12.010000   ; qtot 91.883178
 2750         h1     91    bbb    H13   2750 0.04500300   1.008000   ; qtot 91.928181
 2751         h1     91    bbb    H14   2751 0.04500300   1.008000   ; qtot 91.973184
 2752         c3     91    bbb     C8   2752 -0.06455200  12.010000   ; qtot 91.908632
 2753         h1     91    bbb    H15   2753 0.13554100   1.008000   ; qtot 92.044173
 2754         h1     91    bbb    H16   2754 0.13554100   1.008000   ; qtot 92.179714
 2755         c3     91    bbb     C9   2755 -0.06455200  12.010000   ; qtot 92.115162
 2756         h1     91    bbb    H17   2756 0.13554100   1.008000   ; qtot 92.250703
 2757         h1     91    bbb    H18   2757 0.13554100   1.008000   ; qtot 92.386244
 2758         os     91    bbb     O1   2758 -0.62587700  16.000000   ; qtot 91.760367
 2759         hn     91    bbb    H19   2759 0.23982500   1.008000   ; qtot 92.000192
; residue   92 bbb rtp bbb q 1.0
 2760         n4     92    bbb     N1   2760 0.03726400  14.010000   ; qtot 92.037456
 2761         c3     92    bbb     C1   2761 -0.07020100  12.010000   ; qtot 91.967255
 2762         hx     92    bbb     H1   2762 0.12219000   1.008000   ; qtot 92.089445
 2763         hx     92    bbb     H2   2763 0.12219000   1.008000   ; qtot 92.211635
 2764         c3     92    bbb     C2   2764 -0.07020100  12.010000   ; qtot 92.141434
 2765         hx     92    bbb     H3   2765 0.12219000   1.008000   ; qtot 92.263624
 2766         hx     92    bbb     H4   2766 0.12219000   1.008000   ; qtot 92.385814
 2767         c3     92    bbb     C3   2767 -0.39007700  12.010000   ; qtot 91.995737
 2768         hx     92    bbb     H5   2768 0.14940300   1.008000   ; qtot 92.145140
 2769         hx     92    bbb     H6   2769 0.14940300   1.008000   ; qtot 92.294543
 2770         c3     92    bbb     C4   2770 0.18057300  12.010000   ; qtot 92.475116
 2771         hc     92    bbb     H7   2771 0.01788900   1.008000   ; qtot 92.493005
 2772         hc     92    bbb     H8   2772 0.01788900   1.008000   ; qtot 92.510894
 2773         c3     92    bbb     C5   2773 -0.11337700  12.010000   ; qtot 92.397517
 2774         hc     92    bbb     H9   2774 0.09515400   1.008000   ; qtot 92.492671
 2775         hc     92    bbb    H10   2775 0.09515400   1.008000   ; qtot 92.587825
 2776         c3     92    bbb     C6   2776 -0.11337700  12.010000   ; qtot 92.474448
 2777         hc     92    bbb    H11   2777 0.09515400   1.008000   ; qtot 92.569602
 2778         hc     92    bbb    H12   2778 0.09515400   1.008000   ; qtot 92.664756
 2779         c3     92    bbb     C7   2779 0.21842400  12.010000   ; qtot 92.883180
 2780         h1     92    bbb    H13   2780 0.04500300   1.008000   ; qtot 92.928183
 2781         h1     92    bbb    H14   2781 0.04500300   1.008000   ; qtot 92.973186
 2782         c3     92    bbb     C8   2782 -0.06455200  12.010000   ; qtot 92.908634
 2783         h1     92    bbb    H15   2783 0.13554100   1.008000   ; qtot 93.044175
 2784         h1     92    bbb    H16   2784 0.13554100   1.008000   ; qtot 93.179716
 2785         c3     92    bbb     C9   2785 -0.06455200  12.010000   ; qtot 93.115164
 2786         h1     92    bbb    H17   2786 0.13554100   1.008000   ; qtot 93.250705
 2787         h1     92    bbb    H18   2787 0.13554100   1.008000   ; qtot 93.386246
 2788         os     92    bbb     O1   2788 -0.62587700  16.000000   ; qtot 92.760369
 2789         hn     92    bbb    H19   2789 0.23982500   1.008000   ; qtot 93.000194
; residue   93 bbb rtp bbb q 1.0
 2790         n4     93    bbb     N1   2790 0.03726400  14.010000   ; qtot 93.037458
 2791         c3     93    bbb     C1   2791 -0.07020100  12.010000   ; qtot 92.967257
 2792         hx     93    bbb     H1   2792 0.12219000   1.008000   ; qtot 93.089447
 2793         hx     93    bbb     H2   2793 0.12219000   1.008000   ; qtot 93.211637
 2794         c3     93    bbb     C2   2794 -0.07020100  12.010000   ; qtot 93.141436
 2795         hx     93    bbb     H3   2795 0.12219000   1.008000   ; qtot 93.263626
 2796         hx     93    bbb     H4   2796 0.12219000   1.008000   ; qtot 93.385816
 2797         c3     93    bbb     C3   2797 -0.39007700  12.010000   ; qtot 92.995739
 2798         hx     93    bbb     H5   2798 0.14940300   1.008000   ; qtot 93.145142
 2799         hx     93    bbb     H6   2799 0.14940300   1.008000   ; qtot 93.294545
 2800         c3     93    bbb     C4   2800 0.18057300  12.010000   ; qtot 93.475118
 2801         hc     93    bbb     H7   2801 0.01788900   1.008000   ; qtot 93.493007
 2802         hc     93    bbb     H8   2802 0.01788900   1.008000   ; qtot 93.510896
 2803         c3     93    bbb     C5   2803 -0.11337700  12.010000   ; qtot 93.397519
 2804         hc     93    bbb     H9   2804 0.09515400   1.008000   ; qtot 93.492673
 2805         hc     93    bbb    H10   2805 0.09515400   1.008000   ; qtot 93.587827
 2806         c3     93    bbb     C6   2806 -0.11337700  12.010000   ; qtot 93.474450
 2807         hc     93    bbb    H11   2807 0.09515400   1.008000   ; qtot 93.569604
 2808         hc     93    bbb    H12   2808 0.09515400   1.008000   ; qtot 93.664758
 2809         c3     93    bbb     C7   2809 0.21842400  12.010000   ; qtot 93.883182
 2810         h1     93    bbb    H13   2810 0.04500300   1.008000   ; qtot 93.928185
 2811         h1     93    bbb    H14   2811 0.04500300   1.008000   ; qtot 93.973188
 2812         c3     93    bbb     C8   2812 -0.06455200  12.010000   ; qtot 93.908636
 2813         h1     93    bbb    H15   2813 0.13554100   1.008000   ; qtot 94.044177
 2814         h1     93    bbb    H16   2814 0.13554100   1.008000   ; qtot 94.179718
 2815         c3     93    bbb     C9   2815 -0.06455200  12.010000   ; qtot 94.115166
 2816         h1     93    bbb    H17   2816 0.13554100   1.008000   ; qtot 94.250707
 2817         h1     93    bbb    H18   2817 0.13554100   1.008000   ; qtot 94.386248
 2818         os     93    bbb     O1   2818 -0.62587700  16.000000   ; qtot 93.760371
 2819         hn     93    bbb    H19   2819 0.23982500   1.008000   ; qtot 94.000196
; residue   94 bbb rtp bbb q 1.0
 2820         n4     94    bbb     N1   2820 0.03726400  14.010000   ; qtot 94.037460
 2821         c3     94    bbb     C1   2821 -0.07020100  12.010000   ; qtot 93.967259
 2822         hx     94    bbb     H1   2822 0.12219000   1.008000   ; qtot 94.089449
 2823         hx     94    bbb     H2   2823 0.12219000   1.008000   ; qtot 94.211639
 2824         c3     94    bbb     C2   2824 -0.07020100  12.010000   ; qtot 94.141438
 2825         hx     94    bbb     H3   2825 0.12219000   1.008000   ; qtot 94.263628
 2826         hx     94    bbb     H4   2826 0.12219000   1.008000   ; qtot 94.385818
 2827         c3     94    bbb     C3   2827 -0.39007700  12.010000   ; qtot 93.995741
 2828         hx     94    bbb     H5   2828 0.14940300   1.008000   ; qtot 94.145144
 2829         hx     94    bbb     H6   2829 0.14940300   1.008000   ; qtot 94.294547
 2830         c3     94    bbb     C4   2830 0.18057300  12.010000   ; qtot 94.475120
 2831         hc     94    bbb     H7   2831 0.01788900   1.008000   ; qtot 94.493009
 2832         hc     94    bbb     H8   2832 0.01788900   1.008000   ; qtot 94.510898
 2833         c3     94    bbb     C5   2833 -0.11337700  12.010000   ; qtot 94.397521
 2834         hc     94    bbb     H9   2834 0.09515400   1.008000   ; qtot 94.492675
 2835         hc     94    bbb    H10   2835 0.09515400   1.008000   ; qtot 94.587829
 2836         c3     94    bbb     C6   2836 -0.11337700  12.010000   ; qtot 94.474452
 2837         hc     94    bbb    H11   2837 0.09515400   1.008000   ; qtot 94.569606
 2838         hc     94    bbb    H12   2838 0.09515400   1.008000   ; qtot 94.664760
 2839         c3     94    bbb     C7   2839 0.21842400  12.010000   ; qtot 94.883184
 2840         h1     94    bbb    H13   2840 0.04500300   1.008000   ; qtot 94.928187
 2841         h1     94    bbb    H14   2841 0.04500300   1.008000   ; qtot 94.973190
 2842         c3     94    bbb     C8   2842 -0.06455200  12.010000   ; qtot 94.908638
 2843         h1     94    bbb    H15   2843 0.13554100   1.008000   ; qtot 95.044179
 2844         h1     94    bbb    H16   2844 0.13554100   1.008000   ; qtot 95.179720
 2845         c3     94    bbb     C9   2845 -0.06455200  12.010000   ; qtot 95.115168
 2846         h1     94    bbb    H17   2846 0.13554100   1.008000   ; qtot 95.250709
 2847         h1     94    bbb    H18   2847 0.13554100   1.008000   ; qtot 95.386250
 2848         os     94    bbb     O1   2848 -0.62587700  16.000000   ; qtot 94.760373
 2849         hn     94    bbb    H19   2849 0.23982500   1.008000   ; qtot 95.000198
; residue   95 bbb rtp bbb q 1.0
 2850         n4     95    bbb     N1   2850 0.03726400  14.010000   ; qtot 95.037462
 2851         c3     95    bbb     C1   2851 -0.07020100  12.010000   ; qtot 94.967261
 2852         hx     95    bbb     H1   2852 0.12219000   1.008000   ; qtot 95.089451
 2853         hx     95    bbb     H2   2853 0.12219000   1.008000   ; qtot 95.211641
 2854         c3     95    bbb     C2   2854 -0.07020100  12.010000   ; qtot 95.141440
 2855         hx     95    bbb     H3   2855 0.12219000   1.008000   ; qtot 95.263630
 2856         hx     95    bbb     H4   2856 0.12219000   1.008000   ; qtot 95.385820
 2857         c3     95    bbb     C3   2857 -0.39007700  12.010000   ; qtot 94.995743
 2858         hx     95    bbb     H5   2858 0.14940300   1.008000   ; qtot 95.145146
 2859         hx     95    bbb     H6   2859 0.14940300   1.008000   ; qtot 95.294549
 2860         c3     95    bbb     C4   2860 0.18057300  12.010000   ; qtot 95.475122
 2861         hc     95    bbb     H7   2861 0.01788900   1.008000   ; qtot 95.493011
 2862         hc     95    bbb     H8   2862 0.01788900   1.008000   ; qtot 95.510900
 2863         c3     95    bbb     C5   2863 -0.11337700  12.010000   ; qtot 95.397523
 2864         hc     95    bbb     H9   2864 0.09515400   1.008000   ; qtot 95.492677
 2865         hc     95    bbb    H10   2865 0.09515400   1.008000   ; qtot 95.587831
 2866         c3     95    bbb     C6   2866 -0.11337700  12.010000   ; qtot 95.474454
 2867         hc     95    bbb    H11   2867 0.09515400   1.008000   ; qtot 95.569608
 2868         hc     95    bbb    H12   2868 0.09515400   1.008000   ; qtot 95.664762
 2869         c3     95    bbb     C7   2869 0.21842400  12.010000   ; qtot 95.883186
 2870         h1     95    bbb    H13   2870 0.04500300   1.008000   ; qtot 95.928189
 2871         h1     95    bbb    H14   2871 0.04500300   1.008000   ; qtot 95.973192
 2872         c3     95    bbb     C8   2872 -0.06455200  12.010000   ; qtot 95.908640
 2873         h1     95    bbb    H15   2873 0.13554100   1.008000   ; qtot 96.044181
 2874         h1     95    bbb    H16   2874 0.13554100   1.008000   ; qtot 96.179722
 2875         c3     95    bbb     C9   2875 -0.06455200  12.010000   ; qtot 96.115170
 2876         h1     95    bbb    H17   2876 0.13554100   1.008000   ; qtot 96.250711
 2877         h1     95    bbb    H18   2877 0.13554100   1.008000   ; qtot 96.386252
 2878         os     95    bbb     O1   2878 -0.62587700  16.000000   ; qtot 95.760375
 2879         hn     95    bbb    H19   2879 0.23982500   1.008000   ; qtot 96.000200
; residue   96 bbb rtp bbb q 1.0
 2880         n4     96    bbb     N1   2880 0.03726400  14.010000   ; qtot 96.037464
 2881         c3     96    bbb     C1   2881 -0.07020100  12.010000   ; qtot 95.967263
 2882         hx     96    bbb     H1   2882 0.12219000   1.008000   ; qtot 96.089453
 2883         hx     96    bbb     H2   2883 0.12219000   1.008000   ; qtot 96.211643
 2884         c3     96    bbb     C2   2884 -0.07020100  12.010000   ; qtot 96.141442
 2885         hx     96    bbb     H3   2885 0.12219000   1.008000   ; qtot 96.263632
 2886         hx     96    bbb     H4   2886 0.12219000   1.008000   ; qtot 96.385822
 2887         c3     96    bbb     C3   2887 -0.39007700  12.010000   ; qtot 95.995745
 2888         hx     96    bbb     H5   2888 0.14940300   1.008000   ; qtot 96.145148
 2889         hx     96    bbb     H6   2889 0.14940300   1.008000   ; qtot 96.294551
 2890         c3     96    bbb     C4   2890 0.18057300  12.010000   ; qtot 96.475124
 2891         hc     96    bbb     H7   2891 0.01788900   1.008000   ; qtot 96.493013
 2892         hc     96    bbb     H8   2892 0.01788900   1.008000   ; qtot 96.510902
 2893         c3     96    bbb     C5   2893 -0.11337700  12.010000   ; qtot 96.397525
 2894         hc     96    bbb     H9   2894 0.09515400   1.008000   ; qtot 96.492679
 2895         hc     96    bbb    H10   2895 0.09515400   1.008000   ; qtot 96.587833
 2896         c3     96    bbb     C6   2896 -0.11337700  12.010000   ; qtot 96.474456
 2897         hc     96    bbb    H11   2897 0.09515400   1.008000   ; qtot 96.569610
 2898         hc     96    bbb    H12   2898 0.09515400   1.008000   ; qtot 96.664764
 2899         c3     96    bbb     C7   2899 0.21842400  12.010000   ; qtot 96.883188
 2900         h1     96    bbb    H13   2900 0.04500300   1.008000   ; qtot 96.928191
 2901         h1     96    bbb    H14   2901 0.04500300   1.008000   ; qtot 96.973194
 2902         c3     96    bbb     C8   2902 -0.06455200  12.010000   ; qtot 96.908642
 2903         h1     96    bbb    H15   2903 0.13554100   1.008000   ; qtot 97.044183
 2904         h1     96    bbb    H16   2904 0.13554100   1.008000   ; qtot 97.179724
 2905         c3     96    bbb     C9   2905 -0.06455200  12.010000   ; qtot 97.115172
 2906         h1     96    bbb    H17   2906 0.13554100   1.008000   ; qtot 97.250713
 2907         h1     96    bbb    H18   2907 0.13554100   1.008000   ; qtot 97.386254
 2908         os     96    bbb     O1   2908 -0.62587700  16.000000   ; qtot 96.760377
 2909         hn     96    bbb    H19   2909 0.23982500   1.008000   ; qtot 97.000202
; residue   97 bbb rtp bbb q 1.0
 2910         n4     97    bbb     N1   2910 0.03726400  14.010000   ; qtot 97.037466
 2911         c3     97    bbb     C1   2911 -0.07020100  12.010000   ; qtot 96.967265
 2912         hx     97    bbb     H1   2912 0.12219000   1.008000   ; qtot 97.089455
 2913         hx     97    bbb     H2   2913 0.12219000   1.008000   ; qtot 97.211645
 2914         c3     97    bbb     C2   2914 -0.07020100  12.010000   ; qtot 97.141444
 2915         hx     97    bbb     H3   2915 0.12219000   1.008000   ; qtot 97.263634
 2916         hx     97    bbb     H4   2916 0.12219000   1.008000   ; qtot 97.385824
 2917         c3     97    bbb     C3   2917 -0.39007700  12.010000   ; qtot 96.995747
 2918         hx     97    bbb     H5   2918 0.14940300   1.008000   ; qtot 97.145150
 2919         hx     97    bbb     H6   2919 0.14940300   1.008000   ; qtot 97.294553
 2920         c3     97    bbb     C4   2920 0.18057300  12.010000   ; qtot 97.475126
 2921         hc     97    bbb     H7   2921 0.01788900   1.008000   ; qtot 97.493015
 2922         hc     97    bbb     H8   2922 0.01788900   1.008000   ; qtot 97.510904
 2923         c3     97    bbb     C5   2923 -0.11337700  12.010000   ; qtot 97.397527
 2924         hc     97    bbb     H9   2924 0.09515400   1.008000   ; qtot 97.492681
 2925         hc     97    bbb    H10   2925 0.09515400   1.008000   ; qtot 97.587835
 2926         c3     97    bbb     C6   2926 -0.11337700  12.010000   ; qtot 97.474458
 2927         hc     97    bbb    H11   2927 0.09515400   1.008000   ; qtot 97.569612
 2928         hc     97    bbb    H12   2928 0.09515400   1.008000   ; qtot 97.664766
 2929         c3     97    bbb     C7   2929 0.21842400  12.010000   ; qtot 97.883190
 2930         h1     97    bbb    H13   2930 0.04500300   1.008000   ; qtot 97.928193
 2931         h1     97    bbb    H14   2931 0.04500300   1.008000   ; qtot 97.973196
 2932         c3     97    bbb     C8   2932 -0.06455200  12.010000   ; qtot 97.908644
 2933         h1     97    bbb    H15   2933 0.13554100   1.008000   ; qtot 98.044185
 2934         h1     97    bbb    H16   2934 0.13554100   1.008000   ; qtot 98.179726
 2935         c3     97    bbb     C9   2935 -0.06455200  12.010000   ; qtot 98.115174
 2936         h1     97    bbb    H17   2936 0.13554100   1.008000   ; qtot 98.250715
 2937         h1     97    bbb    H18   2937 0.13554100   1.008000   ; qtot 98.386256
 2938         os     97    bbb     O1   2938 -0.62587700  16.000000   ; qtot 97.760379
 2939         hn     97    bbb    H19   2939 0.23982500   1.008000   ; qtot 98.000204
; residue   98 bbb rtp bbb q 1.0
 2940         n4     98    bbb     N1   2940 0.03726400  14.010000   ; qtot 98.037468
 2941         c3     98    bbb     C1   2941 -0.07020100  12.010000   ; qtot 97.967267
 2942         hx     98    bbb     H1   2942 0.12219000   1.008000   ; qtot 98.089457
 2943         hx     98    bbb     H2   2943 0.12219000   1.008000   ; qtot 98.211647
 2944         c3     98    bbb     C2   2944 -0.07020100  12.010000   ; qtot 98.141446
 2945         hx     98    bbb     H3   2945 0.12219000   1.008000   ; qtot 98.263636
 2946         hx     98    bbb     H4   2946 0.12219000   1.008000   ; qtot 98.385826
 2947         c3     98    bbb     C3   2947 -0.39007700  12.010000   ; qtot 97.995749
 2948         hx     98    bbb     H5   2948 0.14940300   1.008000   ; qtot 98.145152
 2949         hx     98    bbb     H6   2949 0.14940300   1.008000   ; qtot 98.294555
 2950         c3     98    bbb     C4   2950 0.18057300  12.010000   ; qtot 98.475128
 2951         hc     98    bbb     H7   2951 0.01788900   1.008000   ; qtot 98.493017
 2952         hc     98    bbb     H8   2952 0.01788900   1.008000   ; qtot 98.510906
 2953         c3     98    bbb     C5   2953 -0.11337700  12.010000   ; qtot 98.397529
 2954         hc     98    bbb     H9   2954 0.09515400   1.008000   ; qtot 98.492683
 2955         hc     98    bbb    H10   2955 0.09515400   1.008000   ; qtot 98.587837
 2956         c3     98    bbb     C6   2956 -0.11337700  12.010000   ; qtot 98.474460
 2957         hc     98    bbb    H11   2957 0.09515400   1.008000   ; qtot 98.569614
 2958         hc     98    bbb    H12   2958 0.09515400   1.008000   ; qtot 98.664768
 2959         c3     98    bbb     C7   2959 0.21842400  12.010000   ; qtot 98.883192
 2960         h1     98    bbb    H13   2960 0.04500300   1.008000   ; qtot 98.928195
 2961         h1     98    bbb    H14   2961 0.04500300   1.008000   ; qtot 98.973198
 2962         c3     98    bbb     C8   2962 -0.06455200  12.010000   ; qtot 98.908646
 2963         h1     98    bbb    H15   2963 0.13554100   1.008000   ; qtot 99.044187
 2964         h1     98    bbb    H16   2964 0.13554100   1.008000   ; qtot 99.179728
 2965         c3     98    bbb     C9   2965 -0.06455200  12.010000   ; qtot 99.115176
 2966         h1     98    bbb    H17   2966 0.13554100   1.008000   ; qtot 99.250717
 2967         h1     98    bbb    H18   2967 0.13554100   1.008000   ; qtot 99.386258
 2968         os     98    bbb     O1   2968 -0.62587700  16.000000   ; qtot 98.760381
 2969         hn     98    bbb    H19   2969 0.23982500   1.008000   ; qtot 99.000206
; residue   99 bbb rtp bbb q 1.0
 2970         n4     99    bbb     N1   2970 0.03726400  14.010000   ; qtot 99.037470
 2971         c3     99    bbb     C1   2971 -0.07020100  12.010000   ; qtot 98.967269
 2972         hx     99    bbb     H1   2972 0.12219000   1.008000   ; qtot 99.089459
 2973         hx     99    bbb     H2   2973 0.12219000   1.008000   ; qtot 99.211649
 2974         c3     99    bbb     C2   2974 -0.07020100  12.010000   ; qtot 99.141448
 2975         hx     99    bbb     H3   2975 0.12219000   1.008000   ; qtot 99.263638
 2976         hx     99    bbb     H4   2976 0.12219000   1.008000   ; qtot 99.385828
 2977         c3     99    bbb     C3   2977 -0.39007700  12.010000   ; qtot 98.995751
 2978         hx     99    bbb     H5   2978 0.14940300   1.008000   ; qtot 99.145154
 2979         hx     99    bbb     H6   2979 0.14940300   1.008000   ; qtot 99.294557
 2980         c3     99    bbb     C4   2980 0.18057300  12.010000   ; qtot 99.475130
 2981         hc     99    bbb     H7   2981 0.01788900   1.008000   ; qtot 99.493019
 2982         hc     99    bbb     H8   2982 0.01788900   1.008000   ; qtot 99.510908
 2983         c3     99    bbb     C5   2983 -0.11337700  12.010000   ; qtot 99.397531
 2984         hc     99    bbb     H9   2984 0.09515400   1.008000   ; qtot 99.492685
 2985         hc     99    bbb    H10   2985 0.09515400   1.008000   ; qtot 99.587839
 2986         c3     99    bbb     C6   2986 -0.11337700  12.010000   ; qtot 99.474462
 2987         hc     99    bbb    H11   2987 0.09515400   1.008000   ; qtot 99.569616
 2988         hc     99    bbb    H12   2988 0.09515400   1.008000   ; qtot 99.664770
 2989         c3     99    bbb     C7   2989 0.21842400  12.010000   ; qtot 99.883194
 2990         h1     99    bbb    H13   2990 0.04500300   1.008000   ; qtot 99.928197
 2991         h1     99    bbb    H14   2991 0.04500300   1.008000   ; qtot 99.973200
 2992         c3     99    bbb     C8   2992 -0.06455200  12.010000   ; qtot 99.908648
 2993         h1     99    bbb    H15   2993 0.13554100   1.008000   ; qtot 100.044189
 2994         h1     99    bbb    H16   2994 0.13554100   1.008000   ; qtot 100.179730
 2995         c3     99    bbb     C9   2995 -0.06455200  12.010000   ; qtot 100.115178
 2996         h1     99    bbb    H17   2996 0.13554100   1.008000   ; qtot 100.250719
 2997         h1     99    bbb    H18   2997 0.13554100   1.008000   ; qtot 100.386260
 2998         os     99    bbb     O1   2998 -0.62587700  16.000000   ; qtot 99.760383
 2999         hn     99    bbb    H19   2999 0.23982500   1.008000   ; qtot 100.000208
; residue  100 bbb rtp bbb q 1.0
 3000         n4    100    bbb     N1   3000 0.03726400  14.010000   ; qtot 100.037472
 3001         c3    100    bbb     C1   3001 -0.07020100  12.010000   ; qtot 99.967271
 3002         hx    100    bbb     H1   3002 0.12219000   1.008000   ; qtot 100.089461
 3003         hx    100    bbb     H2   3003 0.12219000   1.008000   ; qtot 100.211651
 3004         c3    100    bbb     C2   3004 -0.07020100  12.010000   ; qtot 100.141450
 3005         hx    100    bbb     H3   3005 0.12219000   1.008000   ; qtot 100.263640
 3006         hx    100    bbb     H4   3006 0.12219000   1.008000   ; qtot 100.385830
 3007         c3    100    bbb     C3   3007 -0.39007700  12.010000   ; qtot 99.995753
 3008         hx    100    bbb     H5   3008 0.14940300   1.008000   ; qtot 100.145156
 3009         hx    100    bbb     H6   3009 0.14940300   1.008000   ; qtot 100.294559
 3010         c3    100    bbb     C4   3010 0.18057300  12.010000   ; qtot 100.475132
 3011         hc    100    bbb     H7   3011 0.01788900   1.008000   ; qtot 100.493021
 3012         hc    100    bbb     H8   3012 0.01788900   1.008000   ; qtot 100.510910
 3013         c3    100    bbb     C5   3013 -0.11337700  12.010000   ; qtot 100.397533
 3014         hc    100    bbb     H9   3014 0.09515400   1.008000   ; qtot 100.492687
 3015         hc    100    bbb    H10   3015 0.09515400   1.008000   ; qtot 100.587841
 3016         c3    100    bbb     C6   3016 -0.11337700  12.010000   ; qtot 100.474464
 3017         hc    100    bbb    H11   3017 0.09515400   1.008000   ; qtot 100.569618
 3018         hc    100    bbb    H12   3018 0.09515400   1.008000   ; qtot 100.664772
 3019         c3    100    bbb     C7   3019 0.21842400  12.010000   ; qtot 100.883196
 3020         h1    100    bbb    H13   3020 0.04500300   1.008000   ; qtot 100.928199
 3021         h1    100    bbb    H14   3021 0.04500300   1.008000   ; qtot 100.973202
 3022         c3    100    bbb     C8   3022 -0.06455200  12.010000   ; qtot 100.908650
 3023         h1    100    bbb    H15   3023 0.13554100   1.008000   ; qtot 101.044191
 3024         h1    100    bbb    H16   3024 0.13554100   1.008000   ; qtot 101.179732
 3025         c3    100    bbb     C9   3025 -0.06455200  12.010000   ; qtot 101.115180
 3026         h1    100    bbb    H17   3026 0.13554100   1.008000   ; qtot 101.250721
 3027         h1    100    bbb    H18   3027 0.13554100   1.008000   ; qtot 101.386262
 3028         os    100    bbb     O1   3028 -0.62587700  16.000000   ; qtot 100.760385
 3029         hn    100    bbb    H19   3029 0.23982500   1.008000   ; qtot 101.000210
; residue  101 bbb rtp bbb q 1.0
 3030         n4    101    bbb     N1   3030 0.03726400  14.010000   ; qtot 101.037474
 3031         c3    101    bbb     C1   3031 -0.07020100  12.010000   ; qtot 100.967273
 3032         hx    101    bbb     H1   3032 0.12219000   1.008000   ; qtot 101.089463
 3033         hx    101    bbb     H2   3033 0.12219000   1.008000   ; qtot 101.211653
 3034         c3    101    bbb     C2   3034 -0.07020100  12.010000   ; qtot 101.141452
 3035         hx    101    bbb     H3   3035 0.12219000   1.008000   ; qtot 101.263642
 3036         hx    101    bbb     H4   3036 0.12219000   1.008000   ; qtot 101.385832
 3037         c3    101    bbb     C3   3037 -0.39007700  12.010000   ; qtot 100.995755
 3038         hx    101    bbb     H5   3038 0.14940300   1.008000   ; qtot 101.145158
 3039         hx    101    bbb     H6   3039 0.14940300   1.008000   ; qtot 101.294561
 3040         c3    101    bbb     C4   3040 0.18057300  12.010000   ; qtot 101.475134
 3041         hc    101    bbb     H7   3041 0.01788900   1.008000   ; qtot 101.493023
 3042         hc    101    bbb     H8   3042 0.01788900   1.008000   ; qtot 101.510912
 3043         c3    101    bbb     C5   3043 -0.11337700  12.010000   ; qtot 101.397535
 3044         hc    101    bbb     H9   3044 0.09515400   1.008000   ; qtot 101.492689
 3045         hc    101    bbb    H10   3045 0.09515400   1.008000   ; qtot 101.587843
 3046         c3    101    bbb     C6   3046 -0.11337700  12.010000   ; qtot 101.474466
 3047         hc    101    bbb    H11   3047 0.09515400   1.008000   ; qtot 101.569620
 3048         hc    101    bbb    H12   3048 0.09515400   1.008000   ; qtot 101.664774
 3049         c3    101    bbb     C7   3049 0.21842400  12.010000   ; qtot 101.883198
 3050         h1    101    bbb    H13   3050 0.04500300   1.008000   ; qtot 101.928201
 3051         h1    101    bbb    H14   3051 0.04500300   1.008000   ; qtot 101.973204
 3052         c3    101    bbb     C8   3052 -0.06455200  12.010000   ; qtot 101.908652
 3053         h1    101    bbb    H15   3053 0.13554100   1.008000   ; qtot 102.044193
 3054         h1    101    bbb    H16   3054 0.13554100   1.008000   ; qtot 102.179734
 3055         c3    101    bbb     C9   3055 -0.06455200  12.010000   ; qtot 102.115182
 3056         h1    101    bbb    H17   3056 0.13554100   1.008000   ; qtot 102.250723
 3057         h1    101    bbb    H18   3057 0.13554100   1.008000   ; qtot 102.386264
 3058         os    101    bbb     O1   3058 -0.62587700  16.000000   ; qtot 101.760387
 3059         hn    101    bbb    H19   3059 0.23982500   1.008000   ; qtot 102.000212
; residue  102 bbb rtp bbb q 1.0
 3060         n4    102    bbb     N1   3060 0.03726400  14.010000   ; qtot 102.037476
 3061         c3    102    bbb     C1   3061 -0.07020100  12.010000   ; qtot 101.967275
 3062         hx    102    bbb     H1   3062 0.12219000   1.008000   ; qtot 102.089465
 3063         hx    102    bbb     H2   3063 0.12219000   1.008000   ; qtot 102.211655
 3064         c3    102    bbb     C2   3064 -0.07020100  12.010000   ; qtot 102.141454
 3065         hx    102    bbb     H3   3065 0.12219000   1.008000   ; qtot 102.263644
 3066         hx    102    bbb     H4   3066 0.12219000   1.008000   ; qtot 102.385834
 3067         c3    102    bbb     C3   3067 -0.39007700  12.010000   ; qtot 101.995757
 3068         hx    102    bbb     H5   3068 0.14940300   1.008000   ; qtot 102.145160
 3069         hx    102    bbb     H6   3069 0.14940300   1.008000   ; qtot 102.294563
 3070         c3    102    bbb     C4   3070 0.18057300  12.010000   ; qtot 102.475136
 3071         hc    102    bbb     H7   3071 0.01788900   1.008000   ; qtot 102.493025
 3072         hc    102    bbb     H8   3072 0.01788900   1.008000   ; qtot 102.510914
 3073         c3    102    bbb     C5   3073 -0.11337700  12.010000   ; qtot 102.397537
 3074         hc    102    bbb     H9   3074 0.09515400   1.008000   ; qtot 102.492691
 3075         hc    102    bbb    H10   3075 0.09515400   1.008000   ; qtot 102.587845
 3076         c3    102    bbb     C6   3076 -0.11337700  12.010000   ; qtot 102.474468
 3077         hc    102    bbb    H11   3077 0.09515400   1.008000   ; qtot 102.569622
 3078         hc    102    bbb    H12   3078 0.09515400   1.008000   ; qtot 102.664776
 3079         c3    102    bbb     C7   3079 0.21842400  12.010000   ; qtot 102.883200
 3080         h1    102    bbb    H13   3080 0.04500300   1.008000   ; qtot 102.928203
 3081         h1    102    bbb    H14   3081 0.04500300   1.008000   ; qtot 102.973206
 3082         c3    102    bbb     C8   3082 -0.06455200  12.010000   ; qtot 102.908654
 3083         h1    102    bbb    H15   3083 0.13554100   1.008000   ; qtot 103.044195
 3084         h1    102    bbb    H16   3084 0.13554100   1.008000   ; qtot 103.179736
 3085         c3    102    bbb     C9   3085 -0.06455200  12.010000   ; qtot 103.115184
 3086         h1    102    bbb    H17   3086 0.13554100   1.008000   ; qtot 103.250725
 3087         h1    102    bbb    H18   3087 0.13554100   1.008000   ; qtot 103.386266
 3088         os    102    bbb     O1   3088 -0.62587700  16.000000   ; qtot 102.760389
 3089         hn    102    bbb    H19   3089 0.23982500   1.008000   ; qtot 103.000214
; residue  103 bbb rtp bbb q 1.0
 3090         n4    103    bbb     N1   3090 0.03726400  14.010000   ; qtot 103.037478
 3091         c3    103    bbb     C1   3091 -0.07020100  12.010000   ; qtot 102.967277
 3092         hx    103    bbb     H1   3092 0.12219000   1.008000   ; qtot 103.089467
 3093         hx    103    bbb     H2   3093 0.12219000   1.008000   ; qtot 103.211657
 3094         c3    103    bbb     C2   3094 -0.07020100  12.010000   ; qtot 103.141456
 3095         hx    103    bbb     H3   3095 0.12219000   1.008000   ; qtot 103.263646
 3096         hx    103    bbb     H4   3096 0.12219000   1.008000   ; qtot 103.385836
 3097         c3    103    bbb     C3   3097 -0.39007700  12.010000   ; qtot 102.995759
 3098         hx    103    bbb     H5   3098 0.14940300   1.008000   ; qtot 103.145162
 3099         hx    103    bbb     H6   3099 0.14940300   1.008000   ; qtot 103.294565
 3100         c3    103    bbb     C4   3100 0.18057300  12.010000   ; qtot 103.475138
 3101         hc    103    bbb     H7   3101 0.01788900   1.008000   ; qtot 103.493027
 3102         hc    103    bbb     H8   3102 0.01788900   1.008000   ; qtot 103.510916
 3103         c3    103    bbb     C5   3103 -0.11337700  12.010000   ; qtot 103.397539
 3104         hc    103    bbb     H9   3104 0.09515400   1.008000   ; qtot 103.492693
 3105         hc    103    bbb    H10   3105 0.09515400   1.008000   ; qtot 103.587847
 3106         c3    103    bbb     C6   3106 -0.11337700  12.010000   ; qtot 103.474470
 3107         hc    103    bbb    H11   3107 0.09515400   1.008000   ; qtot 103.569624
 3108         hc    103    bbb    H12   3108 0.09515400   1.008000   ; qtot 103.664778
 3109         c3    103    bbb     C7   3109 0.21842400  12.010000   ; qtot 103.883202
 3110         h1    103    bbb    H13   3110 0.04500300   1.008000   ; qtot 103.928205
 3111         h1    103    bbb    H14   3111 0.04500300   1.008000   ; qtot 103.973208
 3112         c3    103    bbb     C8   3112 -0.06455200  12.010000   ; qtot 103.908656
 3113         h1    103    bbb    H15   3113 0.13554100   1.008000   ; qtot 104.044197
 3114         h1    103    bbb    H16   3114 0.13554100   1.008000   ; qtot 104.179738
 3115         c3    103    bbb     C9   3115 -0.06455200  12.010000   ; qtot 104.115186
 3116         h1    103    bbb    H17   3116 0.13554100   1.008000   ; qtot 104.250727
 3117         h1    103    bbb    H18   3117 0.13554100   1.008000   ; qtot 104.386268
 3118         os    103    bbb     O1   3118 -0.62587700  16.000000   ; qtot 103.760391
 3119         hn    103    bbb    H19   3119 0.23982500   1.008000   ; qtot 104.000216
; residue  104 bbb rtp bbb q 1.0
 3120         n4    104    bbb     N1   3120 0.03726400  14.010000   ; qtot 104.037480
 3121         c3    104    bbb     C1   3121 -0.07020100  12.010000   ; qtot 103.967279
 3122         hx    104    bbb     H1   3122 0.12219000   1.008000   ; qtot 104.089469
 3123         hx    104    bbb     H2   3123 0.12219000   1.008000   ; qtot 104.211659
 3124         c3    104    bbb     C2   3124 -0.07020100  12.010000   ; qtot 104.141458
 3125         hx    104    bbb     H3   3125 0.12219000   1.008000   ; qtot 104.263648
 3126         hx    104    bbb     H4   3126 0.12219000   1.008000   ; qtot 104.385838
 3127         c3    104    bbb     C3   3127 -0.39007700  12.010000   ; qtot 103.995761
 3128         hx    104    bbb     H5   3128 0.14940300   1.008000   ; qtot 104.145164
 3129         hx    104    bbb     H6   3129 0.14940300   1.008000   ; qtot 104.294567
 3130         c3    104    bbb     C4   3130 0.18057300  12.010000   ; qtot 104.475140
 3131         hc    104    bbb     H7   3131 0.01788900   1.008000   ; qtot 104.493029
 3132         hc    104    bbb     H8   3132 0.01788900   1.008000   ; qtot 104.510918
 3133         c3    104    bbb     C5   3133 -0.11337700  12.010000   ; qtot 104.397541
 3134         hc    104    bbb     H9   3134 0.09515400   1.008000   ; qtot 104.492695
 3135         hc    104    bbb    H10   3135 0.09515400   1.008000   ; qtot 104.587849
 3136         c3    104    bbb     C6   3136 -0.11337700  12.010000   ; qtot 104.474472
 3137         hc    104    bbb    H11   3137 0.09515400   1.008000   ; qtot 104.569626
 3138         hc    104    bbb    H12   3138 0.09515400   1.008000   ; qtot 104.664780
 3139         c3    104    bbb     C7   3139 0.21842400  12.010000   ; qtot 104.883204
 3140         h1    104    bbb    H13   3140 0.04500300   1.008000   ; qtot 104.928207
 3141         h1    104    bbb    H14   3141 0.04500300   1.008000   ; qtot 104.973210
 3142         c3    104    bbb     C8   3142 -0.06455200  12.010000   ; qtot 104.908658
 3143         h1    104    bbb    H15   3143 0.13554100   1.008000   ; qtot 105.044199
 3144         h1    104    bbb    H16   3144 0.13554100   1.008000   ; qtot 105.179740
 3145         c3    104    bbb     C9   3145 -0.06455200  12.010000   ; qtot 105.115188
 3146         h1    104    bbb    H17   3146 0.13554100   1.008000   ; qtot 105.250729
 3147         h1    104    bbb    H18   3147 0.13554100   1.008000   ; qtot 105.386270
 3148         os    104    bbb     O1   3148 -0.62587700  16.000000   ; qtot 104.760393
 3149         hn    104    bbb    H19   3149 0.23982500   1.008000   ; qtot 105.000218
; residue  105 bbb rtp bbb q 1.0
 3150         n4    105    bbb     N1   3150 0.03726400  14.010000   ; qtot 105.037482
 3151         c3    105    bbb     C1   3151 -0.07020100  12.010000   ; qtot 104.967281
 3152         hx    105    bbb     H1   3152 0.12219000   1.008000   ; qtot 105.089471
 3153         hx    105    bbb     H2   3153 0.12219000   1.008000   ; qtot 105.211661
 3154         c3    105    bbb     C2   3154 -0.07020100  12.010000   ; qtot 105.141460
 3155         hx    105    bbb     H3   3155 0.12219000   1.008000   ; qtot 105.263650
 3156         hx    105    bbb     H4   3156 0.12219000   1.008000   ; qtot 105.385840
 3157         c3    105    bbb     C3   3157 -0.39007700  12.010000   ; qtot 104.995763
 3158         hx    105    bbb     H5   3158 0.14940300   1.008000   ; qtot 105.145166
 3159         hx    105    bbb     H6   3159 0.14940300   1.008000   ; qtot 105.294569
 3160         c3    105    bbb     C4   3160 0.18057300  12.010000   ; qtot 105.475142
 3161         hc    105    bbb     H7   3161 0.01788900   1.008000   ; qtot 105.493031
 3162         hc    105    bbb     H8   3162 0.01788900   1.008000   ; qtot 105.510920
 3163         c3    105    bbb     C5   3163 -0.11337700  12.010000   ; qtot 105.397543
 3164         hc    105    bbb     H9   3164 0.09515400   1.008000   ; qtot 105.492697
 3165         hc    105    bbb    H10   3165 0.09515400   1.008000   ; qtot 105.587851
 3166         c3    105    bbb     C6   3166 -0.11337700  12.010000   ; qtot 105.474474
 3167         hc    105    bbb    H11   3167 0.09515400   1.008000   ; qtot 105.569628
 3168         hc    105    bbb    H12   3168 0.09515400   1.008000   ; qtot 105.664782
 3169         c3    105    bbb     C7   3169 0.21842400  12.010000   ; qtot 105.883206
 3170         h1    105    bbb    H13   3170 0.04500300   1.008000   ; qtot 105.928209
 3171         h1    105    bbb    H14   3171 0.04500300   1.008000   ; qtot 105.973212
 3172         c3    105    bbb     C8   3172 -0.06455200  12.010000   ; qtot 105.908660
 3173         h1    105    bbb    H15   3173 0.13554100   1.008000   ; qtot 106.044201
 3174         h1    105    bbb    H16   3174 0.13554100   1.008000   ; qtot 106.179742
 3175         c3    105    bbb     C9   3175 -0.06455200  12.010000   ; qtot 106.115190
 3176         h1    105    bbb    H17   3176 0.13554100   1.008000   ; qtot 106.250731
 3177         h1    105    bbb    H18   3177 0.13554100   1.008000   ; qtot 106.386272
 3178         os    105    bbb     O1   3178 -0.62587700  16.000000   ; qtot 105.760395
 3179         hn    105    bbb    H19   3179 0.23982500   1.008000   ; qtot 106.000220
; residue  106 bbb rtp bbb q 1.0
 3180         n4    106    bbb     N1   3180 0.03726400  14.010000   ; qtot 106.037484
 3181         c3    106    bbb     C1   3181 -0.07020100  12.010000   ; qtot 105.967283
 3182         hx    106    bbb     H1   3182 0.12219000   1.008000   ; qtot 106.089473
 3183         hx    106    bbb     H2   3183 0.12219000   1.008000   ; qtot 106.211663
 3184         c3    106    bbb     C2   3184 -0.07020100  12.010000   ; qtot 106.141462
 3185         hx    106    bbb     H3   3185 0.12219000   1.008000   ; qtot 106.263652
 3186         hx    106    bbb     H4   3186 0.12219000   1.008000   ; qtot 106.385842
 3187         c3    106    bbb     C3   3187 -0.39007700  12.010000   ; qtot 105.995765
 3188         hx    106    bbb     H5   3188 0.14940300   1.008000   ; qtot 106.145168
 3189         hx    106    bbb     H6   3189 0.14940300   1.008000   ; qtot 106.294571
 3190         c3    106    bbb     C4   3190 0.18057300  12.010000   ; qtot 106.475144
 3191         hc    106    bbb     H7   3191 0.01788900   1.008000   ; qtot 106.493033
 3192         hc    106    bbb     H8   3192 0.01788900   1.008000   ; qtot 106.510922
 3193         c3    106    bbb     C5   3193 -0.11337700  12.010000   ; qtot 106.397545
 3194         hc    106    bbb     H9   3194 0.09515400   1.008000   ; qtot 106.492699
 3195         hc    106    bbb    H10   3195 0.09515400   1.008000   ; qtot 106.587853
 3196         c3    106    bbb     C6   3196 -0.11337700  12.010000   ; qtot 106.474476
 3197         hc    106    bbb    H11   3197 0.09515400   1.008000   ; qtot 106.569630
 3198         hc    106    bbb    H12   3198 0.09515400   1.008000   ; qtot 106.664784
 3199         c3    106    bbb     C7   3199 0.21842400  12.010000   ; qtot 106.883208
 3200         h1    106    bbb    H13   3200 0.04500300   1.008000   ; qtot 106.928211
 3201         h1    106    bbb    H14   3201 0.04500300   1.008000   ; qtot 106.973214
 3202         c3    106    bbb     C8   3202 -0.06455200  12.010000   ; qtot 106.908662
 3203         h1    106    bbb    H15   3203 0.13554100   1.008000   ; qtot 107.044203
 3204         h1    106    bbb    H16   3204 0.13554100   1.008000   ; qtot 107.179744
 3205         c3    106    bbb     C9   3205 -0.06455200  12.010000   ; qtot 107.115192
 3206         h1    106    bbb    H17   3206 0.13554100   1.008000   ; qtot 107.250733
 3207         h1    106    bbb    H18   3207 0.13554100   1.008000   ; qtot 107.386274
 3208         os    106    bbb     O1   3208 -0.62587700  16.000000   ; qtot 106.760397
 3209         hn    106    bbb    H19   3209 0.23982500   1.008000   ; qtot 107.000222
; residue  107 bbb rtp bbb q 1.0
 3210         n4    107    bbb     N1   3210 0.03726400  14.010000   ; qtot 107.037486
 3211         c3    107    bbb     C1   3211 -0.07020100  12.010000   ; qtot 106.967285
 3212         hx    107    bbb     H1   3212 0.12219000   1.008000   ; qtot 107.089475
 3213         hx    107    bbb     H2   3213 0.12219000   1.008000   ; qtot 107.211665
 3214         c3    107    bbb     C2   3214 -0.07020100  12.010000   ; qtot 107.141464
 3215         hx    107    bbb     H3   3215 0.12219000   1.008000   ; qtot 107.263654
 3216         hx    107    bbb     H4   3216 0.12219000   1.008000   ; qtot 107.385844
 3217         c3    107    bbb     C3   3217 -0.39007700  12.010000   ; qtot 106.995767
 3218         hx    107    bbb     H5   3218 0.14940300   1.008000   ; qtot 107.145170
 3219         hx    107    bbb     H6   3219 0.14940300   1.008000   ; qtot 107.294573
 3220         c3    107    bbb     C4   3220 0.18057300  12.010000   ; qtot 107.475146
 3221         hc    107    bbb     H7   3221 0.01788900   1.008000   ; qtot 107.493035
 3222         hc    107    bbb     H8   3222 0.01788900   1.008000   ; qtot 107.510924
 3223         c3    107    bbb     C5   3223 -0.11337700  12.010000   ; qtot 107.397547
 3224         hc    107    bbb     H9   3224 0.09515400   1.008000   ; qtot 107.492701
 3225         hc    107    bbb    H10   3225 0.09515400   1.008000   ; qtot 107.587855
 3226         c3    107    bbb     C6   3226 -0.11337700  12.010000   ; qtot 107.474478
 3227         hc    107    bbb    H11   3227 0.09515400   1.008000   ; qtot 107.569632
 3228         hc    107    bbb    H12   3228 0.09515400   1.008000   ; qtot 107.664786
 3229         c3    107    bbb     C7   3229 0.21842400  12.010000   ; qtot 107.883210
 3230         h1    107    bbb    H13   3230 0.04500300   1.008000   ; qtot 107.928213
 3231         h1    107    bbb    H14   3231 0.04500300   1.008000   ; qtot 107.973216
 3232         c3    107    bbb     C8   3232 -0.06455200  12.010000   ; qtot 107.908664
 3233         h1    107    bbb    H15   3233 0.13554100   1.008000   ; qtot 108.044205
 3234         h1    107    bbb    H16   3234 0.13554100   1.008000   ; qtot 108.179746
 3235         c3    107    bbb     C9   3235 -0.06455200  12.010000   ; qtot 108.115194
 3236         h1    107    bbb    H17   3236 0.13554100   1.008000   ; qtot 108.250735
 3237         h1    107    bbb    H18   3237 0.13554100   1.008000   ; qtot 108.386276
 3238         os    107    bbb     O1   3238 -0.62587700  16.000000   ; qtot 107.760399
 3239         hn    107    bbb    H19   3239 0.23982500   1.008000   ; qtot 108.000224
; residue  108 bbb rtp bbb q 1.0
 3240         n4    108    bbb     N1   3240 0.03726400  14.010000   ; qtot 108.037488
 3241         c3    108    bbb     C1   3241 -0.07020100  12.010000   ; qtot 107.967287
 3242         hx    108    bbb     H1   3242 0.12219000   1.008000   ; qtot 108.089477
 3243         hx    108    bbb     H2   3243 0.12219000   1.008000   ; qtot 108.211667
 3244         c3    108    bbb     C2   3244 -0.07020100  12.010000   ; qtot 108.141466
 3245         hx    108    bbb     H3   3245 0.12219000   1.008000   ; qtot 108.263656
 3246         hx    108    bbb     H4   3246 0.12219000   1.008000   ; qtot 108.385846
 3247         c3    108    bbb     C3   3247 -0.39007700  12.010000   ; qtot 107.995769
 3248         hx    108    bbb     H5   3248 0.14940300   1.008000   ; qtot 108.145172
 3249         hx    108    bbb     H6   3249 0.14940300   1.008000   ; qtot 108.294575
 3250         c3    108    bbb     C4   3250 0.18057300  12.010000   ; qtot 108.475148
 3251         hc    108    bbb     H7   3251 0.01788900   1.008000   ; qtot 108.493037
 3252         hc    108    bbb     H8   3252 0.01788900   1.008000   ; qtot 108.510926
 3253         c3    108    bbb     C5   3253 -0.11337700  12.010000   ; qtot 108.397549
 3254         hc    108    bbb     H9   3254 0.09515400   1.008000   ; qtot 108.492703
 3255         hc    108    bbb    H10   3255 0.09515400   1.008000   ; qtot 108.587857
 3256         c3    108    bbb     C6   3256 -0.11337700  12.010000   ; qtot 108.474480
 3257         hc    108    bbb    H11   3257 0.09515400   1.008000   ; qtot 108.569634
 3258         hc    108    bbb    H12   3258 0.09515400   1.008000   ; qtot 108.664788
 3259         c3    108    bbb     C7   3259 0.21842400  12.010000   ; qtot 108.883212
 3260         h1    108    bbb    H13   3260 0.04500300   1.008000   ; qtot 108.928215
 3261         h1    108    bbb    H14   3261 0.04500300   1.008000   ; qtot 108.973218
 3262         c3    108    bbb     C8   3262 -0.06455200  12.010000   ; qtot 108.908666
 3263         h1    108    bbb    H15   3263 0.13554100   1.008000   ; qtot 109.044207
 3264         h1    108    bbb    H16   3264 0.13554100   1.008000   ; qtot 109.179748
 3265         c3    108    bbb     C9   3265 -0.06455200  12.010000   ; qtot 109.115196
 3266         h1    108    bbb    H17   3266 0.13554100   1.008000   ; qtot 109.250737
 3267         h1    108    bbb    H18   3267 0.13554100   1.008000   ; qtot 109.386278
 3268         os    108    bbb     O1   3268 -0.62587700  16.000000   ; qtot 108.760401
 3269         hn    108    bbb    H19   3269 0.23982500   1.008000   ; qtot 109.000226
; residue  109 bbb rtp bbb q 1.0
 3270         n4    109    bbb     N1   3270 0.03726400  14.010000   ; qtot 109.037490
 3271         c3    109    bbb     C1   3271 -0.07020100  12.010000   ; qtot 108.967289
 3272         hx    109    bbb     H1   3272 0.12219000   1.008000   ; qtot 109.089479
 3273         hx    109    bbb     H2   3273 0.12219000   1.008000   ; qtot 109.211669
 3274         c3    109    bbb     C2   3274 -0.07020100  12.010000   ; qtot 109.141468
 3275         hx    109    bbb     H3   3275 0.12219000   1.008000   ; qtot 109.263658
 3276         hx    109    bbb     H4   3276 0.12219000   1.008000   ; qtot 109.385848
 3277         c3    109    bbb     C3   3277 -0.39007700  12.010000   ; qtot 108.995771
 3278         hx    109    bbb     H5   3278 0.14940300   1.008000   ; qtot 109.145174
 3279         hx    109    bbb     H6   3279 0.14940300   1.008000   ; qtot 109.294577
 3280         c3    109    bbb     C4   3280 0.18057300  12.010000   ; qtot 109.475150
 3281         hc    109    bbb     H7   3281 0.01788900   1.008000   ; qtot 109.493039
 3282         hc    109    bbb     H8   3282 0.01788900   1.008000   ; qtot 109.510928
 3283         c3    109    bbb     C5   3283 -0.11337700  12.010000   ; qtot 109.397551
 3284         hc    109    bbb     H9   3284 0.09515400   1.008000   ; qtot 109.492705
 3285         hc    109    bbb    H10   3285 0.09515400   1.008000   ; qtot 109.587859
 3286         c3    109    bbb     C6   3286 -0.11337700  12.010000   ; qtot 109.474482
 3287         hc    109    bbb    H11   3287 0.09515400   1.008000   ; qtot 109.569636
 3288         hc    109    bbb    H12   3288 0.09515400   1.008000   ; qtot 109.664790
 3289         c3    109    bbb     C7   3289 0.21842400  12.010000   ; qtot 109.883214
 3290         h1    109    bbb    H13   3290 0.04500300   1.008000   ; qtot 109.928217
 3291         h1    109    bbb    H14   3291 0.04500300   1.008000   ; qtot 109.973220
 3292         c3    109    bbb     C8   3292 -0.06455200  12.010000   ; qtot 109.908668
 3293         h1    109    bbb    H15   3293 0.13554100   1.008000   ; qtot 110.044209
 3294         h1    109    bbb    H16   3294 0.13554100   1.008000   ; qtot 110.179750
 3295         c3    109    bbb     C9   3295 -0.06455200  12.010000   ; qtot 110.115198
 3296         h1    109    bbb    H17   3296 0.13554100   1.008000   ; qtot 110.250739
 3297         h1    109    bbb    H18   3297 0.13554100   1.008000   ; qtot 110.386280
 3298         os    109    bbb     O1   3298 -0.62587700  16.000000   ; qtot 109.760403
 3299         hn    109    bbb    H19   3299 0.23982500   1.008000   ; qtot 110.000228
; residue  110 bbb rtp bbb q 1.0
 3300         n4    110    bbb     N1   3300 0.03726400  14.010000   ; qtot 110.037492
 3301         c3    110    bbb     C1   3301 -0.07020100  12.010000   ; qtot 109.967291
 3302         hx    110    bbb     H1   3302 0.12219000   1.008000   ; qtot 110.089481
 3303         hx    110    bbb     H2   3303 0.12219000   1.008000   ; qtot 110.211671
 3304         c3    110    bbb     C2   3304 -0.07020100  12.010000   ; qtot 110.141470
 3305         hx    110    bbb     H3   3305 0.12219000   1.008000   ; qtot 110.263660
 3306         hx    110    bbb     H4   3306 0.12219000   1.008000   ; qtot 110.385850
 3307         c3    110    bbb     C3   3307 -0.39007700  12.010000   ; qtot 109.995773
 3308         hx    110    bbb     H5   3308 0.14940300   1.008000   ; qtot 110.145176
 3309         hx    110    bbb     H6   3309 0.14940300   1.008000   ; qtot 110.294579
 3310         c3    110    bbb     C4   3310 0.18057300  12.010000   ; qtot 110.475152
 3311         hc    110    bbb     H7   3311 0.01788900   1.008000   ; qtot 110.493041
 3312         hc    110    bbb     H8   3312 0.01788900   1.008000   ; qtot 110.510930
 3313         c3    110    bbb     C5   3313 -0.11337700  12.010000   ; qtot 110.397553
 3314         hc    110    bbb     H9   3314 0.09515400   1.008000   ; qtot 110.492707
 3315         hc    110    bbb    H10   3315 0.09515400   1.008000   ; qtot 110.587861
 3316         c3    110    bbb     C6   3316 -0.11337700  12.010000   ; qtot 110.474484
 3317         hc    110    bbb    H11   3317 0.09515400   1.008000   ; qtot 110.569638
 3318         hc    110    bbb    H12   3318 0.09515400   1.008000   ; qtot 110.664792
 3319         c3    110    bbb     C7   3319 0.21842400  12.010000   ; qtot 110.883216
 3320         h1    110    bbb    H13   3320 0.04500300   1.008000   ; qtot 110.928219
 3321         h1    110    bbb    H14   3321 0.04500300   1.008000   ; qtot 110.973222
 3322         c3    110    bbb     C8   3322 -0.06455200  12.010000   ; qtot 110.908670
 3323         h1    110    bbb    H15   3323 0.13554100   1.008000   ; qtot 111.044211
 3324         h1    110    bbb    H16   3324 0.13554100   1.008000   ; qtot 111.179752
 3325         c3    110    bbb     C9   3325 -0.06455200  12.010000   ; qtot 111.115200
 3326         h1    110    bbb    H17   3326 0.13554100   1.008000   ; qtot 111.250741
 3327         h1    110    bbb    H18   3327 0.13554100   1.008000   ; qtot 111.386282
 3328         os    110    bbb     O1   3328 -0.62587700  16.000000   ; qtot 110.760405
 3329         hn    110    bbb    H19   3329 0.23982500   1.008000   ; qtot 111.000230
; residue  111 bbb rtp bbb q 1.0
 3330         n4    111    bbb     N1   3330 0.03726400  14.010000   ; qtot 111.037494
 3331         c3    111    bbb     C1   3331 -0.07020100  12.010000   ; qtot 110.967293
 3332         hx    111    bbb     H1   3332 0.12219000   1.008000   ; qtot 111.089483
 3333         hx    111    bbb     H2   3333 0.12219000   1.008000   ; qtot 111.211673
 3334         c3    111    bbb     C2   3334 -0.07020100  12.010000   ; qtot 111.141472
 3335         hx    111    bbb     H3   3335 0.12219000   1.008000   ; qtot 111.263662
 3336         hx    111    bbb     H4   3336 0.12219000   1.008000   ; qtot 111.385852
 3337         c3    111    bbb     C3   3337 -0.39007700  12.010000   ; qtot 110.995775
 3338         hx    111    bbb     H5   3338 0.14940300   1.008000   ; qtot 111.145178
 3339         hx    111    bbb     H6   3339 0.14940300   1.008000   ; qtot 111.294581
 3340         c3    111    bbb     C4   3340 0.18057300  12.010000   ; qtot 111.475154
 3341         hc    111    bbb     H7   3341 0.01788900   1.008000   ; qtot 111.493043
 3342         hc    111    bbb     H8   3342 0.01788900   1.008000   ; qtot 111.510932
 3343         c3    111    bbb     C5   3343 -0.11337700  12.010000   ; qtot 111.397555
 3344         hc    111    bbb     H9   3344 0.09515400   1.008000   ; qtot 111.492709
 3345         hc    111    bbb    H10   3345 0.09515400   1.008000   ; qtot 111.587863
 3346         c3    111    bbb     C6   3346 -0.11337700  12.010000   ; qtot 111.474486
 3347         hc    111    bbb    H11   3347 0.09515400   1.008000   ; qtot 111.569640
 3348         hc    111    bbb    H12   3348 0.09515400   1.008000   ; qtot 111.664794
 3349         c3    111    bbb     C7   3349 0.21842400  12.010000   ; qtot 111.883218
 3350         h1    111    bbb    H13   3350 0.04500300   1.008000   ; qtot 111.928221
 3351         h1    111    bbb    H14   3351 0.04500300   1.008000   ; qtot 111.973224
 3352         c3    111    bbb     C8   3352 -0.06455200  12.010000   ; qtot 111.908672
 3353         h1    111    bbb    H15   3353 0.13554100   1.008000   ; qtot 112.044213
 3354         h1    111    bbb    H16   3354 0.13554100   1.008000   ; qtot 112.179754
 3355         c3    111    bbb     C9   3355 -0.06455200  12.010000   ; qtot 112.115202
 3356         h1    111    bbb    H17   3356 0.13554100   1.008000   ; qtot 112.250743
 3357         h1    111    bbb    H18   3357 0.13554100   1.008000   ; qtot 112.386284
 3358         os    111    bbb     O1   3358 -0.62587700  16.000000   ; qtot 111.760407
 3359         hn    111    bbb    H19   3359 0.23982500   1.008000   ; qtot 112.000232
; residue  112 bbb rtp bbb q 1.0
 3360         n4    112    bbb     N1   3360 0.03726400  14.010000   ; qtot 112.037496
 3361         c3    112    bbb     C1   3361 -0.07020100  12.010000   ; qtot 111.967295
 3362         hx    112    bbb     H1   3362 0.12219000   1.008000   ; qtot 112.089485
 3363         hx    112    bbb     H2   3363 0.12219000   1.008000   ; qtot 112.211675
 3364         c3    112    bbb     C2   3364 -0.07020100  12.010000   ; qtot 112.141474
 3365         hx    112    bbb     H3   3365 0.12219000   1.008000   ; qtot 112.263664
 3366         hx    112    bbb     H4   3366 0.12219000   1.008000   ; qtot 112.385854
 3367         c3    112    bbb     C3   3367 -0.39007700  12.010000   ; qtot 111.995777
 3368         hx    112    bbb     H5   3368 0.14940300   1.008000   ; qtot 112.145180
 3369         hx    112    bbb     H6   3369 0.14940300   1.008000   ; qtot 112.294583
 3370         c3    112    bbb     C4   3370 0.18057300  12.010000   ; qtot 112.475156
 3371         hc    112    bbb     H7   3371 0.01788900   1.008000   ; qtot 112.493045
 3372         hc    112    bbb     H8   3372 0.01788900   1.008000   ; qtot 112.510934
 3373         c3    112    bbb     C5   3373 -0.11337700  12.010000   ; qtot 112.397557
 3374         hc    112    bbb     H9   3374 0.09515400   1.008000   ; qtot 112.492711
 3375         hc    112    bbb    H10   3375 0.09515400   1.008000   ; qtot 112.587865
 3376         c3    112    bbb     C6   3376 -0.11337700  12.010000   ; qtot 112.474488
 3377         hc    112    bbb    H11   3377 0.09515400   1.008000   ; qtot 112.569642
 3378         hc    112    bbb    H12   3378 0.09515400   1.008000   ; qtot 112.664796
 3379         c3    112    bbb     C7   3379 0.21842400  12.010000   ; qtot 112.883220
 3380         h1    112    bbb    H13   3380 0.04500300   1.008000   ; qtot 112.928223
 3381         h1    112    bbb    H14   3381 0.04500300   1.008000   ; qtot 112.973226
 3382         c3    112    bbb     C8   3382 -0.06455200  12.010000   ; qtot 112.908674
 3383         h1    112    bbb    H15   3383 0.13554100   1.008000   ; qtot 113.044215
 3384         h1    112    bbb    H16   3384 0.13554100   1.008000   ; qtot 113.179756
 3385         c3    112    bbb     C9   3385 -0.06455200  12.010000   ; qtot 113.115204
 3386         h1    112    bbb    H17   3386 0.13554100   1.008000   ; qtot 113.250745
 3387         h1    112    bbb    H18   3387 0.13554100   1.008000   ; qtot 113.386286
 3388         os    112    bbb     O1   3388 -0.62587700  16.000000   ; qtot 112.760409
 3389         hn    112    bbb    H19   3389 0.23982500   1.008000   ; qtot 113.000234
; residue  113 bbb rtp bbb q 1.0
 3390         n4    113    bbb     N1   3390 0.03726400  14.010000   ; qtot 113.037498
 3391         c3    113    bbb     C1   3391 -0.07020100  12.010000   ; qtot 112.967297
 3392         hx    113    bbb     H1   3392 0.12219000   1.008000   ; qtot 113.089487
 3393         hx    113    bbb     H2   3393 0.12219000   1.008000   ; qtot 113.211677
 3394         c3    113    bbb     C2   3394 -0.07020100  12.010000   ; qtot 113.141476
 3395         hx    113    bbb     H3   3395 0.12219000   1.008000   ; qtot 113.263666
 3396         hx    113    bbb     H4   3396 0.12219000   1.008000   ; qtot 113.385856
 3397         c3    113    bbb     C3   3397 -0.39007700  12.010000   ; qtot 112.995779
 3398         hx    113    bbb     H5   3398 0.14940300   1.008000   ; qtot 113.145182
 3399         hx    113    bbb     H6   3399 0.14940300   1.008000   ; qtot 113.294585
 3400         c3    113    bbb     C4   3400 0.18057300  12.010000   ; qtot 113.475158
 3401         hc    113    bbb     H7   3401 0.01788900   1.008000   ; qtot 113.493047
 3402         hc    113    bbb     H8   3402 0.01788900   1.008000   ; qtot 113.510936
 3403         c3    113    bbb     C5   3403 -0.11337700  12.010000   ; qtot 113.397559
 3404         hc    113    bbb     H9   3404 0.09515400   1.008000   ; qtot 113.492713
 3405         hc    113    bbb    H10   3405 0.09515400   1.008000   ; qtot 113.587867
 3406         c3    113    bbb     C6   3406 -0.11337700  12.010000   ; qtot 113.474490
 3407         hc    113    bbb    H11   3407 0.09515400   1.008000   ; qtot 113.569644
 3408         hc    113    bbb    H12   3408 0.09515400   1.008000   ; qtot 113.664798
 3409         c3    113    bbb     C7   3409 0.21842400  12.010000   ; qtot 113.883222
 3410         h1    113    bbb    H13   3410 0.04500300   1.008000   ; qtot 113.928225
 3411         h1    113    bbb    H14   3411 0.04500300   1.008000   ; qtot 113.973228
 3412         c3    113    bbb     C8   3412 -0.06455200  12.010000   ; qtot 113.908676
 3413         h1    113    bbb    H15   3413 0.13554100   1.008000   ; qtot 114.044217
 3414         h1    113    bbb    H16   3414 0.13554100   1.008000   ; qtot 114.179758
 3415         c3    113    bbb     C9   3415 -0.06455200  12.010000   ; qtot 114.115206
 3416         h1    113    bbb    H17   3416 0.13554100   1.008000   ; qtot 114.250747
 3417         h1    113    bbb    H18   3417 0.13554100   1.008000   ; qtot 114.386288
 3418         os    113    bbb     O1   3418 -0.62587700  16.000000   ; qtot 113.760411
 3419         hn    113    bbb    H19   3419 0.23982500   1.008000   ; qtot 114.000236
; residue  114 bbb rtp bbb q 1.0
 3420         n4    114    bbb     N1   3420 0.03726400  14.010000   ; qtot 114.037500
 3421         c3    114    bbb     C1   3421 -0.07020100  12.010000   ; qtot 113.967299
 3422         hx    114    bbb     H1   3422 0.12219000   1.008000   ; qtot 114.089489
 3423         hx    114    bbb     H2   3423 0.12219000   1.008000   ; qtot 114.211679
 3424         c3    114    bbb     C2   3424 -0.07020100  12.010000   ; qtot 114.141478
 3425         hx    114    bbb     H3   3425 0.12219000   1.008000   ; qtot 114.263668
 3426         hx    114    bbb     H4   3426 0.12219000   1.008000   ; qtot 114.385858
 3427         c3    114    bbb     C3   3427 -0.39007700  12.010000   ; qtot 113.995781
 3428         hx    114    bbb     H5   3428 0.14940300   1.008000   ; qtot 114.145184
 3429         hx    114    bbb     H6   3429 0.14940300   1.008000   ; qtot 114.294587
 3430         c3    114    bbb     C4   3430 0.18057300  12.010000   ; qtot 114.475160
 3431         hc    114    bbb     H7   3431 0.01788900   1.008000   ; qtot 114.493049
 3432         hc    114    bbb     H8   3432 0.01788900   1.008000   ; qtot 114.510938
 3433         c3    114    bbb     C5   3433 -0.11337700  12.010000   ; qtot 114.397561
 3434         hc    114    bbb     H9   3434 0.09515400   1.008000   ; qtot 114.492715
 3435         hc    114    bbb    H10   3435 0.09515400   1.008000   ; qtot 114.587869
 3436         c3    114    bbb     C6   3436 -0.11337700  12.010000   ; qtot 114.474492
 3437         hc    114    bbb    H11   3437 0.09515400   1.008000   ; qtot 114.569646
 3438         hc    114    bbb    H12   3438 0.09515400   1.008000   ; qtot 114.664800
 3439         c3    114    bbb     C7   3439 0.21842400  12.010000   ; qtot 114.883224
 3440         h1    114    bbb    H13   3440 0.04500300   1.008000   ; qtot 114.928227
 3441         h1    114    bbb    H14   3441 0.04500300   1.008000   ; qtot 114.973230
 3442         c3    114    bbb     C8   3442 -0.06455200  12.010000   ; qtot 114.908678
 3443         h1    114    bbb    H15   3443 0.13554100   1.008000   ; qtot 115.044219
 3444         h1    114    bbb    H16   3444 0.13554100   1.008000   ; qtot 115.179760
 3445         c3    114    bbb     C9   3445 -0.06455200  12.010000   ; qtot 115.115208
 3446         h1    114    bbb    H17   3446 0.13554100   1.008000   ; qtot 115.250749
 3447         h1    114    bbb    H18   3447 0.13554100   1.008000   ; qtot 115.386290
 3448         os    114    bbb     O1   3448 -0.62587700  16.000000   ; qtot 114.760413
 3449         hn    114    bbb    H19   3449 0.23982500   1.008000   ; qtot 115.000238
; residue  115 bbb rtp bbb q 1.0
 3450         n4    115    bbb     N1   3450 0.03726400  14.010000   ; qtot 115.037502
 3451         c3    115    bbb     C1   3451 -0.07020100  12.010000   ; qtot 114.967301
 3452         hx    115    bbb     H1   3452 0.12219000   1.008000   ; qtot 115.089491
 3453         hx    115    bbb     H2   3453 0.12219000   1.008000   ; qtot 115.211681
 3454         c3    115    bbb     C2   3454 -0.07020100  12.010000   ; qtot 115.141480
 3455         hx    115    bbb     H3   3455 0.12219000   1.008000   ; qtot 115.263670
 3456         hx    115    bbb     H4   3456 0.12219000   1.008000   ; qtot 115.385860
 3457         c3    115    bbb     C3   3457 -0.39007700  12.010000   ; qtot 114.995783
 3458         hx    115    bbb     H5   3458 0.14940300   1.008000   ; qtot 115.145186
 3459         hx    115    bbb     H6   3459 0.14940300   1.008000   ; qtot 115.294589
 3460         c3    115    bbb     C4   3460 0.18057300  12.010000   ; qtot 115.475162
 3461         hc    115    bbb     H7   3461 0.01788900   1.008000   ; qtot 115.493051
 3462         hc    115    bbb     H8   3462 0.01788900   1.008000   ; qtot 115.510940
 3463         c3    115    bbb     C5   3463 -0.11337700  12.010000   ; qtot 115.397563
 3464         hc    115    bbb     H9   3464 0.09515400   1.008000   ; qtot 115.492717
 3465         hc    115    bbb    H10   3465 0.09515400   1.008000   ; qtot 115.587871
 3466         c3    115    bbb     C6   3466 -0.11337700  12.010000   ; qtot 115.474494
 3467         hc    115    bbb    H11   3467 0.09515400   1.008000   ; qtot 115.569648
 3468         hc    115    bbb    H12   3468 0.09515400   1.008000   ; qtot 115.664802
 3469         c3    115    bbb     C7   3469 0.21842400  12.010000   ; qtot 115.883226
 3470         h1    115    bbb    H13   3470 0.04500300   1.008000   ; qtot 115.928229
 3471         h1    115    bbb    H14   3471 0.04500300   1.008000   ; qtot 115.973232
 3472         c3    115    bbb     C8   3472 -0.06455200  12.010000   ; qtot 115.908680
 3473         h1    115    bbb    H15   3473 0.13554100   1.008000   ; qtot 116.044221
 3474         h1    115    bbb    H16   3474 0.13554100   1.008000   ; qtot 116.179762
 3475         c3    115    bbb     C9   3475 -0.06455200  12.010000   ; qtot 116.115210
 3476         h1    115    bbb    H17   3476 0.13554100   1.008000   ; qtot 116.250751
 3477         h1    115    bbb    H18   3477 0.13554100   1.008000   ; qtot 116.386292
 3478         os    115    bbb     O1   3478 -0.62587700  16.000000   ; qtot 115.760415
 3479         hn    115    bbb    H19   3479 0.23982500   1.008000   ; qtot 116.000240
; residue  116 bbb rtp bbb q 1.0
 3480         n4    116    bbb     N1   3480 0.03726400  14.010000   ; qtot 116.037504
 3481         c3    116    bbb     C1   3481 -0.07020100  12.010000   ; qtot 115.967303
 3482         hx    116    bbb     H1   3482 0.12219000   1.008000   ; qtot 116.089493
 3483         hx    116    bbb     H2   3483 0.12219000   1.008000   ; qtot 116.211683
 3484         c3    116    bbb     C2   3484 -0.07020100  12.010000   ; qtot 116.141482
 3485         hx    116    bbb     H3   3485 0.12219000   1.008000   ; qtot 116.263672
 3486         hx    116    bbb     H4   3486 0.12219000   1.008000   ; qtot 116.385862
 3487         c3    116    bbb     C3   3487 -0.39007700  12.010000   ; qtot 115.995785
 3488         hx    116    bbb     H5   3488 0.14940300   1.008000   ; qtot 116.145188
 3489         hx    116    bbb     H6   3489 0.14940300   1.008000   ; qtot 116.294591
 3490         c3    116    bbb     C4   3490 0.18057300  12.010000   ; qtot 116.475164
 3491         hc    116    bbb     H7   3491 0.01788900   1.008000   ; qtot 116.493053
 3492         hc    116    bbb     H8   3492 0.01788900   1.008000   ; qtot 116.510942
 3493         c3    116    bbb     C5   3493 -0.11337700  12.010000   ; qtot 116.397565
 3494         hc    116    bbb     H9   3494 0.09515400   1.008000   ; qtot 116.492719
 3495         hc    116    bbb    H10   3495 0.09515400   1.008000   ; qtot 116.587873
 3496         c3    116    bbb     C6   3496 -0.11337700  12.010000   ; qtot 116.474496
 3497         hc    116    bbb    H11   3497 0.09515400   1.008000   ; qtot 116.569650
 3498         hc    116    bbb    H12   3498 0.09515400   1.008000   ; qtot 116.664804
 3499         c3    116    bbb     C7   3499 0.21842400  12.010000   ; qtot 116.883228
 3500         h1    116    bbb    H13   3500 0.04500300   1.008000   ; qtot 116.928231
 3501         h1    116    bbb    H14   3501 0.04500300   1.008000   ; qtot 116.973234
 3502         c3    116    bbb     C8   3502 -0.06455200  12.010000   ; qtot 116.908682
 3503         h1    116    bbb    H15   3503 0.13554100   1.008000   ; qtot 117.044223
 3504         h1    116    bbb    H16   3504 0.13554100   1.008000   ; qtot 117.179764
 3505         c3    116    bbb     C9   3505 -0.06455200  12.010000   ; qtot 117.115212
 3506         h1    116    bbb    H17   3506 0.13554100   1.008000   ; qtot 117.250753
 3507         h1    116    bbb    H18   3507 0.13554100   1.008000   ; qtot 117.386294
 3508         os    116    bbb     O1   3508 -0.62587700  16.000000   ; qtot 116.760417
 3509         hn    116    bbb    H19   3509 0.23982500   1.008000   ; qtot 117.000242
; residue  117 bbb rtp bbb q 1.0
 3510         n4    117    bbb     N1   3510 0.03726400  14.010000   ; qtot 117.037506
 3511         c3    117    bbb     C1   3511 -0.07020100  12.010000   ; qtot 116.967305
 3512         hx    117    bbb     H1   3512 0.12219000   1.008000   ; qtot 117.089495
 3513         hx    117    bbb     H2   3513 0.12219000   1.008000   ; qtot 117.211685
 3514         c3    117    bbb     C2   3514 -0.07020100  12.010000   ; qtot 117.141484
 3515         hx    117    bbb     H3   3515 0.12219000   1.008000   ; qtot 117.263674
 3516         hx    117    bbb     H4   3516 0.12219000   1.008000   ; qtot 117.385864
 3517         c3    117    bbb     C3   3517 -0.39007700  12.010000   ; qtot 116.995787
 3518         hx    117    bbb     H5   3518 0.14940300   1.008000   ; qtot 117.145190
 3519         hx    117    bbb     H6   3519 0.14940300   1.008000   ; qtot 117.294593
 3520         c3    117    bbb     C4   3520 0.18057300  12.010000   ; qtot 117.475166
 3521         hc    117    bbb     H7   3521 0.01788900   1.008000   ; qtot 117.493055
 3522         hc    117    bbb     H8   3522 0.01788900   1.008000   ; qtot 117.510944
 3523         c3    117    bbb     C5   3523 -0.11337700  12.010000   ; qtot 117.397567
 3524         hc    117    bbb     H9   3524 0.09515400   1.008000   ; qtot 117.492721
 3525         hc    117    bbb    H10   3525 0.09515400   1.008000   ; qtot 117.587875
 3526         c3    117    bbb     C6   3526 -0.11337700  12.010000   ; qtot 117.474498
 3527         hc    117    bbb    H11   3527 0.09515400   1.008000   ; qtot 117.569652
 3528         hc    117    bbb    H12   3528 0.09515400   1.008000   ; qtot 117.664806
 3529         c3    117    bbb     C7   3529 0.21842400  12.010000   ; qtot 117.883230
 3530         h1    117    bbb    H13   3530 0.04500300   1.008000   ; qtot 117.928233
 3531         h1    117    bbb    H14   3531 0.04500300   1.008000   ; qtot 117.973236
 3532         c3    117    bbb     C8   3532 -0.06455200  12.010000   ; qtot 117.908684
 3533         h1    117    bbb    H15   3533 0.13554100   1.008000   ; qtot 118.044225
 3534         h1    117    bbb    H16   3534 0.13554100   1.008000   ; qtot 118.179766
 3535         c3    117    bbb     C9   3535 -0.06455200  12.010000   ; qtot 118.115214
 3536         h1    117    bbb    H17   3536 0.13554100   1.008000   ; qtot 118.250755
 3537         h1    117    bbb    H18   3537 0.13554100   1.008000   ; qtot 118.386296
 3538         os    117    bbb     O1   3538 -0.62587700  16.000000   ; qtot 117.760419
 3539         hn    117    bbb    H19   3539 0.23982500   1.008000   ; qtot 118.000244
; residue  118 bbb rtp bbb q 1.0
 3540         n4    118    bbb     N1   3540 0.03726400  14.010000   ; qtot 118.037508
 3541         c3    118    bbb     C1   3541 -0.07020100  12.010000   ; qtot 117.967307
 3542         hx    118    bbb     H1   3542 0.12219000   1.008000   ; qtot 118.089497
 3543         hx    118    bbb     H2   3543 0.12219000   1.008000   ; qtot 118.211687
 3544         c3    118    bbb     C2   3544 -0.07020100  12.010000   ; qtot 118.141486
 3545         hx    118    bbb     H3   3545 0.12219000   1.008000   ; qtot 118.263676
 3546         hx    118    bbb     H4   3546 0.12219000   1.008000   ; qtot 118.385866
 3547         c3    118    bbb     C3   3547 -0.39007700  12.010000   ; qtot 117.995789
 3548         hx    118    bbb     H5   3548 0.14940300   1.008000   ; qtot 118.145192
 3549         hx    118    bbb     H6   3549 0.14940300   1.008000   ; qtot 118.294595
 3550         c3    118    bbb     C4   3550 0.18057300  12.010000   ; qtot 118.475168
 3551         hc    118    bbb     H7   3551 0.01788900   1.008000   ; qtot 118.493057
 3552         hc    118    bbb     H8   3552 0.01788900   1.008000   ; qtot 118.510946
 3553         c3    118    bbb     C5   3553 -0.11337700  12.010000   ; qtot 118.397569
 3554         hc    118    bbb     H9   3554 0.09515400   1.008000   ; qtot 118.492723
 3555         hc    118    bbb    H10   3555 0.09515400   1.008000   ; qtot 118.587877
 3556         c3    118    bbb     C6   3556 -0.11337700  12.010000   ; qtot 118.474500
 3557         hc    118    bbb    H11   3557 0.09515400   1.008000   ; qtot 118.569654
 3558         hc    118    bbb    H12   3558 0.09515400   1.008000   ; qtot 118.664808
 3559         c3    118    bbb     C7   3559 0.21842400  12.010000   ; qtot 118.883232
 3560         h1    118    bbb    H13   3560 0.04500300   1.008000   ; qtot 118.928235
 3561         h1    118    bbb    H14   3561 0.04500300   1.008000   ; qtot 118.973238
 3562         c3    118    bbb     C8   3562 -0.06455200  12.010000   ; qtot 118.908686
 3563         h1    118    bbb    H15   3563 0.13554100   1.008000   ; qtot 119.044227
 3564         h1    118    bbb    H16   3564 0.13554100   1.008000   ; qtot 119.179768
 3565         c3    118    bbb     C9   3565 -0.06455200  12.010000   ; qtot 119.115216
 3566         h1    118    bbb    H17   3566 0.13554100   1.008000   ; qtot 119.250757
 3567         h1    118    bbb    H18   3567 0.13554100   1.008000   ; qtot 119.386298
 3568         os    118    bbb     O1   3568 -0.62587700  16.000000   ; qtot 118.760421
 3569         hn    118    bbb    H19   3569 0.23982500   1.008000   ; qtot 119.000246
; residue  119 bbb rtp bbb q 1.0
 3570         n4    119    bbb     N1   3570 0.03726400  14.010000   ; qtot 119.037510
 3571         c3    119    bbb     C1   3571 -0.07020100  12.010000   ; qtot 118.967309
 3572         hx    119    bbb     H1   3572 0.12219000   1.008000   ; qtot 119.089499
 3573         hx    119    bbb     H2   3573 0.12219000   1.008000   ; qtot 119.211689
 3574         c3    119    bbb     C2   3574 -0.07020100  12.010000   ; qtot 119.141488
 3575         hx    119    bbb     H3   3575 0.12219000   1.008000   ; qtot 119.263678
 3576         hx    119    bbb     H4   3576 0.12219000   1.008000   ; qtot 119.385868
 3577         c3    119    bbb     C3   3577 -0.39007700  12.010000   ; qtot 118.995791
 3578         hx    119    bbb     H5   3578 0.14940300   1.008000   ; qtot 119.145194
 3579         hx    119    bbb     H6   3579 0.14940300   1.008000   ; qtot 119.294597
 3580         c3    119    bbb     C4   3580 0.18057300  12.010000   ; qtot 119.475170
 3581         hc    119    bbb     H7   3581 0.01788900   1.008000   ; qtot 119.493059
 3582         hc    119    bbb     H8   3582 0.01788900   1.008000   ; qtot 119.510948
 3583         c3    119    bbb     C5   3583 -0.11337700  12.010000   ; qtot 119.397571
 3584         hc    119    bbb     H9   3584 0.09515400   1.008000   ; qtot 119.492725
 3585         hc    119    bbb    H10   3585 0.09515400   1.008000   ; qtot 119.587879
 3586         c3    119    bbb     C6   3586 -0.11337700  12.010000   ; qtot 119.474502
 3587         hc    119    bbb    H11   3587 0.09515400   1.008000   ; qtot 119.569656
 3588         hc    119    bbb    H12   3588 0.09515400   1.008000   ; qtot 119.664810
 3589         c3    119    bbb     C7   3589 0.21842400  12.010000   ; qtot 119.883234
 3590         h1    119    bbb    H13   3590 0.04500300   1.008000   ; qtot 119.928237
 3591         h1    119    bbb    H14   3591 0.04500300   1.008000   ; qtot 119.973240
 3592         c3    119    bbb     C8   3592 -0.06455200  12.010000   ; qtot 119.908688
 3593         h1    119    bbb    H15   3593 0.13554100   1.008000   ; qtot 120.044229
 3594         h1    119    bbb    H16   3594 0.13554100   1.008000   ; qtot 120.179770
 3595         c3    119    bbb     C9   3595 -0.06455200  12.010000   ; qtot 120.115218
 3596         h1    119    bbb    H17   3596 0.13554100   1.008000   ; qtot 120.250759
 3597         h1    119    bbb    H18   3597 0.13554100   1.008000   ; qtot 120.386300
 3598         os    119    bbb     O1   3598 -0.62587700  16.000000   ; qtot 119.760423
 3599         hn    119    bbb    H19   3599 0.23982500   1.008000   ; qtot 120.000248
; residue  120 bbb rtp bbb q 1.0
 3600         n4    120    bbb     N1   3600 0.03726400  14.010000   ; qtot 120.037512
 3601         c3    120    bbb     C1   3601 -0.07020100  12.010000   ; qtot 119.967311
 3602         hx    120    bbb     H1   3602 0.12219000   1.008000   ; qtot 120.089501
 3603         hx    120    bbb     H2   3603 0.12219000   1.008000   ; qtot 120.211691
 3604         c3    120    bbb     C2   3604 -0.07020100  12.010000   ; qtot 120.141490
 3605         hx    120    bbb     H3   3605 0.12219000   1.008000   ; qtot 120.263680
 3606         hx    120    bbb     H4   3606 0.12219000   1.008000   ; qtot 120.385870
 3607         c3    120    bbb     C3   3607 -0.39007700  12.010000   ; qtot 119.995793
 3608         hx    120    bbb     H5   3608 0.14940300   1.008000   ; qtot 120.145196
 3609         hx    120    bbb     H6   3609 0.14940300   1.008000   ; qtot 120.294599
 3610         c3    120    bbb     C4   3610 0.18057300  12.010000   ; qtot 120.475172
 3611         hc    120    bbb     H7   3611 0.01788900   1.008000   ; qtot 120.493061
 3612         hc    120    bbb     H8   3612 0.01788900   1.008000   ; qtot 120.510950
 3613         c3    120    bbb     C5   3613 -0.11337700  12.010000   ; qtot 120.397573
 3614         hc    120    bbb     H9   3614 0.09515400   1.008000   ; qtot 120.492727
 3615         hc    120    bbb    H10   3615 0.09515400   1.008000   ; qtot 120.587881
 3616         c3    120    bbb     C6   3616 -0.11337700  12.010000   ; qtot 120.474504
 3617         hc    120    bbb    H11   3617 0.09515400   1.008000   ; qtot 120.569658
 3618         hc    120    bbb    H12   3618 0.09515400   1.008000   ; qtot 120.664812
 3619         c3    120    bbb     C7   3619 0.21842400  12.010000   ; qtot 120.883236
 3620         h1    120    bbb    H13   3620 0.04500300   1.008000   ; qtot 120.928239
 3621         h1    120    bbb    H14   3621 0.04500300   1.008000   ; qtot 120.973242
 3622         c3    120    bbb     C8   3622 -0.06455200  12.010000   ; qtot 120.908690
 3623         h1    120    bbb    H15   3623 0.13554100   1.008000   ; qtot 121.044231
 3624         h1    120    bbb    H16   3624 0.13554100   1.008000   ; qtot 121.179772
 3625         c3    120    bbb     C9   3625 -0.06455200  12.010000   ; qtot 121.115220
 3626         h1    120    bbb    H17   3626 0.13554100   1.008000   ; qtot 121.250761
 3627         h1    120    bbb    H18   3627 0.13554100   1.008000   ; qtot 121.386302
 3628         os    120    bbb     O1   3628 -0.62587700  16.000000   ; qtot 120.760425
 3629         hn    120    bbb    H19   3629 0.23982500   1.008000   ; qtot 121.000250
; residue  121 bbb rtp bbb q 1.0
 3630         n4    121    bbb     N1   3630 0.03726400  14.010000   ; qtot 121.037514
 3631         c3    121    bbb     C1   3631 -0.07020100  12.010000   ; qtot 120.967313
 3632         hx    121    bbb     H1   3632 0.12219000   1.008000   ; qtot 121.089503
 3633         hx    121    bbb     H2   3633 0.12219000   1.008000   ; qtot 121.211693
 3634         c3    121    bbb     C2   3634 -0.07020100  12.010000   ; qtot 121.141492
 3635         hx    121    bbb     H3   3635 0.12219000   1.008000   ; qtot 121.263682
 3636         hx    121    bbb     H4   3636 0.12219000   1.008000   ; qtot 121.385872
 3637         c3    121    bbb     C3   3637 -0.39007700  12.010000   ; qtot 120.995795
 3638         hx    121    bbb     H5   3638 0.14940300   1.008000   ; qtot 121.145198
 3639         hx    121    bbb     H6   3639 0.14940300   1.008000   ; qtot 121.294601
 3640         c3    121    bbb     C4   3640 0.18057300  12.010000   ; qtot 121.475174
 3641         hc    121    bbb     H7   3641 0.01788900   1.008000   ; qtot 121.493063
 3642         hc    121    bbb     H8   3642 0.01788900   1.008000   ; qtot 121.510952
 3643         c3    121    bbb     C5   3643 -0.11337700  12.010000   ; qtot 121.397575
 3644         hc    121    bbb     H9   3644 0.09515400   1.008000   ; qtot 121.492729
 3645         hc    121    bbb    H10   3645 0.09515400   1.008000   ; qtot 121.587883
 3646         c3    121    bbb     C6   3646 -0.11337700  12.010000   ; qtot 121.474506
 3647         hc    121    bbb    H11   3647 0.09515400   1.008000   ; qtot 121.569660
 3648         hc    121    bbb    H12   3648 0.09515400   1.008000   ; qtot 121.664814
 3649         c3    121    bbb     C7   3649 0.21842400  12.010000   ; qtot 121.883238
 3650         h1    121    bbb    H13   3650 0.04500300   1.008000   ; qtot 121.928241
 3651         h1    121    bbb    H14   3651 0.04500300   1.008000   ; qtot 121.973244
 3652         c3    121    bbb     C8   3652 -0.06455200  12.010000   ; qtot 121.908692
 3653         h1    121    bbb    H15   3653 0.13554100   1.008000   ; qtot 122.044233
 3654         h1    121    bbb    H16   3654 0.13554100   1.008000   ; qtot 122.179774
 3655         c3    121    bbb     C9   3655 -0.06455200  12.010000   ; qtot 122.115222
 3656         h1    121    bbb    H17   3656 0.13554100   1.008000   ; qtot 122.250763
 3657         h1    121    bbb    H18   3657 0.13554100   1.008000   ; qtot 122.386304
 3658         os    121    bbb     O1   3658 -0.62587700  16.000000   ; qtot 121.760427
 3659         hn    121    bbb    H19   3659 0.23982500   1.008000   ; qtot 122.000252
; residue  122 bbb rtp bbb q 1.0
 3660         n4    122    bbb     N1   3660 0.03726400  14.010000   ; qtot 122.037516
 3661         c3    122    bbb     C1   3661 -0.07020100  12.010000   ; qtot 121.967315
 3662         hx    122    bbb     H1   3662 0.12219000   1.008000   ; qtot 122.089505
 3663         hx    122    bbb     H2   3663 0.12219000   1.008000   ; qtot 122.211695
 3664         c3    122    bbb     C2   3664 -0.07020100  12.010000   ; qtot 122.141494
 3665         hx    122    bbb     H3   3665 0.12219000   1.008000   ; qtot 122.263684
 3666         hx    122    bbb     H4   3666 0.12219000   1.008000   ; qtot 122.385874
 3667         c3    122    bbb     C3   3667 -0.39007700  12.010000   ; qtot 121.995797
 3668         hx    122    bbb     H5   3668 0.14940300   1.008000   ; qtot 122.145200
 3669         hx    122    bbb     H6   3669 0.14940300   1.008000   ; qtot 122.294603
 3670         c3    122    bbb     C4   3670 0.18057300  12.010000   ; qtot 122.475176
 3671         hc    122    bbb     H7   3671 0.01788900   1.008000   ; qtot 122.493065
 3672         hc    122    bbb     H8   3672 0.01788900   1.008000   ; qtot 122.510954
 3673         c3    122    bbb     C5   3673 -0.11337700  12.010000   ; qtot 122.397577
 3674         hc    122    bbb     H9   3674 0.09515400   1.008000   ; qtot 122.492731
 3675         hc    122    bbb    H10   3675 0.09515400   1.008000   ; qtot 122.587885
 3676         c3    122    bbb     C6   3676 -0.11337700  12.010000   ; qtot 122.474508
 3677         hc    122    bbb    H11   3677 0.09515400   1.008000   ; qtot 122.569662
 3678         hc    122    bbb    H12   3678 0.09515400   1.008000   ; qtot 122.664816
 3679         c3    122    bbb     C7   3679 0.21842400  12.010000   ; qtot 122.883240
 3680         h1    122    bbb    H13   3680 0.04500300   1.008000   ; qtot 122.928243
 3681         h1    122    bbb    H14   3681 0.04500300   1.008000   ; qtot 122.973246
 3682         c3    122    bbb     C8   3682 -0.06455200  12.010000   ; qtot 122.908694
 3683         h1    122    bbb    H15   3683 0.13554100   1.008000   ; qtot 123.044235
 3684         h1    122    bbb    H16   3684 0.13554100   1.008000   ; qtot 123.179776
 3685         c3    122    bbb     C9   3685 -0.06455200  12.010000   ; qtot 123.115224
 3686         h1    122    bbb    H17   3686 0.13554100   1.008000   ; qtot 123.250765
 3687         h1    122    bbb    H18   3687 0.13554100   1.008000   ; qtot 123.386306
 3688         os    122    bbb     O1   3688 -0.62587700  16.000000   ; qtot 122.760429
 3689         hn    122    bbb    H19   3689 0.23982500   1.008000   ; qtot 123.000254
; residue  123 bbb rtp bbb q 1.0
 3690         n4    123    bbb     N1   3690 0.03726400  14.010000   ; qtot 123.037518
 3691         c3    123    bbb     C1   3691 -0.07020100  12.010000   ; qtot 122.967317
 3692         hx    123    bbb     H1   3692 0.12219000   1.008000   ; qtot 123.089507
 3693         hx    123    bbb     H2   3693 0.12219000   1.008000   ; qtot 123.211697
 3694         c3    123    bbb     C2   3694 -0.07020100  12.010000   ; qtot 123.141496
 3695         hx    123    bbb     H3   3695 0.12219000   1.008000   ; qtot 123.263686
 3696         hx    123    bbb     H4   3696 0.12219000   1.008000   ; qtot 123.385876
 3697         c3    123    bbb     C3   3697 -0.39007700  12.010000   ; qtot 122.995799
 3698         hx    123    bbb     H5   3698 0.14940300   1.008000   ; qtot 123.145202
 3699         hx    123    bbb     H6   3699 0.14940300   1.008000   ; qtot 123.294605
 3700         c3    123    bbb     C4   3700 0.18057300  12.010000   ; qtot 123.475178
 3701         hc    123    bbb     H7   3701 0.01788900   1.008000   ; qtot 123.493067
 3702         hc    123    bbb     H8   3702 0.01788900   1.008000   ; qtot 123.510956
 3703         c3    123    bbb     C5   3703 -0.11337700  12.010000   ; qtot 123.397579
 3704         hc    123    bbb     H9   3704 0.09515400   1.008000   ; qtot 123.492733
 3705         hc    123    bbb    H10   3705 0.09515400   1.008000   ; qtot 123.587887
 3706         c3    123    bbb     C6   3706 -0.11337700  12.010000   ; qtot 123.474510
 3707         hc    123    bbb    H11   3707 0.09515400   1.008000   ; qtot 123.569664
 3708         hc    123    bbb    H12   3708 0.09515400   1.008000   ; qtot 123.664818
 3709         c3    123    bbb     C7   3709 0.21842400  12.010000   ; qtot 123.883242
 3710         h1    123    bbb    H13   3710 0.04500300   1.008000   ; qtot 123.928245
 3711         h1    123    bbb    H14   3711 0.04500300   1.008000   ; qtot 123.973248
 3712         c3    123    bbb     C8   3712 -0.06455200  12.010000   ; qtot 123.908696
 3713         h1    123    bbb    H15   3713 0.13554100   1.008000   ; qtot 124.044237
 3714         h1    123    bbb    H16   3714 0.13554100   1.008000   ; qtot 124.179778
 3715         c3    123    bbb     C9   3715 -0.06455200  12.010000   ; qtot 124.115226
 3716         h1    123    bbb    H17   3716 0.13554100   1.008000   ; qtot 124.250767
 3717         h1    123    bbb    H18   3717 0.13554100   1.008000   ; qtot 124.386308
 3718         os    123    bbb     O1   3718 -0.62587700  16.000000   ; qtot 123.760431
 3719         hn    123    bbb    H19   3719 0.23982500   1.008000   ; qtot 124.000256
; residue  124 bbb rtp bbb q 1.0
 3720         n4    124    bbb     N1   3720 0.03726400  14.010000   ; qtot 124.037520
 3721         c3    124    bbb     C1   3721 -0.07020100  12.010000   ; qtot 123.967319
 3722         hx    124    bbb     H1   3722 0.12219000   1.008000   ; qtot 124.089509
 3723         hx    124    bbb     H2   3723 0.12219000   1.008000   ; qtot 124.211699
 3724         c3    124    bbb     C2   3724 -0.07020100  12.010000   ; qtot 124.141498
 3725         hx    124    bbb     H3   3725 0.12219000   1.008000   ; qtot 124.263688
 3726         hx    124    bbb     H4   3726 0.12219000   1.008000   ; qtot 124.385878
 3727         c3    124    bbb     C3   3727 -0.39007700  12.010000   ; qtot 123.995801
 3728         hx    124    bbb     H5   3728 0.14940300   1.008000   ; qtot 124.145204
 3729         hx    124    bbb     H6   3729 0.14940300   1.008000   ; qtot 124.294607
 3730         c3    124    bbb     C4   3730 0.18057300  12.010000   ; qtot 124.475180
 3731         hc    124    bbb     H7   3731 0.01788900   1.008000   ; qtot 124.493069
 3732         hc    124    bbb     H8   3732 0.01788900   1.008000   ; qtot 124.510958
 3733         c3    124    bbb     C5   3733 -0.11337700  12.010000   ; qtot 124.397581
 3734         hc    124    bbb     H9   3734 0.09515400   1.008000   ; qtot 124.492735
 3735         hc    124    bbb    H10   3735 0.09515400   1.008000   ; qtot 124.587889
 3736         c3    124    bbb     C6   3736 -0.11337700  12.010000   ; qtot 124.474512
 3737         hc    124    bbb    H11   3737 0.09515400   1.008000   ; qtot 124.569666
 3738         hc    124    bbb    H12   3738 0.09515400   1.008000   ; qtot 124.664820
 3739         c3    124    bbb     C7   3739 0.21842400  12.010000   ; qtot 124.883244
 3740         h1    124    bbb    H13   3740 0.04500300   1.008000   ; qtot 124.928247
 3741         h1    124    bbb    H14   3741 0.04500300   1.008000   ; qtot 124.973250
 3742         c3    124    bbb     C8   3742 -0.06455200  12.010000   ; qtot 124.908698
 3743         h1    124    bbb    H15   3743 0.13554100   1.008000   ; qtot 125.044239
 3744         h1    124    bbb    H16   3744 0.13554100   1.008000   ; qtot 125.179780
 3745         c3    124    bbb     C9   3745 -0.06455200  12.010000   ; qtot 125.115228
 3746         h1    124    bbb    H17   3746 0.13554100   1.008000   ; qtot 125.250769
 3747         h1    124    bbb    H18   3747 0.13554100   1.008000   ; qtot 125.386310
 3748         os    124    bbb     O1   3748 -0.62587700  16.000000   ; qtot 124.760433
 3749         hn    124    bbb    H19   3749 0.23982500   1.008000   ; qtot 125.000258
; residue  125 bbb rtp bbb q 1.0
 3750         n4    125    bbb     N1   3750 0.03726400  14.010000   ; qtot 125.037522
 3751         c3    125    bbb     C1   3751 -0.07020100  12.010000   ; qtot 124.967321
 3752         hx    125    bbb     H1   3752 0.12219000   1.008000   ; qtot 125.089511
 3753         hx    125    bbb     H2   3753 0.12219000   1.008000   ; qtot 125.211701
 3754         c3    125    bbb     C2   3754 -0.07020100  12.010000   ; qtot 125.141500
 3755         hx    125    bbb     H3   3755 0.12219000   1.008000   ; qtot 125.263690
 3756         hx    125    bbb     H4   3756 0.12219000   1.008000   ; qtot 125.385880
 3757         c3    125    bbb     C3   3757 -0.39007700  12.010000   ; qtot 124.995803
 3758         hx    125    bbb     H5   3758 0.14940300   1.008000   ; qtot 125.145206
 3759         hx    125    bbb     H6   3759 0.14940300   1.008000   ; qtot 125.294609
 3760         c3    125    bbb     C4   3760 0.18057300  12.010000   ; qtot 125.475182
 3761         hc    125    bbb     H7   3761 0.01788900   1.008000   ; qtot 125.493071
 3762         hc    125    bbb     H8   3762 0.01788900   1.008000   ; qtot 125.510960
 3763         c3    125    bbb     C5   3763 -0.11337700  12.010000   ; qtot 125.397583
 3764         hc    125    bbb     H9   3764 0.09515400   1.008000   ; qtot 125.492737
 3765         hc    125    bbb    H10   3765 0.09515400   1.008000   ; qtot 125.587891
 3766         c3    125    bbb     C6   3766 -0.11337700  12.010000   ; qtot 125.474514
 3767         hc    125    bbb    H11   3767 0.09515400   1.008000   ; qtot 125.569668
 3768         hc    125    bbb    H12   3768 0.09515400   1.008000   ; qtot 125.664822
 3769         c3    125    bbb     C7   3769 0.21842400  12.010000   ; qtot 125.883246
 3770         h1    125    bbb    H13   3770 0.04500300   1.008000   ; qtot 125.928249
 3771         h1    125    bbb    H14   3771 0.04500300   1.008000   ; qtot 125.973252
 3772         c3    125    bbb     C8   3772 -0.06455200  12.010000   ; qtot 125.908700
 3773         h1    125    bbb    H15   3773 0.13554100   1.008000   ; qtot 126.044241
 3774         h1    125    bbb    H16   3774 0.13554100   1.008000   ; qtot 126.179782
 3775         c3    125    bbb     C9   3775 -0.06455200  12.010000   ; qtot 126.115230
 3776         h1    125    bbb    H17   3776 0.13554100   1.008000   ; qtot 126.250771
 3777         h1    125    bbb    H18   3777 0.13554100   1.008000   ; qtot 126.386312
 3778         os    125    bbb     O1   3778 -0.62587700  16.000000   ; qtot 125.760435
 3779         hn    125    bbb    H19   3779 0.23982500   1.008000   ; qtot 126.000260
; residue  126 ccc rtp ccc q 1.0
 3780         c3    126    ccc     C1   3780 0.17060900  12.010000   ; qtot 126.170869
 3781         hx    126    ccc     H1   3781 0.04213200   1.008000   ; qtot 126.213001
 3782         hx    126    ccc     H2   3782 0.04213200   1.008000   ; qtot 126.255133
 3783         c3    126    ccc     C2   3783 -0.04496700  12.010000   ; qtot 126.210166
 3784         hc    126    ccc     H3   3784 0.02647500   1.008000   ; qtot 126.236641
 3785         hc    126    ccc     H4   3785 0.02647500   1.008000   ; qtot 126.263116
 3786         c3    126    ccc     C3   3786 0.04732600  12.010000   ; qtot 126.310442
 3787         h1    126    ccc     H5   3787 0.07030200   1.008000   ; qtot 126.380744
 3788         h1    126    ccc     H6   3788 0.07030200   1.008000   ; qtot 126.451046
 3789         n4    126    ccc     N1   3789 -0.21077700  14.010000   ; qtot 126.240269
 3790         hn    126    ccc     H7   3790 0.28399900   1.008000   ; qtot 126.524268
 3791         hn    126    ccc     H8   3791 0.28399900   1.008000   ; qtot 126.808267
 3792         os    126    ccc     O1   3792 -0.09200600  16.000000   ; qtot 126.716261
 3793         hn    126    ccc    H17   3793 0.28399900   1.008000   ; qtot 127.000260
; residue  127 ccc rtp ccc q 1.0
 3794         c3    127    ccc     C1   3794 0.17060900  12.010000   ; qtot 127.170869
 3795         hx    127    ccc     H1   3795 0.04213200   1.008000   ; qtot 127.213001
 3796         hx    127    ccc     H2   3796 0.04213200   1.008000   ; qtot 127.255133
 3797         c3    127    ccc     C2   3797 -0.04496700  12.010000   ; qtot 127.210166
 3798         hc    127    ccc     H3   3798 0.02647500   1.008000   ; qtot 127.236641
 3799         hc    127    ccc     H4   3799 0.02647500   1.008000   ; qtot 127.263116
 3800         c3    127    ccc     C3   3800 0.04732600  12.010000   ; qtot 127.310442
 3801         h1    127    ccc     H5   3801 0.07030200   1.008000   ; qtot 127.380744
 3802         h1    127    ccc     H6   3802 0.07030200   1.008000   ; qtot 127.451046
 3803         n4    127    ccc     N1   3803 -0.21077700  14.010000   ; qtot 127.240269
 3804         hn    127    ccc     H7   3804 0.28399900   1.008000   ; qtot 127.524268
 3805         hn    127    ccc     H8   3805 0.28399900   1.008000   ; qtot 127.808267
 3806         os    127    ccc     O1   3806 -0.09200600  16.000000   ; qtot 127.716261
 3807         hn    127    ccc    H17   3807 0.28399900   1.008000   ; qtot 128.000260
; residue  128 ccc rtp ccc q 1.0
 3808         c3    128    ccc     C1   3808 0.17060900  12.010000   ; qtot 128.170869
 3809         hx    128    ccc     H1   3809 0.04213200   1.008000   ; qtot 128.213001
 3810         hx    128    ccc     H2   3810 0.04213200   1.008000   ; qtot 128.255133
 3811         c3    128    ccc     C2   3811 -0.04496700  12.010000   ; qtot 128.210166
 3812         hc    128    ccc     H3   3812 0.02647500   1.008000   ; qtot 128.236641
 3813         hc    128    ccc     H4   3813 0.02647500   1.008000   ; qtot 128.263116
 3814         c3    128    ccc     C3   3814 0.04732600  12.010000   ; qtot 128.310442
 3815         h1    128    ccc     H5   3815 0.07030200   1.008000   ; qtot 128.380744
 3816         h1    128    ccc     H6   3816 0.07030200   1.008000   ; qtot 128.451046
 3817         n4    128    ccc     N1   3817 -0.21077700  14.010000   ; qtot 128.240269
 3818         hn    128    ccc     H7   3818 0.28399900   1.008000   ; qtot 128.524268
 3819         hn    128    ccc     H8   3819 0.28399900   1.008000   ; qtot 128.808267
 3820         os    128    ccc     O1   3820 -0.09200600  16.000000   ; qtot 128.716261
 3821         hn    128    ccc    H17   3821 0.28399900   1.008000   ; qtot 129.000260
; residue  129 ccc rtp ccc q 1.0
 3822         c3    129    ccc     C1   3822 0.17060900  12.010000   ; qtot 129.170869
 3823         hx    129    ccc     H1   3823 0.04213200   1.008000   ; qtot 129.213001
 3824         hx    129    ccc     H2   3824 0.04213200   1.008000   ; qtot 129.255133
 3825         c3    129    ccc     C2   3825 -0.04496700  12.010000   ; qtot 129.210166
 3826         hc    129    ccc     H3   3826 0.02647500   1.008000   ; qtot 129.236641
 3827         hc    129    ccc     H4   3827 0.02647500   1.008000   ; qtot 129.263116
 3828         c3    129    ccc     C3   3828 0.04732600  12.010000   ; qtot 129.310442
 3829         h1    129    ccc     H5   3829 0.07030200   1.008000   ; qtot 129.380744
 3830         h1    129    ccc     H6   3830 0.07030200   1.008000   ; qtot 129.451046
 3831         n4    129    ccc     N1   3831 -0.21077700  14.010000   ; qtot 129.240269
 3832         hn    129    ccc     H7   3832 0.28399900   1.008000   ; qtot 129.524268
 3833         hn    129    ccc     H8   3833 0.28399900   1.008000   ; qtot 129.808267
 3834         os    129    ccc     O1   3834 -0.09200600  16.000000   ; qtot 129.716261
 3835         hn    129    ccc    H17   3835 0.28399900   1.008000   ; qtot 130.000260
; residue  130 ccc rtp ccc q 1.0
 3836         c3    130    ccc     C1   3836 0.17060900  12.010000   ; qtot 130.170869
 3837         hx    130    ccc     H1   3837 0.04213200   1.008000   ; qtot 130.213001
 3838         hx    130    ccc     H2   3838 0.04213200   1.008000   ; qtot 130.255133
 3839         c3    130    ccc     C2   3839 -0.04496700  12.010000   ; qtot 130.210166
 3840         hc    130    ccc     H3   3840 0.02647500   1.008000   ; qtot 130.236641
 3841         hc    130    ccc     H4   3841 0.02647500   1.008000   ; qtot 130.263116
 3842         c3    130    ccc     C3   3842 0.04732600  12.010000   ; qtot 130.310442
 3843         h1    130    ccc     H5   3843 0.07030200   1.008000   ; qtot 130.380744
 3844         h1    130    ccc     H6   3844 0.07030200   1.008000   ; qtot 130.451046
 3845         n4    130    ccc     N1   3845 -0.21077700  14.010000   ; qtot 130.240269
 3846         hn    130    ccc     H7   3846 0.28399900   1.008000   ; qtot 130.524268
 3847         hn    130    ccc     H8   3847 0.28399900   1.008000   ; qtot 130.808267
 3848         os    130    ccc     O1   3848 -0.09200600  16.000000   ; qtot 130.716261
 3849         hn    130    ccc    H17   3849 0.28399900   1.008000   ; qtot 131.000260
; residue  131 ccc rtp ccc q 1.0
 3850         c3    131    ccc     C1   3850 0.17060900  12.010000   ; qtot 131.170869
 3851         hx    131    ccc     H1   3851 0.04213200   1.008000   ; qtot 131.213001
 3852         hx    131    ccc     H2   3852 0.04213200   1.008000   ; qtot 131.255133
 3853         c3    131    ccc     C2   3853 -0.04496700  12.010000   ; qtot 131.210166
 3854         hc    131    ccc     H3   3854 0.02647500   1.008000   ; qtot 131.236641
 3855         hc    131    ccc     H4   3855 0.02647500   1.008000   ; qtot 131.263116
 3856         c3    131    ccc     C3   3856 0.04732600  12.010000   ; qtot 131.310442
 3857         h1    131    ccc     H5   3857 0.07030200   1.008000   ; qtot 131.380744
 3858         h1    131    ccc     H6   3858 0.07030200   1.008000   ; qtot 131.451046
 3859         n4    131    ccc     N1   3859 -0.21077700  14.010000   ; qtot 131.240269
 3860         hn    131    ccc     H7   3860 0.28399900   1.008000   ; qtot 131.524268
 3861         hn    131    ccc     H8   3861 0.28399900   1.008000   ; qtot 131.808267
 3862         os    131    ccc     O1   3862 -0.09200600  16.000000   ; qtot 131.716261
 3863         hn    131    ccc    H17   3863 0.28399900   1.008000   ; qtot 132.000260
; residue  132 ccc rtp ccc q 1.0
 3864         c3    132    ccc     C1   3864 0.17060900  12.010000   ; qtot 132.170869
 3865         hx    132    ccc     H1   3865 0.04213200   1.008000   ; qtot 132.213001
 3866         hx    132    ccc     H2   3866 0.04213200   1.008000   ; qtot 132.255133
 3867         c3    132    ccc     C2   3867 -0.04496700  12.010000   ; qtot 132.210166
 3868         hc    132    ccc     H3   3868 0.02647500   1.008000   ; qtot 132.236641
 3869         hc    132    ccc     H4   3869 0.02647500   1.008000   ; qtot 132.263116
 3870         c3    132    ccc     C3   3870 0.04732600  12.010000   ; qtot 132.310442
 3871         h1    132    ccc     H5   3871 0.07030200   1.008000   ; qtot 132.380744
 3872         h1    132    ccc     H6   3872 0.07030200   1.008000   ; qtot 132.451046
 3873         n4    132    ccc     N1   3873 -0.21077700  14.010000   ; qtot 132.240269
 3874         hn    132    ccc     H7   3874 0.28399900   1.008000   ; qtot 132.524268
 3875         hn    132    ccc     H8   3875 0.28399900   1.008000   ; qtot 132.808267
 3876         os    132    ccc     O1   3876 -0.09200600  16.000000   ; qtot 132.716261
 3877         hn    132    ccc    H17   3877 0.28399900   1.008000   ; qtot 133.000260
; residue  133 ccc rtp ccc q 1.0
 3878         c3    133    ccc     C1   3878 0.17060900  12.010000   ; qtot 133.170869
 3879         hx    133    ccc     H1   3879 0.04213200   1.008000   ; qtot 133.213001
 3880         hx    133    ccc     H2   3880 0.04213200   1.008000   ; qtot 133.255133
 3881         c3    133    ccc     C2   3881 -0.04496700  12.010000   ; qtot 133.210166
 3882         hc    133    ccc     H3   3882 0.02647500   1.008000   ; qtot 133.236641
 3883         hc    133    ccc     H4   3883 0.02647500   1.008000   ; qtot 133.263116
 3884         c3    133    ccc     C3   3884 0.04732600  12.010000   ; qtot 133.310442
 3885         h1    133    ccc     H5   3885 0.07030200   1.008000   ; qtot 133.380744
 3886         h1    133    ccc     H6   3886 0.07030200   1.008000   ; qtot 133.451046
 3887         n4    133    ccc     N1   3887 -0.21077700  14.010000   ; qtot 133.240269
 3888         hn    133    ccc     H7   3888 0.28399900   1.008000   ; qtot 133.524268
 3889         hn    133    ccc     H8   3889 0.28399900   1.008000   ; qtot 133.808267
 3890         os    133    ccc     O1   3890 -0.09200600  16.000000   ; qtot 133.716261
 3891         hn    133    ccc    H17   3891 0.28399900   1.008000   ; qtot 134.000260
; residue  134 ccc rtp ccc q 1.0
 3892         c3    134    ccc     C1   3892 0.17060900  12.010000   ; qtot 134.170869
 3893         hx    134    ccc     H1   3893 0.04213200   1.008000   ; qtot 134.213001
 3894         hx    134    ccc     H2   3894 0.04213200   1.008000   ; qtot 134.255133
 3895         c3    134    ccc     C2   3895 -0.04496700  12.010000   ; qtot 134.210166
 3896         hc    134    ccc     H3   3896 0.02647500   1.008000   ; qtot 134.236641
 3897         hc    134    ccc     H4   3897 0.02647500   1.008000   ; qtot 134.263116
 3898         c3    134    ccc     C3   3898 0.04732600  12.010000   ; qtot 134.310442
 3899         h1    134    ccc     H5   3899 0.07030200   1.008000   ; qtot 134.380744
 3900         h1    134    ccc     H6   3900 0.07030200   1.008000   ; qtot 134.451046
 3901         n4    134    ccc     N1   3901 -0.21077700  14.010000   ; qtot 134.240269
 3902         hn    134    ccc     H7   3902 0.28399900   1.008000   ; qtot 134.524268
 3903         hn    134    ccc     H8   3903 0.28399900   1.008000   ; qtot 134.808267
 3904         os    134    ccc     O1   3904 -0.09200600  16.000000   ; qtot 134.716261
 3905         hn    134    ccc    H17   3905 0.28399900   1.008000   ; qtot 135.000260
; residue  135 ccc rtp ccc q 1.0
 3906         c3    135    ccc     C1   3906 0.17060900  12.010000   ; qtot 135.170869
 3907         hx    135    ccc     H1   3907 0.04213200   1.008000   ; qtot 135.213001
 3908         hx    135    ccc     H2   3908 0.04213200   1.008000   ; qtot 135.255133
 3909         c3    135    ccc     C2   3909 -0.04496700  12.010000   ; qtot 135.210166
 3910         hc    135    ccc     H3   3910 0.02647500   1.008000   ; qtot 135.236641
 3911         hc    135    ccc     H4   3911 0.02647500   1.008000   ; qtot 135.263116
 3912         c3    135    ccc     C3   3912 0.04732600  12.010000   ; qtot 135.310442
 3913         h1    135    ccc     H5   3913 0.07030200   1.008000   ; qtot 135.380744
 3914         h1    135    ccc     H6   3914 0.07030200   1.008000   ; qtot 135.451046
 3915         n4    135    ccc     N1   3915 -0.21077700  14.010000   ; qtot 135.240269
 3916         hn    135    ccc     H7   3916 0.28399900   1.008000   ; qtot 135.524268
 3917         hn    135    ccc     H8   3917 0.28399900   1.008000   ; qtot 135.808267
 3918         os    135    ccc     O1   3918 -0.09200600  16.000000   ; qtot 135.716261
 3919         hn    135    ccc    H17   3919 0.28399900   1.008000   ; qtot 136.000260
; residue  136 ccc rtp ccc q 1.0
 3920         c3    136    ccc     C1   3920 0.17060900  12.010000   ; qtot 136.170869
 3921         hx    136    ccc     H1   3921 0.04213200   1.008000   ; qtot 136.213001
 3922         hx    136    ccc     H2   3922 0.04213200   1.008000   ; qtot 136.255133
 3923         c3    136    ccc     C2   3923 -0.04496700  12.010000   ; qtot 136.210166
 3924         hc    136    ccc     H3   3924 0.02647500   1.008000   ; qtot 136.236641
 3925         hc    136    ccc     H4   3925 0.02647500   1.008000   ; qtot 136.263116
 3926         c3    136    ccc     C3   3926 0.04732600  12.010000   ; qtot 136.310442
 3927         h1    136    ccc     H5   3927 0.07030200   1.008000   ; qtot 136.380744
 3928         h1    136    ccc     H6   3928 0.07030200   1.008000   ; qtot 136.451046
 3929         n4    136    ccc     N1   3929 -0.21077700  14.010000   ; qtot 136.240269
 3930         hn    136    ccc     H7   3930 0.28399900   1.008000   ; qtot 136.524268
 3931         hn    136    ccc     H8   3931 0.28399900   1.008000   ; qtot 136.808267
 3932         os    136    ccc     O1   3932 -0.09200600  16.000000   ; qtot 136.716261
 3933         hn    136    ccc    H17   3933 0.28399900   1.008000   ; qtot 137.000260
; residue  137 ccc rtp ccc q 1.0
 3934         c3    137    ccc     C1   3934 0.17060900  12.010000   ; qtot 137.170869
 3935         hx    137    ccc     H1   3935 0.04213200   1.008000   ; qtot 137.213001
 3936         hx    137    ccc     H2   3936 0.04213200   1.008000   ; qtot 137.255133
 3937         c3    137    ccc     C2   3937 -0.04496700  12.010000   ; qtot 137.210166
 3938         hc    137    ccc     H3   3938 0.02647500   1.008000   ; qtot 137.236641
 3939         hc    137    ccc     H4   3939 0.02647500   1.008000   ; qtot 137.263116
 3940         c3    137    ccc     C3   3940 0.04732600  12.010000   ; qtot 137.310442
 3941         h1    137    ccc     H5   3941 0.07030200   1.008000   ; qtot 137.380744
 3942         h1    137    ccc     H6   3942 0.07030200   1.008000   ; qtot 137.451046
 3943         n4    137    ccc     N1   3943 -0.21077700  14.010000   ; qtot 137.240269
 3944         hn    137    ccc     H7   3944 0.28399900   1.008000   ; qtot 137.524268
 3945         hn    137    ccc     H8   3945 0.28399900   1.008000   ; qtot 137.808267
 3946         os    137    ccc     O1   3946 -0.09200600  16.000000   ; qtot 137.716261
 3947         hn    137    ccc    H17   3947 0.28399900   1.008000   ; qtot 138.000260
; residue  138 ccc rtp ccc q 1.0
 3948         c3    138    ccc     C1   3948 0.17060900  12.010000   ; qtot 138.170869
 3949         hx    138    ccc     H1   3949 0.04213200   1.008000   ; qtot 138.213001
 3950         hx    138    ccc     H2   3950 0.04213200   1.008000   ; qtot 138.255133
 3951         c3    138    ccc     C2   3951 -0.04496700  12.010000   ; qtot 138.210166
 3952         hc    138    ccc     H3   3952 0.02647500   1.008000   ; qtot 138.236641
 3953         hc    138    ccc     H4   3953 0.02647500   1.008000   ; qtot 138.263116
 3954         c3    138    ccc     C3   3954 0.04732600  12.010000   ; qtot 138.310442
 3955         h1    138    ccc     H5   3955 0.07030200   1.008000   ; qtot 138.380744
 3956         h1    138    ccc     H6   3956 0.07030200   1.008000   ; qtot 138.451046
 3957         n4    138    ccc     N1   3957 -0.21077700  14.010000   ; qtot 138.240269
 3958         hn    138    ccc     H7   3958 0.28399900   1.008000   ; qtot 138.524268
 3959         hn    138    ccc     H8   3959 0.28399900   1.008000   ; qtot 138.808267
 3960         os    138    ccc     O1   3960 -0.09200600  16.000000   ; qtot 138.716261
 3961         hn    138    ccc    H17   3961 0.28399900   1.008000   ; qtot 139.000260
; residue  139 ccc rtp ccc q 1.0
 3962         c3    139    ccc     C1   3962 0.17060900  12.010000   ; qtot 139.170869
 3963         hx    139    ccc     H1   3963 0.04213200   1.008000   ; qtot 139.213001
 3964         hx    139    ccc     H2   3964 0.04213200   1.008000   ; qtot 139.255133
 3965         c3    139    ccc     C2   3965 -0.04496700  12.010000   ; qtot 139.210166
 3966         hc    139    ccc     H3   3966 0.02647500   1.008000   ; qtot 139.236641
 3967         hc    139    ccc     H4   3967 0.02647500   1.008000   ; qtot 139.263116
 3968         c3    139    ccc     C3   3968 0.04732600  12.010000   ; qtot 139.310442
 3969         h1    139    ccc     H5   3969 0.07030200   1.008000   ; qtot 139.380744
 3970         h1    139    ccc     H6   3970 0.07030200   1.008000   ; qtot 139.451046
 3971         n4    139    ccc     N1   3971 -0.21077700  14.010000   ; qtot 139.240269
 3972         hn    139    ccc     H7   3972 0.28399900   1.008000   ; qtot 139.524268
 3973         hn    139    ccc     H8   3973 0.28399900   1.008000   ; qtot 139.808267
 3974         os    139    ccc     O1   3974 -0.09200600  16.000000   ; qtot 139.716261
 3975         hn    139    ccc    H17   3975 0.28399900   1.008000   ; qtot 140.000260
; residue  140 ccc rtp ccc q 1.0
 3976         c3    140    ccc     C1   3976 0.17060900  12.010000   ; qtot 140.170869
 3977         hx    140    ccc     H1   3977 0.04213200   1.008000   ; qtot 140.213001
 3978         hx    140    ccc     H2   3978 0.04213200   1.008000   ; qtot 140.255133
 3979         c3    140    ccc     C2   3979 -0.04496700  12.010000   ; qtot 140.210166
 3980         hc    140    ccc     H3   3980 0.02647500   1.008000   ; qtot 140.236641
 3981         hc    140    ccc     H4   3981 0.02647500   1.008000   ; qtot 140.263116
 3982         c3    140    ccc     C3   3982 0.04732600  12.010000   ; qtot 140.310442
 3983         h1    140    ccc     H5   3983 0.07030200   1.008000   ; qtot 140.380744
 3984         h1    140    ccc     H6   3984 0.07030200   1.008000   ; qtot 140.451046
 3985         n4    140    ccc     N1   3985 -0.21077700  14.010000   ; qtot 140.240269
 3986         hn    140    ccc     H7   3986 0.28399900   1.008000   ; qtot 140.524268
 3987         hn    140    ccc     H8   3987 0.28399900   1.008000   ; qtot 140.808267
 3988         os    140    ccc     O1   3988 -0.09200600  16.000000   ; qtot 140.716261
 3989         hn    140    ccc    H17   3989 0.28399900   1.008000   ; qtot 141.000260
; residue  141 ccc rtp ccc q 1.0
 3990         c3    141    ccc     C1   3990 0.17060900  12.010000   ; qtot 141.170869
 3991         hx    141    ccc     H1   3991 0.04213200   1.008000   ; qtot 141.213001
 3992         hx    141    ccc     H2   3992 0.04213200   1.008000   ; qtot 141.255133
 3993         c3    141    ccc     C2   3993 -0.04496700  12.010000   ; qtot 141.210166
 3994         hc    141    ccc     H3   3994 0.02647500   1.008000   ; qtot 141.236641
 3995         hc    141    ccc     H4   3995 0.02647500   1.008000   ; qtot 141.263116
 3996         c3    141    ccc     C3   3996 0.04732600  12.010000   ; qtot 141.310442
 3997         h1    141    ccc     H5   3997 0.07030200   1.008000   ; qtot 141.380744
 3998         h1    141    ccc     H6   3998 0.07030200   1.008000   ; qtot 141.451046
 3999         n4    141    ccc     N1   3999 -0.21077700  14.010000   ; qtot 141.240269
 4000         hn    141    ccc     H7   4000 0.28399900   1.008000   ; qtot 141.524268
 4001         hn    141    ccc     H8   4001 0.28399900   1.008000   ; qtot 141.808267
 4002         os    141    ccc     O1   4002 -0.09200600  16.000000   ; qtot 141.716261
 4003         hn    141    ccc    H17   4003 0.28399900   1.008000   ; qtot 142.000260
; residue  142 ccc rtp ccc q 1.0
 4004         c3    142    ccc     C1   4004 0.17060900  12.010000   ; qtot 142.170869
 4005         hx    142    ccc     H1   4005 0.04213200   1.008000   ; qtot 142.213001
 4006         hx    142    ccc     H2   4006 0.04213200   1.008000   ; qtot 142.255133
 4007         c3    142    ccc     C2   4007 -0.04496700  12.010000   ; qtot 142.210166
 4008         hc    142    ccc     H3   4008 0.02647500   1.008000   ; qtot 142.236641
 4009         hc    142    ccc     H4   4009 0.02647500   1.008000   ; qtot 142.263116
 4010         c3    142    ccc     C3   4010 0.04732600  12.010000   ; qtot 142.310442
 4011         h1    142    ccc     H5   4011 0.07030200   1.008000   ; qtot 142.380744
 4012         h1    142    ccc     H6   4012 0.07030200   1.008000   ; qtot 142.451046
 4013         n4    142    ccc     N1   4013 -0.21077700  14.010000   ; qtot 142.240269
 4014         hn    142    ccc     H7   4014 0.28399900   1.008000   ; qtot 142.524268
 4015         hn    142    ccc     H8   4015 0.28399900   1.008000   ; qtot 142.808267
 4016         os    142    ccc     O1   4016 -0.09200600  16.000000   ; qtot 142.716261
 4017         hn    142    ccc    H17   4017 0.28399900   1.008000   ; qtot 143.000260
; residue  143 ccc rtp ccc q 1.0
 4018         c3    143    ccc     C1   4018 0.17060900  12.010000   ; qtot 143.170869
 4019         hx    143    ccc     H1   4019 0.04213200   1.008000   ; qtot 143.213001
 4020         hx    143    ccc     H2   4020 0.04213200   1.008000   ; qtot 143.255133
 4021         c3    143    ccc     C2   4021 -0.04496700  12.010000   ; qtot 143.210166
 4022         hc    143    ccc     H3   4022 0.02647500   1.008000   ; qtot 143.236641
 4023         hc    143    ccc     H4   4023 0.02647500   1.008000   ; qtot 143.263116
 4024         c3    143    ccc     C3   4024 0.04732600  12.010000   ; qtot 143.310442
 4025         h1    143    ccc     H5   4025 0.07030200   1.008000   ; qtot 143.380744
 4026         h1    143    ccc     H6   4026 0.07030200   1.008000   ; qtot 143.451046
 4027         n4    143    ccc     N1   4027 -0.21077700  14.010000   ; qtot 143.240269
 4028         hn    143    ccc     H7   4028 0.28399900   1.008000   ; qtot 143.524268
 4029         hn    143    ccc     H8   4029 0.28399900   1.008000   ; qtot 143.808267
 4030         os    143    ccc     O1   4030 -0.09200600  16.000000   ; qtot 143.716261
 4031         hn    143    ccc    H17   4031 0.28399900   1.008000   ; qtot 144.000260
; residue  144 ccc rtp ccc q 1.0
 4032         c3    144    ccc     C1   4032 0.17060900  12.010000   ; qtot 144.170869
 4033         hx    144    ccc     H1   4033 0.04213200   1.008000   ; qtot 144.213001
 4034         hx    144    ccc     H2   4034 0.04213200   1.008000   ; qtot 144.255133
 4035         c3    144    ccc     C2   4035 -0.04496700  12.010000   ; qtot 144.210166
 4036         hc    144    ccc     H3   4036 0.02647500   1.008000   ; qtot 144.236641
 4037         hc    144    ccc     H4   4037 0.02647500   1.008000   ; qtot 144.263116
 4038         c3    144    ccc     C3   4038 0.04732600  12.010000   ; qtot 144.310442
 4039         h1    144    ccc     H5   4039 0.07030200   1.008000   ; qtot 144.380744
 4040         h1    144    ccc     H6   4040 0.07030200   1.008000   ; qtot 144.451046
 4041         n4    144    ccc     N1   4041 -0.21077700  14.010000   ; qtot 144.240269
 4042         hn    144    ccc     H7   4042 0.28399900   1.008000   ; qtot 144.524268
 4043         hn    144    ccc     H8   4043 0.28399900   1.008000   ; qtot 144.808267
 4044         os    144    ccc     O1   4044 -0.09200600  16.000000   ; qtot 144.716261
 4045         hn    144    ccc    H17   4045 0.28399900   1.008000   ; qtot 145.000260
; residue  145 ccc rtp ccc q 1.0
 4046         c3    145    ccc     C1   4046 0.17060900  12.010000   ; qtot 145.170869
 4047         hx    145    ccc     H1   4047 0.04213200   1.008000   ; qtot 145.213001
 4048         hx    145    ccc     H2   4048 0.04213200   1.008000   ; qtot 145.255133
 4049         c3    145    ccc     C2   4049 -0.04496700  12.010000   ; qtot 145.210166
 4050         hc    145    ccc     H3   4050 0.02647500   1.008000   ; qtot 145.236641
 4051         hc    145    ccc     H4   4051 0.02647500   1.008000   ; qtot 145.263116
 4052         c3    145    ccc     C3   4052 0.04732600  12.010000   ; qtot 145.310442
 4053         h1    145    ccc     H5   4053 0.07030200   1.008000   ; qtot 145.380744
 4054         h1    145    ccc     H6   4054 0.07030200   1.008000   ; qtot 145.451046
 4055         n4    145    ccc     N1   4055 -0.21077700  14.010000   ; qtot 145.240269
 4056         hn    145    ccc     H7   4056 0.28399900   1.008000   ; qtot 145.524268
 4057         hn    145    ccc     H8   4057 0.28399900   1.008000   ; qtot 145.808267
 4058         os    145    ccc     O1   4058 -0.09200600  16.000000   ; qtot 145.716261
 4059         hn    145    ccc    H17   4059 0.28399900   1.008000   ; qtot 146.000260
; residue  146 ccc rtp ccc q 1.0
 4060         c3    146    ccc     C1   4060 0.17060900  12.010000   ; qtot 146.170869
 4061         hx    146    ccc     H1   4061 0.04213200   1.008000   ; qtot 146.213001
 4062         hx    146    ccc     H2   4062 0.04213200   1.008000   ; qtot 146.255133
 4063         c3    146    ccc     C2   4063 -0.04496700  12.010000   ; qtot 146.210166
 4064         hc    146    ccc     H3   4064 0.02647500   1.008000   ; qtot 146.236641
 4065         hc    146    ccc     H4   4065 0.02647500   1.008000   ; qtot 146.263116
 4066         c3    146    ccc     C3   4066 0.04732600  12.010000   ; qtot 146.310442
 4067         h1    146    ccc     H5   4067 0.07030200   1.008000   ; qtot 146.380744
 4068         h1    146    ccc     H6   4068 0.07030200   1.008000   ; qtot 146.451046
 4069         n4    146    ccc     N1   4069 -0.21077700  14.010000   ; qtot 146.240269
 4070         hn    146    ccc     H7   4070 0.28399900   1.008000   ; qtot 146.524268
 4071         hn    146    ccc     H8   4071 0.28399900   1.008000   ; qtot 146.808267
 4072         os    146    ccc     O1   4072 -0.09200600  16.000000   ; qtot 146.716261
 4073         hn    146    ccc    H17   4073 0.28399900   1.008000   ; qtot 147.000260
; residue  147 ccc rtp ccc q 1.0
 4074         c3    147    ccc     C1   4074 0.17060900  12.010000   ; qtot 147.170869
 4075         hx    147    ccc     H1   4075 0.04213200   1.008000   ; qtot 147.213001
 4076         hx    147    ccc     H2   4076 0.04213200   1.008000   ; qtot 147.255133
 4077         c3    147    ccc     C2   4077 -0.04496700  12.010000   ; qtot 147.210166
 4078         hc    147    ccc     H3   4078 0.02647500   1.008000   ; qtot 147.236641
 4079         hc    147    ccc     H4   4079 0.02647500   1.008000   ; qtot 147.263116
 4080         c3    147    ccc     C3   4080 0.04732600  12.010000   ; qtot 147.310442
 4081         h1    147    ccc     H5   4081 0.07030200   1.008000   ; qtot 147.380744
 4082         h1    147    ccc     H6   4082 0.07030200   1.008000   ; qtot 147.451046
 4083         n4    147    ccc     N1   4083 -0.21077700  14.010000   ; qtot 147.240269
 4084         hn    147    ccc     H7   4084 0.28399900   1.008000   ; qtot 147.524268
 4085         hn    147    ccc     H8   4085 0.28399900   1.008000   ; qtot 147.808267
 4086         os    147    ccc     O1   4086 -0.09200600  16.000000   ; qtot 147.716261
 4087         hn    147    ccc    H17   4087 0.28399900   1.008000   ; qtot 148.000260
; residue  148 ccc rtp ccc q 1.0
 4088         c3    148    ccc     C1   4088 0.17060900  12.010000   ; qtot 148.170869
 4089         hx    148    ccc     H1   4089 0.04213200   1.008000   ; qtot 148.213001
 4090         hx    148    ccc     H2   4090 0.04213200   1.008000   ; qtot 148.255133
 4091         c3    148    ccc     C2   4091 -0.04496700  12.010000   ; qtot 148.210166
 4092         hc    148    ccc     H3   4092 0.02647500   1.008000   ; qtot 148.236641
 4093         hc    148    ccc     H4   4093 0.02647500   1.008000   ; qtot 148.263116
 4094         c3    148    ccc     C3   4094 0.04732600  12.010000   ; qtot 148.310442
 4095         h1    148    ccc     H5   4095 0.07030200   1.008000   ; qtot 148.380744
 4096         h1    148    ccc     H6   4096 0.07030200   1.008000   ; qtot 148.451046
 4097         n4    148    ccc     N1   4097 -0.21077700  14.010000   ; qtot 148.240269
 4098         hn    148    ccc     H7   4098 0.28399900   1.008000   ; qtot 148.524268
 4099         hn    148    ccc     H8   4099 0.28399900   1.008000   ; qtot 148.808267
 4100         os    148    ccc     O1   4100 -0.09200600  16.000000   ; qtot 148.716261
 4101         hn    148    ccc    H17   4101 0.28399900   1.008000   ; qtot 149.000260
; residue  149 ccc rtp ccc q 1.0
 4102         c3    149    ccc     C1   4102 0.17060900  12.010000   ; qtot 149.170869
 4103         hx    149    ccc     H1   4103 0.04213200   1.008000   ; qtot 149.213001
 4104         hx    149    ccc     H2   4104 0.04213200   1.008000   ; qtot 149.255133
 4105         c3    149    ccc     C2   4105 -0.04496700  12.010000   ; qtot 149.210166
 4106         hc    149    ccc     H3   4106 0.02647500   1.008000   ; qtot 149.236641
 4107         hc    149    ccc     H4   4107 0.02647500   1.008000   ; qtot 149.263116
 4108         c3    149    ccc     C3   4108 0.04732600  12.010000   ; qtot 149.310442
 4109         h1    149    ccc     H5   4109 0.07030200   1.008000   ; qtot 149.380744
 4110         h1    149    ccc     H6   4110 0.07030200   1.008000   ; qtot 149.451046
 4111         n4    149    ccc     N1   4111 -0.21077700  14.010000   ; qtot 149.240269
 4112         hn    149    ccc     H7   4112 0.28399900   1.008000   ; qtot 149.524268
 4113         hn    149    ccc     H8   4113 0.28399900   1.008000   ; qtot 149.808267
 4114         os    149    ccc     O1   4114 -0.09200600  16.000000   ; qtot 149.716261
 4115         hn    149    ccc    H17   4115 0.28399900   1.008000   ; qtot 150.000260
; residue  150 ccc rtp ccc q 1.0
 4116         c3    150    ccc     C1   4116 0.17060900  12.010000   ; qtot 150.170869
 4117         hx    150    ccc     H1   4117 0.04213200   1.008000   ; qtot 150.213001
 4118         hx    150    ccc     H2   4118 0.04213200   1.008000   ; qtot 150.255133
 4119         c3    150    ccc     C2   4119 -0.04496700  12.010000   ; qtot 150.210166
 4120         hc    150    ccc     H3   4120 0.02647500   1.008000   ; qtot 150.236641
 4121         hc    150    ccc     H4   4121 0.02647500   1.008000   ; qtot 150.263116
 4122         c3    150    ccc     C3   4122 0.04732600  12.010000   ; qtot 150.310442
 4123         h1    150    ccc     H5   4123 0.07030200   1.008000   ; qtot 150.380744
 4124         h1    150    ccc     H6   4124 0.07030200   1.008000   ; qtot 150.451046
 4125         n4    150    ccc     N1   4125 -0.21077700  14.010000   ; qtot 150.240269
 4126         hn    150    ccc     H7   4126 0.28399900   1.008000   ; qtot 150.524268
 4127         hn    150    ccc     H8   4127 0.28399900   1.008000   ; qtot 150.808267
 4128         os    150    ccc     O1   4128 -0.09200600  16.000000   ; qtot 150.716261
 4129         hn    150    ccc    H17   4129 0.28399900   1.008000   ; qtot 151.000260
; residue  151 ccc rtp ccc q 1.0
 4130         c3    151    ccc     C1   4130 0.17060900  12.010000   ; qtot 151.170869
 4131         hx    151    ccc     H1   4131 0.04213200   1.008000   ; qtot 151.213001
 4132         hx    151    ccc     H2   4132 0.04213200   1.008000   ; qtot 151.255133
 4133         c3    151    ccc     C2   4133 -0.04496700  12.010000   ; qtot 151.210166
 4134         hc    151    ccc     H3   4134 0.02647500   1.008000   ; qtot 151.236641
 4135         hc    151    ccc     H4   4135 0.02647500   1.008000   ; qtot 151.263116
 4136         c3    151    ccc     C3   4136 0.04732600  12.010000   ; qtot 151.310442
 4137         h1    151    ccc     H5   4137 0.07030200   1.008000   ; qtot 151.380744
 4138         h1    151    ccc     H6   4138 0.07030200   1.008000   ; qtot 151.451046
 4139         n4    151    ccc     N1   4139 -0.21077700  14.010000   ; qtot 151.240269
 4140         hn    151    ccc     H7   4140 0.28399900   1.008000   ; qtot 151.524268
 4141         hn    151    ccc     H8   4141 0.28399900   1.008000   ; qtot 151.808267
 4142         os    151    ccc     O1   4142 -0.09200600  16.000000   ; qtot 151.716261
 4143         hn    151    ccc    H17   4143 0.28399900   1.008000   ; qtot 152.000260
; residue  152 ccc rtp ccc q 1.0
 4144         c3    152    ccc     C1   4144 0.17060900  12.010000   ; qtot 152.170869
 4145         hx    152    ccc     H1   4145 0.04213200   1.008000   ; qtot 152.213001
 4146         hx    152    ccc     H2   4146 0.04213200   1.008000   ; qtot 152.255133
 4147         c3    152    ccc     C2   4147 -0.04496700  12.010000   ; qtot 152.210166
 4148         hc    152    ccc     H3   4148 0.02647500   1.008000   ; qtot 152.236641
 4149         hc    152    ccc     H4   4149 0.02647500   1.008000   ; qtot 152.263116
 4150         c3    152    ccc     C3   4150 0.04732600  12.010000   ; qtot 152.310442
 4151         h1    152    ccc     H5   4151 0.07030200   1.008000   ; qtot 152.380744
 4152         h1    152    ccc     H6   4152 0.07030200   1.008000   ; qtot 152.451046
 4153         n4    152    ccc     N1   4153 -0.21077700  14.010000   ; qtot 152.240269
 4154         hn    152    ccc     H7   4154 0.28399900   1.008000   ; qtot 152.524268
 4155         hn    152    ccc     H8   4155 0.28399900   1.008000   ; qtot 152.808267
 4156         os    152    ccc     O1   4156 -0.09200600  16.000000   ; qtot 152.716261
 4157         hn    152    ccc    H17   4157 0.28399900   1.008000   ; qtot 153.000260
; residue  153 ccc rtp ccc q 1.0
 4158         c3    153    ccc     C1   4158 0.17060900  12.010000   ; qtot 153.170869
 4159         hx    153    ccc     H1   4159 0.04213200   1.008000   ; qtot 153.213001
 4160         hx    153    ccc     H2   4160 0.04213200   1.008000   ; qtot 153.255133
 4161         c3    153    ccc     C2   4161 -0.04496700  12.010000   ; qtot 153.210166
 4162         hc    153    ccc     H3   4162 0.02647500   1.008000   ; qtot 153.236641
 4163         hc    153    ccc     H4   4163 0.02647500   1.008000   ; qtot 153.263116
 4164         c3    153    ccc     C3   4164 0.04732600  12.010000   ; qtot 153.310442
 4165         h1    153    ccc     H5   4165 0.07030200   1.008000   ; qtot 153.380744
 4166         h1    153    ccc     H6   4166 0.07030200   1.008000   ; qtot 153.451046
 4167         n4    153    ccc     N1   4167 -0.21077700  14.010000   ; qtot 153.240269
 4168         hn    153    ccc     H7   4168 0.28399900   1.008000   ; qtot 153.524268
 4169         hn    153    ccc     H8   4169 0.28399900   1.008000   ; qtot 153.808267
 4170         os    153    ccc     O1   4170 -0.09200600  16.000000   ; qtot 153.716261
 4171         hn    153    ccc    H17   4171 0.28399900   1.008000   ; qtot 154.000260
; residue  154 ccc rtp ccc q 1.0
 4172         c3    154    ccc     C1   4172 0.17060900  12.010000   ; qtot 154.170869
 4173         hx    154    ccc     H1   4173 0.04213200   1.008000   ; qtot 154.213001
 4174         hx    154    ccc     H2   4174 0.04213200   1.008000   ; qtot 154.255133
 4175         c3    154    ccc     C2   4175 -0.04496700  12.010000   ; qtot 154.210166
 4176         hc    154    ccc     H3   4176 0.02647500   1.008000   ; qtot 154.236641
 4177         hc    154    ccc     H4   4177 0.02647500   1.008000   ; qtot 154.263116
 4178         c3    154    ccc     C3   4178 0.04732600  12.010000   ; qtot 154.310442
 4179         h1    154    ccc     H5   4179 0.07030200   1.008000   ; qtot 154.380744
 4180         h1    154    ccc     H6   4180 0.07030200   1.008000   ; qtot 154.451046
 4181         n4    154    ccc     N1   4181 -0.21077700  14.010000   ; qtot 154.240269
 4182         hn    154    ccc     H7   4182 0.28399900   1.008000   ; qtot 154.524268
 4183         hn    154    ccc     H8   4183 0.28399900   1.008000   ; qtot 154.808267
 4184         os    154    ccc     O1   4184 -0.09200600  16.000000   ; qtot 154.716261
 4185         hn    154    ccc    H17   4185 0.28399900   1.008000   ; qtot 155.000260
; residue  155 ccc rtp ccc q 1.0
 4186         c3    155    ccc     C1   4186 0.17060900  12.010000   ; qtot 155.170869
 4187         hx    155    ccc     H1   4187 0.04213200   1.008000   ; qtot 155.213001
 4188         hx    155    ccc     H2   4188 0.04213200   1.008000   ; qtot 155.255133
 4189         c3    155    ccc     C2   4189 -0.04496700  12.010000   ; qtot 155.210166
 4190         hc    155    ccc     H3   4190 0.02647500   1.008000   ; qtot 155.236641
 4191         hc    155    ccc     H4   4191 0.02647500   1.008000   ; qtot 155.263116
 4192         c3    155    ccc     C3   4192 0.04732600  12.010000   ; qtot 155.310442
 4193         h1    155    ccc     H5   4193 0.07030200   1.008000   ; qtot 155.380744
 4194         h1    155    ccc     H6   4194 0.07030200   1.008000   ; qtot 155.451046
 4195         n4    155    ccc     N1   4195 -0.21077700  14.010000   ; qtot 155.240269
 4196         hn    155    ccc     H7   4196 0.28399900   1.008000   ; qtot 155.524268
 4197         hn    155    ccc     H8   4197 0.28399900   1.008000   ; qtot 155.808267
 4198         os    155    ccc     O1   4198 -0.09200600  16.000000   ; qtot 155.716261
 4199         hn    155    ccc    H17   4199 0.28399900   1.008000   ; qtot 156.000260
; residue  156 ccc rtp ccc q 1.0
 4200         c3    156    ccc     C1   4200 0.17060900  12.010000   ; qtot 156.170869
 4201         hx    156    ccc     H1   4201 0.04213200   1.008000   ; qtot 156.213001
 4202         hx    156    ccc     H2   4202 0.04213200   1.008000   ; qtot 156.255133
 4203         c3    156    ccc     C2   4203 -0.04496700  12.010000   ; qtot 156.210166
 4204         hc    156    ccc     H3   4204 0.02647500   1.008000   ; qtot 156.236641
 4205         hc    156    ccc     H4   4205 0.02647500   1.008000   ; qtot 156.263116
 4206         c3    156    ccc     C3   4206 0.04732600  12.010000   ; qtot 156.310442
 4207         h1    156    ccc     H5   4207 0.07030200   1.008000   ; qtot 156.380744
 4208         h1    156    ccc     H6   4208 0.07030200   1.008000   ; qtot 156.451046
 4209         n4    156    ccc     N1   4209 -0.21077700  14.010000   ; qtot 156.240269
 4210         hn    156    ccc     H7   4210 0.28399900   1.008000   ; qtot 156.524268
 4211         hn    156    ccc     H8   4211 0.28399900   1.008000   ; qtot 156.808267
 4212         os    156    ccc     O1   4212 -0.09200600  16.000000   ; qtot 156.716261
 4213         hn    156    ccc    H17   4213 0.28399900   1.008000   ; qtot 157.000260
; residue  157 ccc rtp ccc q 1.0
 4214         c3    157    ccc     C1   4214 0.17060900  12.010000   ; qtot 157.170869
 4215         hx    157    ccc     H1   4215 0.04213200   1.008000   ; qtot 157.213001
 4216         hx    157    ccc     H2   4216 0.04213200   1.008000   ; qtot 157.255133
 4217         c3    157    ccc     C2   4217 -0.04496700  12.010000   ; qtot 157.210166
 4218         hc    157    ccc     H3   4218 0.02647500   1.008000   ; qtot 157.236641
 4219         hc    157    ccc     H4   4219 0.02647500   1.008000   ; qtot 157.263116
 4220         c3    157    ccc     C3   4220 0.04732600  12.010000   ; qtot 157.310442
 4221         h1    157    ccc     H5   4221 0.07030200   1.008000   ; qtot 157.380744
 4222         h1    157    ccc     H6   4222 0.07030200   1.008000   ; qtot 157.451046
 4223         n4    157    ccc     N1   4223 -0.21077700  14.010000   ; qtot 157.240269
 4224         hn    157    ccc     H7   4224 0.28399900   1.008000   ; qtot 157.524268
 4225         hn    157    ccc     H8   4225 0.28399900   1.008000   ; qtot 157.808267
 4226         os    157    ccc     O1   4226 -0.09200600  16.000000   ; qtot 157.716261
 4227         hn    157    ccc    H17   4227 0.28399900   1.008000   ; qtot 158.000260
; residue  158 ccc rtp ccc q 1.0
 4228         c3    158    ccc     C1   4228 0.17060900  12.010000   ; qtot 158.170869
 4229         hx    158    ccc     H1   4229 0.04213200   1.008000   ; qtot 158.213001
 4230         hx    158    ccc     H2   4230 0.04213200   1.008000   ; qtot 158.255133
 4231         c3    158    ccc     C2   4231 -0.04496700  12.010000   ; qtot 158.210166
 4232         hc    158    ccc     H3   4232 0.02647500   1.008000   ; qtot 158.236641
 4233         hc    158    ccc     H4   4233 0.02647500   1.008000   ; qtot 158.263116
 4234         c3    158    ccc     C3   4234 0.04732600  12.010000   ; qtot 158.310442
 4235         h1    158    ccc     H5   4235 0.07030200   1.008000   ; qtot 158.380744
 4236         h1    158    ccc     H6   4236 0.07030200   1.008000   ; qtot 158.451046
 4237         n4    158    ccc     N1   4237 -0.21077700  14.010000   ; qtot 158.240269
 4238         hn    158    ccc     H7   4238 0.28399900   1.008000   ; qtot 158.524268
 4239         hn    158    ccc     H8   4239 0.28399900   1.008000   ; qtot 158.808267
 4240         os    158    ccc     O1   4240 -0.09200600  16.000000   ; qtot 158.716261
 4241         hn    158    ccc    H17   4241 0.28399900   1.008000   ; qtot 159.000260
; residue  159 ccc rtp ccc q 1.0
 4242         c3    159    ccc     C1   4242 0.17060900  12.010000   ; qtot 159.170869
 4243         hx    159    ccc     H1   4243 0.04213200   1.008000   ; qtot 159.213001
 4244         hx    159    ccc     H2   4244 0.04213200   1.008000   ; qtot 159.255133
 4245         c3    159    ccc     C2   4245 -0.04496700  12.010000   ; qtot 159.210166
 4246         hc    159    ccc     H3   4246 0.02647500   1.008000   ; qtot 159.236641
 4247         hc    159    ccc     H4   4247 0.02647500   1.008000   ; qtot 159.263116
 4248         c3    159    ccc     C3   4248 0.04732600  12.010000   ; qtot 159.310442
 4249         h1    159    ccc     H5   4249 0.07030200   1.008000   ; qtot 159.380744
 4250         h1    159    ccc     H6   4250 0.07030200   1.008000   ; qtot 159.451046
 4251         n4    159    ccc     N1   4251 -0.21077700  14.010000   ; qtot 159.240269
 4252         hn    159    ccc     H7   4252 0.28399900   1.008000   ; qtot 159.524268
 4253         hn    159    ccc     H8   4253 0.28399900   1.008000   ; qtot 159.808267
 4254         os    159    ccc     O1   4254 -0.09200600  16.000000   ; qtot 159.716261
 4255         hn    159    ccc    H17   4255 0.28399900   1.008000   ; qtot 160.000260
; residue  160 ccc rtp ccc q 1.0
 4256         c3    160    ccc     C1   4256 0.17060900  12.010000   ; qtot 160.170869
 4257         hx    160    ccc     H1   4257 0.04213200   1.008000   ; qtot 160.213001
 4258         hx    160    ccc     H2   4258 0.04213200   1.008000   ; qtot 160.255133
 4259         c3    160    ccc     C2   4259 -0.04496700  12.010000   ; qtot 160.210166
 4260         hc    160    ccc     H3   4260 0.02647500   1.008000   ; qtot 160.236641
 4261         hc    160    ccc     H4   4261 0.02647500   1.008000   ; qtot 160.263116
 4262         c3    160    ccc     C3   4262 0.04732600  12.010000   ; qtot 160.310442
 4263         h1    160    ccc     H5   4263 0.07030200   1.008000   ; qtot 160.380744
 4264         h1    160    ccc     H6   4264 0.07030200   1.008000   ; qtot 160.451046
 4265         n4    160    ccc     N1   4265 -0.21077700  14.010000   ; qtot 160.240269
 4266         hn    160    ccc     H7   4266 0.28399900   1.008000   ; qtot 160.524268
 4267         hn    160    ccc     H8   4267 0.28399900   1.008000   ; qtot 160.808267
 4268         os    160    ccc     O1   4268 -0.09200600  16.000000   ; qtot 160.716261
 4269         hn    160    ccc    H17   4269 0.28399900   1.008000   ; qtot 161.000260
; residue  161 ccc rtp ccc q 1.0
 4270         c3    161    ccc     C1   4270 0.17060900  12.010000   ; qtot 161.170869
 4271         hx    161    ccc     H1   4271 0.04213200   1.008000   ; qtot 161.213001
 4272         hx    161    ccc     H2   4272 0.04213200   1.008000   ; qtot 161.255133
 4273         c3    161    ccc     C2   4273 -0.04496700  12.010000   ; qtot 161.210166
 4274         hc    161    ccc     H3   4274 0.02647500   1.008000   ; qtot 161.236641
 4275         hc    161    ccc     H4   4275 0.02647500   1.008000   ; qtot 161.263116
 4276         c3    161    ccc     C3   4276 0.04732600  12.010000   ; qtot 161.310442
 4277         h1    161    ccc     H5   4277 0.07030200   1.008000   ; qtot 161.380744
 4278         h1    161    ccc     H6   4278 0.07030200   1.008000   ; qtot 161.451046
 4279         n4    161    ccc     N1   4279 -0.21077700  14.010000   ; qtot 161.240269
 4280         hn    161    ccc     H7   4280 0.28399900   1.008000   ; qtot 161.524268
 4281         hn    161    ccc     H8   4281 0.28399900   1.008000   ; qtot 161.808267
 4282         os    161    ccc     O1   4282 -0.09200600  16.000000   ; qtot 161.716261
 4283         hn    161    ccc    H17   4283 0.28399900   1.008000   ; qtot 162.000260
; residue  162 ccc rtp ccc q 1.0
 4284         c3    162    ccc     C1   4284 0.17060900  12.010000   ; qtot 162.170869
 4285         hx    162    ccc     H1   4285 0.04213200   1.008000   ; qtot 162.213001
 4286         hx    162    ccc     H2   4286 0.04213200   1.008000   ; qtot 162.255133
 4287         c3    162    ccc     C2   4287 -0.04496700  12.010000   ; qtot 162.210166
 4288         hc    162    ccc     H3   4288 0.02647500   1.008000   ; qtot 162.236641
 4289         hc    162    ccc     H4   4289 0.02647500   1.008000   ; qtot 162.263116
 4290         c3    162    ccc     C3   4290 0.04732600  12.010000   ; qtot 162.310442
 4291         h1    162    ccc     H5   4291 0.07030200   1.008000   ; qtot 162.380744
 4292         h1    162    ccc     H6   4292 0.07030200   1.008000   ; qtot 162.451046
 4293         n4    162    ccc     N1   4293 -0.21077700  14.010000   ; qtot 162.240269
 4294         hn    162    ccc     H7   4294 0.28399900   1.008000   ; qtot 162.524268
 4295         hn    162    ccc     H8   4295 0.28399900   1.008000   ; qtot 162.808267
 4296         os    162    ccc     O1   4296 -0.09200600  16.000000   ; qtot 162.716261
 4297         hn    162    ccc    H17   4297 0.28399900   1.008000   ; qtot 163.000260
; residue  163 ccc rtp ccc q 1.0
 4298         c3    163    ccc     C1   4298 0.17060900  12.010000   ; qtot 163.170869
 4299         hx    163    ccc     H1   4299 0.04213200   1.008000   ; qtot 163.213001
 4300         hx    163    ccc     H2   4300 0.04213200   1.008000   ; qtot 163.255133
 4301         c3    163    ccc     C2   4301 -0.04496700  12.010000   ; qtot 163.210166
 4302         hc    163    ccc     H3   4302 0.02647500   1.008000   ; qtot 163.236641
 4303         hc    163    ccc     H4   4303 0.02647500   1.008000   ; qtot 163.263116
 4304         c3    163    ccc     C3   4304 0.04732600  12.010000   ; qtot 163.310442
 4305         h1    163    ccc     H5   4305 0.07030200   1.008000   ; qtot 163.380744
 4306         h1    163    ccc     H6   4306 0.07030200   1.008000   ; qtot 163.451046
 4307         n4    163    ccc     N1   4307 -0.21077700  14.010000   ; qtot 163.240269
 4308         hn    163    ccc     H7   4308 0.28399900   1.008000   ; qtot 163.524268
 4309         hn    163    ccc     H8   4309 0.28399900   1.008000   ; qtot 163.808267
 4310         os    163    ccc     O1   4310 -0.09200600  16.000000   ; qtot 163.716261
 4311         hn    163    ccc    H17   4311 0.28399900   1.008000   ; qtot 164.000260
; residue  164 ccc rtp ccc q 1.0
 4312         c3    164    ccc     C1   4312 0.17060900  12.010000   ; qtot 164.170869
 4313         hx    164    ccc     H1   4313 0.04213200   1.008000   ; qtot 164.213001
 4314         hx    164    ccc     H2   4314 0.04213200   1.008000   ; qtot 164.255133
 4315         c3    164    ccc     C2   4315 -0.04496700  12.010000   ; qtot 164.210166
 4316         hc    164    ccc     H3   4316 0.02647500   1.008000   ; qtot 164.236641
 4317         hc    164    ccc     H4   4317 0.02647500   1.008000   ; qtot 164.263116
 4318         c3    164    ccc     C3   4318 0.04732600  12.010000   ; qtot 164.310442
 4319         h1    164    ccc     H5   4319 0.07030200   1.008000   ; qtot 164.380744
 4320         h1    164    ccc     H6   4320 0.07030200   1.008000   ; qtot 164.451046
 4321         n4    164    ccc     N1   4321 -0.21077700  14.010000   ; qtot 164.240269
 4322         hn    164    ccc     H7   4322 0.28399900   1.008000   ; qtot 164.524268
 4323         hn    164    ccc     H8   4323 0.28399900   1.008000   ; qtot 164.808267
 4324         os    164    ccc     O1   4324 -0.09200600  16.000000   ; qtot 164.716261
 4325         hn    164    ccc    H17   4325 0.28399900   1.008000   ; qtot 165.000260
; residue  165 ccc rtp ccc q 1.0
 4326         c3    165    ccc     C1   4326 0.17060900  12.010000   ; qtot 165.170869
 4327         hx    165    ccc     H1   4327 0.04213200   1.008000   ; qtot 165.213001
 4328         hx    165    ccc     H2   4328 0.04213200   1.008000   ; qtot 165.255133
 4329         c3    165    ccc     C2   4329 -0.04496700  12.010000   ; qtot 165.210166
 4330         hc    165    ccc     H3   4330 0.02647500   1.008000   ; qtot 165.236641
 4331         hc    165    ccc     H4   4331 0.02647500   1.008000   ; qtot 165.263116
 4332         c3    165    ccc     C3   4332 0.04732600  12.010000   ; qtot 165.310442
 4333         h1    165    ccc     H5   4333 0.07030200   1.008000   ; qtot 165.380744
 4334         h1    165    ccc     H6   4334 0.07030200   1.008000   ; qtot 165.451046
 4335         n4    165    ccc     N1   4335 -0.21077700  14.010000   ; qtot 165.240269
 4336         hn    165    ccc     H7   4336 0.28399900   1.008000   ; qtot 165.524268
 4337         hn    165    ccc     H8   4337 0.28399900   1.008000   ; qtot 165.808267
 4338         os    165    ccc     O1   4338 -0.09200600  16.000000   ; qtot 165.716261
 4339         hn    165    ccc    H17   4339 0.28399900   1.008000   ; qtot 166.000260
; residue  166 ccc rtp ccc q 1.0
 4340         c3    166    ccc     C1   4340 0.17060900  12.010000   ; qtot 166.170869
 4341         hx    166    ccc     H1   4341 0.04213200   1.008000   ; qtot 166.213001
 4342         hx    166    ccc     H2   4342 0.04213200   1.008000   ; qtot 166.255133
 4343         c3    166    ccc     C2   4343 -0.04496700  12.010000   ; qtot 166.210166
 4344         hc    166    ccc     H3   4344 0.02647500   1.008000   ; qtot 166.236641
 4345         hc    166    ccc     H4   4345 0.02647500   1.008000   ; qtot 166.263116
 4346         c3    166    ccc     C3   4346 0.04732600  12.010000   ; qtot 166.310442
 4347         h1    166    ccc     H5   4347 0.07030200   1.008000   ; qtot 166.380744
 4348         h1    166    ccc     H6   4348 0.07030200   1.008000   ; qtot 166.451046
 4349         n4    166    ccc     N1   4349 -0.21077700  14.010000   ; qtot 166.240269
 4350         hn    166    ccc     H7   4350 0.28399900   1.008000   ; qtot 166.524268
 4351         hn    166    ccc     H8   4351 0.28399900   1.008000   ; qtot 166.808267
 4352         os    166    ccc     O1   4352 -0.09200600  16.000000   ; qtot 166.716261
 4353         hn    166    ccc    H17   4353 0.28399900   1.008000   ; qtot 167.000260
; residue  167 ccc rtp ccc q 1.0
 4354         c3    167    ccc     C1   4354 0.17060900  12.010000   ; qtot 167.170869
 4355         hx    167    ccc     H1   4355 0.04213200   1.008000   ; qtot 167.213001
 4356         hx    167    ccc     H2   4356 0.04213200   1.008000   ; qtot 167.255133
 4357         c3    167    ccc     C2   4357 -0.04496700  12.010000   ; qtot 167.210166
 4358         hc    167    ccc     H3   4358 0.02647500   1.008000   ; qtot 167.236641
 4359         hc    167    ccc     H4   4359 0.02647500   1.008000   ; qtot 167.263116
 4360         c3    167    ccc     C3   4360 0.04732600  12.010000   ; qtot 167.310442
 4361         h1    167    ccc     H5   4361 0.07030200   1.008000   ; qtot 167.380744
 4362         h1    167    ccc     H6   4362 0.07030200   1.008000   ; qtot 167.451046
 4363         n4    167    ccc     N1   4363 -0.21077700  14.010000   ; qtot 167.240269
 4364         hn    167    ccc     H7   4364 0.28399900   1.008000   ; qtot 167.524268
 4365         hn    167    ccc     H8   4365 0.28399900   1.008000   ; qtot 167.808267
 4366         os    167    ccc     O1   4366 -0.09200600  16.000000   ; qtot 167.716261
 4367         hn    167    ccc    H17   4367 0.28399900   1.008000   ; qtot 168.000260
; residue  168 ccc rtp ccc q 1.0
 4368         c3    168    ccc     C1   4368 0.17060900  12.010000   ; qtot 168.170869
 4369         hx    168    ccc     H1   4369 0.04213200   1.008000   ; qtot 168.213001
 4370         hx    168    ccc     H2   4370 0.04213200   1.008000   ; qtot 168.255133
 4371         c3    168    ccc     C2   4371 -0.04496700  12.010000   ; qtot 168.210166
 4372         hc    168    ccc     H3   4372 0.02647500   1.008000   ; qtot 168.236641
 4373         hc    168    ccc     H4   4373 0.02647500   1.008000   ; qtot 168.263116
 4374         c3    168    ccc     C3   4374 0.04732600  12.010000   ; qtot 168.310442
 4375         h1    168    ccc     H5   4375 0.07030200   1.008000   ; qtot 168.380744
 4376         h1    168    ccc     H6   4376 0.07030200   1.008000   ; qtot 168.451046
 4377         n4    168    ccc     N1   4377 -0.21077700  14.010000   ; qtot 168.240269
 4378         hn    168    ccc     H7   4378 0.28399900   1.008000   ; qtot 168.524268
 4379         hn    168    ccc     H8   4379 0.28399900   1.008000   ; qtot 168.808267
 4380         os    168    ccc     O1   4380 -0.09200600  16.000000   ; qtot 168.716261
 4381         hn    168    ccc    H17   4381 0.28399900   1.008000   ; qtot 169.000260
; residue  169 ccc rtp ccc q 1.0
 4382         c3    169    ccc     C1   4382 0.17060900  12.010000   ; qtot 169.170869
 4383         hx    169    ccc     H1   4383 0.04213200   1.008000   ; qtot 169.213001
 4384         hx    169    ccc     H2   4384 0.04213200   1.008000   ; qtot 169.255133
 4385         c3    169    ccc     C2   4385 -0.04496700  12.010000   ; qtot 169.210166
 4386         hc    169    ccc     H3   4386 0.02647500   1.008000   ; qtot 169.236641
 4387         hc    169    ccc     H4   4387 0.02647500   1.008000   ; qtot 169.263116
 4388         c3    169    ccc     C3   4388 0.04732600  12.010000   ; qtot 169.310442
 4389         h1    169    ccc     H5   4389 0.07030200   1.008000   ; qtot 169.380744
 4390         h1    169    ccc     H6   4390 0.07030200   1.008000   ; qtot 169.451046
 4391         n4    169    ccc     N1   4391 -0.21077700  14.010000   ; qtot 169.240269
 4392         hn    169    ccc     H7   4392 0.28399900   1.008000   ; qtot 169.524268
 4393         hn    169    ccc     H8   4393 0.28399900   1.008000   ; qtot 169.808267
 4394         os    169    ccc     O1   4394 -0.09200600  16.000000   ; qtot 169.716261
 4395         hn    169    ccc    H17   4395 0.28399900   1.008000   ; qtot 170.000260
; residue  170 ccc rtp ccc q 1.0
 4396         c3    170    ccc     C1   4396 0.17060900  12.010000   ; qtot 170.170869
 4397         hx    170    ccc     H1   4397 0.04213200   1.008000   ; qtot 170.213001
 4398         hx    170    ccc     H2   4398 0.04213200   1.008000   ; qtot 170.255133
 4399         c3    170    ccc     C2   4399 -0.04496700  12.010000   ; qtot 170.210166
 4400         hc    170    ccc     H3   4400 0.02647500   1.008000   ; qtot 170.236641
 4401         hc    170    ccc     H4   4401 0.02647500   1.008000   ; qtot 170.263116
 4402         c3    170    ccc     C3   4402 0.04732600  12.010000   ; qtot 170.310442
 4403         h1    170    ccc     H5   4403 0.07030200   1.008000   ; qtot 170.380744
 4404         h1    170    ccc     H6   4404 0.07030200   1.008000   ; qtot 170.451046
 4405         n4    170    ccc     N1   4405 -0.21077700  14.010000   ; qtot 170.240269
 4406         hn    170    ccc     H7   4406 0.28399900   1.008000   ; qtot 170.524268
 4407         hn    170    ccc     H8   4407 0.28399900   1.008000   ; qtot 170.808267
 4408         os    170    ccc     O1   4408 -0.09200600  16.000000   ; qtot 170.716261
 4409         hn    170    ccc    H17   4409 0.28399900   1.008000   ; qtot 171.000260
; residue  171 ccc rtp ccc q 1.0
 4410         c3    171    ccc     C1   4410 0.17060900  12.010000   ; qtot 171.170869
 4411         hx    171    ccc     H1   4411 0.04213200   1.008000   ; qtot 171.213001
 4412         hx    171    ccc     H2   4412 0.04213200   1.008000   ; qtot 171.255133
 4413         c3    171    ccc     C2   4413 -0.04496700  12.010000   ; qtot 171.210166
 4414         hc    171    ccc     H3   4414 0.02647500   1.008000   ; qtot 171.236641
 4415         hc    171    ccc     H4   4415 0.02647500   1.008000   ; qtot 171.263116
 4416         c3    171    ccc     C3   4416 0.04732600  12.010000   ; qtot 171.310442
 4417         h1    171    ccc     H5   4417 0.07030200   1.008000   ; qtot 171.380744
 4418         h1    171    ccc     H6   4418 0.07030200   1.008000   ; qtot 171.451046
 4419         n4    171    ccc     N1   4419 -0.21077700  14.010000   ; qtot 171.240269
 4420         hn    171    ccc     H7   4420 0.28399900   1.008000   ; qtot 171.524268
 4421         hn    171    ccc     H8   4421 0.28399900   1.008000   ; qtot 171.808267
 4422         os    171    ccc     O1   4422 -0.09200600  16.000000   ; qtot 171.716261
 4423         hn    171    ccc    H17   4423 0.28399900   1.008000   ; qtot 172.000260
; residue  172 ccc rtp ccc q 1.0
 4424         c3    172    ccc     C1   4424 0.17060900  12.010000   ; qtot 172.170869
 4425         hx    172    ccc     H1   4425 0.04213200   1.008000   ; qtot 172.213001
 4426         hx    172    ccc     H2   4426 0.04213200   1.008000   ; qtot 172.255133
 4427         c3    172    ccc     C2   4427 -0.04496700  12.010000   ; qtot 172.210166
 4428         hc    172    ccc     H3   4428 0.02647500   1.008000   ; qtot 172.236641
 4429         hc    172    ccc     H4   4429 0.02647500   1.008000   ; qtot 172.263116
 4430         c3    172    ccc     C3   4430 0.04732600  12.010000   ; qtot 172.310442
 4431         h1    172    ccc     H5   4431 0.07030200   1.008000   ; qtot 172.380744
 4432         h1    172    ccc     H6   4432 0.07030200   1.008000   ; qtot 172.451046
 4433         n4    172    ccc     N1   4433 -0.21077700  14.010000   ; qtot 172.240269
 4434         hn    172    ccc     H7   4434 0.28399900   1.008000   ; qtot 172.524268
 4435         hn    172    ccc     H8   4435 0.28399900   1.008000   ; qtot 172.808267
 4436         os    172    ccc     O1   4436 -0.09200600  16.000000   ; qtot 172.716261
 4437         hn    172    ccc    H17   4437 0.28399900   1.008000   ; qtot 173.000260
; residue  173 ccc rtp ccc q 1.0
 4438         c3    173    ccc     C1   4438 0.17060900  12.010000   ; qtot 173.170869
 4439         hx    173    ccc     H1   4439 0.04213200   1.008000   ; qtot 173.213001
 4440         hx    173    ccc     H2   4440 0.04213200   1.008000   ; qtot 173.255133
 4441         c3    173    ccc     C2   4441 -0.04496700  12.010000   ; qtot 173.210166
 4442         hc    173    ccc     H3   4442 0.02647500   1.008000   ; qtot 173.236641
 4443         hc    173    ccc     H4   4443 0.02647500   1.008000   ; qtot 173.263116
 4444         c3    173    ccc     C3   4444 0.04732600  12.010000   ; qtot 173.310442
 4445         h1    173    ccc     H5   4445 0.07030200   1.008000   ; qtot 173.380744
 4446         h1    173    ccc     H6   4446 0.07030200   1.008000   ; qtot 173.451046
 4447         n4    173    ccc     N1   4447 -0.21077700  14.010000   ; qtot 173.240269
 4448         hn    173    ccc     H7   4448 0.28399900   1.008000   ; qtot 173.524268
 4449         hn    173    ccc     H8   4449 0.28399900   1.008000   ; qtot 173.808267
 4450         os    173    ccc     O1   4450 -0.09200600  16.000000   ; qtot 173.716261
 4451         hn    173    ccc    H17   4451 0.28399900   1.008000   ; qtot 174.000260
; residue  174 ccc rtp ccc q 1.0
 4452         c3    174    ccc     C1   4452 0.17060900  12.010000   ; qtot 174.170869
 4453         hx    174    ccc     H1   4453 0.04213200   1.008000   ; qtot 174.213001
 4454         hx    174    ccc     H2   4454 0.04213200   1.008000   ; qtot 174.255133
 4455         c3    174    ccc     C2   4455 -0.04496700  12.010000   ; qtot 174.210166
 4456         hc    174    ccc     H3   4456 0.02647500   1.008000   ; qtot 174.236641
 4457         hc    174    ccc     H4   4457 0.02647500   1.008000   ; qtot 174.263116
 4458         c3    174    ccc     C3   4458 0.04732600  12.010000   ; qtot 174.310442
 4459         h1    174    ccc     H5   4459 0.07030200   1.008000   ; qtot 174.380744
 4460         h1    174    ccc     H6   4460 0.07030200   1.008000   ; qtot 174.451046
 4461         n4    174    ccc     N1   4461 -0.21077700  14.010000   ; qtot 174.240269
 4462         hn    174    ccc     H7   4462 0.28399900   1.008000   ; qtot 174.524268
 4463         hn    174    ccc     H8   4463 0.28399900   1.008000   ; qtot 174.808267
 4464         os    174    ccc     O1   4464 -0.09200600  16.000000   ; qtot 174.716261
 4465         hn    174    ccc    H17   4465 0.28399900   1.008000   ; qtot 175.000260
; residue  175 ccc rtp ccc q 1.0
 4466         c3    175    ccc     C1   4466 0.17060900  12.010000   ; qtot 175.170869
 4467         hx    175    ccc     H1   4467 0.04213200   1.008000   ; qtot 175.213001
 4468         hx    175    ccc     H2   4468 0.04213200   1.008000   ; qtot 175.255133
 4469         c3    175    ccc     C2   4469 -0.04496700  12.010000   ; qtot 175.210166
 4470         hc    175    ccc     H3   4470 0.02647500   1.008000   ; qtot 175.236641
 4471         hc    175    ccc     H4   4471 0.02647500   1.008000   ; qtot 175.263116
 4472         c3    175    ccc     C3   4472 0.04732600  12.010000   ; qtot 175.310442
 4473         h1    175    ccc     H5   4473 0.07030200   1.008000   ; qtot 175.380744
 4474         h1    175    ccc     H6   4474 0.07030200   1.008000   ; qtot 175.451046
 4475         n4    175    ccc     N1   4475 -0.21077700  14.010000   ; qtot 175.240269
 4476         hn    175    ccc     H7   4476 0.28399900   1.008000   ; qtot 175.524268
 4477         hn    175    ccc     H8   4477 0.28399900   1.008000   ; qtot 175.808267
 4478         os    175    ccc     O1   4478 -0.09200600  16.000000   ; qtot 175.716261
 4479         hn    175    ccc    H17   4479 0.28399900   1.008000   ; qtot 176.000260
; residue  176 ccc rtp ccc q 1.0
 4480         c3    176    ccc     C1   4480 0.17060900  12.010000   ; qtot 176.170869
 4481         hx    176    ccc     H1   4481 0.04213200   1.008000   ; qtot 176.213001
 4482         hx    176    ccc     H2   4482 0.04213200   1.008000   ; qtot 176.255133
 4483         c3    176    ccc     C2   4483 -0.04496700  12.010000   ; qtot 176.210166
 4484         hc    176    ccc     H3   4484 0.02647500   1.008000   ; qtot 176.236641
 4485         hc    176    ccc     H4   4485 0.02647500   1.008000   ; qtot 176.263116
 4486         c3    176    ccc     C3   4486 0.04732600  12.010000   ; qtot 176.310442
 4487         h1    176    ccc     H5   4487 0.07030200   1.008000   ; qtot 176.380744
 4488         h1    176    ccc     H6   4488 0.07030200   1.008000   ; qtot 176.451046
 4489         n4    176    ccc     N1   4489 -0.21077700  14.010000   ; qtot 176.240269
 4490         hn    176    ccc     H7   4490 0.28399900   1.008000   ; qtot 176.524268
 4491         hn    176    ccc     H8   4491 0.28399900   1.008000   ; qtot 176.808267
 4492         os    176    ccc     O1   4492 -0.09200600  16.000000   ; qtot 176.716261
 4493         hn    176    ccc    H17   4493 0.28399900   1.008000   ; qtot 177.000260
; residue  177 ccc rtp ccc q 1.0
 4494         c3    177    ccc     C1   4494 0.17060900  12.010000   ; qtot 177.170869
 4495         hx    177    ccc     H1   4495 0.04213200   1.008000   ; qtot 177.213001
 4496         hx    177    ccc     H2   4496 0.04213200   1.008000   ; qtot 177.255133
 4497         c3    177    ccc     C2   4497 -0.04496700  12.010000   ; qtot 177.210166
 4498         hc    177    ccc     H3   4498 0.02647500   1.008000   ; qtot 177.236641
 4499         hc    177    ccc     H4   4499 0.02647500   1.008000   ; qtot 177.263116
 4500         c3    177    ccc     C3   4500 0.04732600  12.010000   ; qtot 177.310442
 4501         h1    177    ccc     H5   4501 0.07030200   1.008000   ; qtot 177.380744
 4502         h1    177    ccc     H6   4502 0.07030200   1.008000   ; qtot 177.451046
 4503         n4    177    ccc     N1   4503 -0.21077700  14.010000   ; qtot 177.240269
 4504         hn    177    ccc     H7   4504 0.28399900   1.008000   ; qtot 177.524268
 4505         hn    177    ccc     H8   4505 0.28399900   1.008000   ; qtot 177.808267
 4506         os    177    ccc     O1   4506 -0.09200600  16.000000   ; qtot 177.716261
 4507         hn    177    ccc    H17   4507 0.28399900   1.008000   ; qtot 178.000260
; residue  178 ccc rtp ccc q 1.0
 4508         c3    178    ccc     C1   4508 0.17060900  12.010000   ; qtot 178.170869
 4509         hx    178    ccc     H1   4509 0.04213200   1.008000   ; qtot 178.213001
 4510         hx    178    ccc     H2   4510 0.04213200   1.008000   ; qtot 178.255133
 4511         c3    178    ccc     C2   4511 -0.04496700  12.010000   ; qtot 178.210166
 4512         hc    178    ccc     H3   4512 0.02647500   1.008000   ; qtot 178.236641
 4513         hc    178    ccc     H4   4513 0.02647500   1.008000   ; qtot 178.263116
 4514         c3    178    ccc     C3   4514 0.04732600  12.010000   ; qtot 178.310442
 4515         h1    178    ccc     H5   4515 0.07030200   1.008000   ; qtot 178.380744
 4516         h1    178    ccc     H6   4516 0.07030200   1.008000   ; qtot 178.451046
 4517         n4    178    ccc     N1   4517 -0.21077700  14.010000   ; qtot 178.240269
 4518         hn    178    ccc     H7   4518 0.28399900   1.008000   ; qtot 178.524268
 4519         hn    178    ccc     H8   4519 0.28399900   1.008000   ; qtot 178.808267
 4520         os    178    ccc     O1   4520 -0.09200600  16.000000   ; qtot 178.716261
 4521         hn    178    ccc    H17   4521 0.28399900   1.008000   ; qtot 179.000260
; residue  179 ccc rtp ccc q 1.0
 4522         c3    179    ccc     C1   4522 0.17060900  12.010000   ; qtot 179.170869
 4523         hx    179    ccc     H1   4523 0.04213200   1.008000   ; qtot 179.213001
 4524         hx    179    ccc     H2   4524 0.04213200   1.008000   ; qtot 179.255133
 4525         c3    179    ccc     C2   4525 -0.04496700  12.010000   ; qtot 179.210166
 4526         hc    179    ccc     H3   4526 0.02647500   1.008000   ; qtot 179.236641
 4527         hc    179    ccc     H4   4527 0.02647500   1.008000   ; qtot 179.263116
 4528         c3    179    ccc     C3   4528 0.04732600  12.010000   ; qtot 179.310442
 4529         h1    179    ccc     H5   4529 0.07030200   1.008000   ; qtot 179.380744
 4530         h1    179    ccc     H6   4530 0.07030200   1.008000   ; qtot 179.451046
 4531         n4    179    ccc     N1   4531 -0.21077700  14.010000   ; qtot 179.240269
 4532         hn    179    ccc     H7   4532 0.28399900   1.008000   ; qtot 179.524268
 4533         hn    179    ccc     H8   4533 0.28399900   1.008000   ; qtot 179.808267
 4534         os    179    ccc     O1   4534 -0.09200600  16.000000   ; qtot 179.716261
 4535         hn    179    ccc    H17   4535 0.28399900   1.008000   ; qtot 180.000260
; residue  180 ccc rtp ccc q 1.0
 4536         c3    180    ccc     C1   4536 0.17060900  12.010000   ; qtot 180.170869
 4537         hx    180    ccc     H1   4537 0.04213200   1.008000   ; qtot 180.213001
 4538         hx    180    ccc     H2   4538 0.04213200   1.008000   ; qtot 180.255133
 4539         c3    180    ccc     C2   4539 -0.04496700  12.010000   ; qtot 180.210166
 4540         hc    180    ccc     H3   4540 0.02647500   1.008000   ; qtot 180.236641
 4541         hc    180    ccc     H4   4541 0.02647500   1.008000   ; qtot 180.263116
 4542         c3    180    ccc     C3   4542 0.04732600  12.010000   ; qtot 180.310442
 4543         h1    180    ccc     H5   4543 0.07030200   1.008000   ; qtot 180.380744
 4544         h1    180    ccc     H6   4544 0.07030200   1.008000   ; qtot 180.451046
 4545         n4    180    ccc     N1   4545 -0.21077700  14.010000   ; qtot 180.240269
 4546         hn    180    ccc     H7   4546 0.28399900   1.008000   ; qtot 180.524268
 4547         hn    180    ccc     H8   4547 0.28399900   1.008000   ; qtot 180.808267
 4548         os    180    ccc     O1   4548 -0.09200600  16.000000   ; qtot 180.716261
 4549         hn    180    ccc    H17   4549 0.28399900   1.008000   ; qtot 181.000260
; residue  181 ccc rtp ccc q 1.0
 4550         c3    181    ccc     C1   4550 0.17060900  12.010000   ; qtot 181.170869
 4551         hx    181    ccc     H1   4551 0.04213200   1.008000   ; qtot 181.213001
 4552         hx    181    ccc     H2   4552 0.04213200   1.008000   ; qtot 181.255133
 4553         c3    181    ccc     C2   4553 -0.04496700  12.010000   ; qtot 181.210166
 4554         hc    181    ccc     H3   4554 0.02647500   1.008000   ; qtot 181.236641
 4555         hc    181    ccc     H4   4555 0.02647500   1.008000   ; qtot 181.263116
 4556         c3    181    ccc     C3   4556 0.04732600  12.010000   ; qtot 181.310442
 4557         h1    181    ccc     H5   4557 0.07030200   1.008000   ; qtot 181.380744
 4558         h1    181    ccc     H6   4558 0.07030200   1.008000   ; qtot 181.451046
 4559         n4    181    ccc     N1   4559 -0.21077700  14.010000   ; qtot 181.240269
 4560         hn    181    ccc     H7   4560 0.28399900   1.008000   ; qtot 181.524268
 4561         hn    181    ccc     H8   4561 0.28399900   1.008000   ; qtot 181.808267
 4562         os    181    ccc     O1   4562 -0.09200600  16.000000   ; qtot 181.716261
 4563         hn    181    ccc    H17   4563 0.28399900   1.008000   ; qtot 182.000260
; residue  182 ccc rtp ccc q 1.0
 4564         c3    182    ccc     C1   4564 0.17060900  12.010000   ; qtot 182.170869
 4565         hx    182    ccc     H1   4565 0.04213200   1.008000   ; qtot 182.213001
 4566         hx    182    ccc     H2   4566 0.04213200   1.008000   ; qtot 182.255133
 4567         c3    182    ccc     C2   4567 -0.04496700  12.010000   ; qtot 182.210166
 4568         hc    182    ccc     H3   4568 0.02647500   1.008000   ; qtot 182.236641
 4569         hc    182    ccc     H4   4569 0.02647500   1.008000   ; qtot 182.263116
 4570         c3    182    ccc     C3   4570 0.04732600  12.010000   ; qtot 182.310442
 4571         h1    182    ccc     H5   4571 0.07030200   1.008000   ; qtot 182.380744
 4572         h1    182    ccc     H6   4572 0.07030200   1.008000   ; qtot 182.451046
 4573         n4    182    ccc     N1   4573 -0.21077700  14.010000   ; qtot 182.240269
 4574         hn    182    ccc     H7   4574 0.28399900   1.008000   ; qtot 182.524268
 4575         hn    182    ccc     H8   4575 0.28399900   1.008000   ; qtot 182.808267
 4576         os    182    ccc     O1   4576 -0.09200600  16.000000   ; qtot 182.716261
 4577         hn    182    ccc    H17   4577 0.28399900   1.008000   ; qtot 183.000260
; residue  183 ccc rtp ccc q 1.0
 4578         c3    183    ccc     C1   4578 0.17060900  12.010000   ; qtot 183.170869
 4579         hx    183    ccc     H1   4579 0.04213200   1.008000   ; qtot 183.213001
 4580         hx    183    ccc     H2   4580 0.04213200   1.008000   ; qtot 183.255133
 4581         c3    183    ccc     C2   4581 -0.04496700  12.010000   ; qtot 183.210166
 4582         hc    183    ccc     H3   4582 0.02647500   1.008000   ; qtot 183.236641
 4583         hc    183    ccc     H4   4583 0.02647500   1.008000   ; qtot 183.263116
 4584         c3    183    ccc     C3   4584 0.04732600  12.010000   ; qtot 183.310442
 4585         h1    183    ccc     H5   4585 0.07030200   1.008000   ; qtot 183.380744
 4586         h1    183    ccc     H6   4586 0.07030200   1.008000   ; qtot 183.451046
 4587         n4    183    ccc     N1   4587 -0.21077700  14.010000   ; qtot 183.240269
 4588         hn    183    ccc     H7   4588 0.28399900   1.008000   ; qtot 183.524268
 4589         hn    183    ccc     H8   4589 0.28399900   1.008000   ; qtot 183.808267
 4590         os    183    ccc     O1   4590 -0.09200600  16.000000   ; qtot 183.716261
 4591         hn    183    ccc    H17   4591 0.28399900   1.008000   ; qtot 184.000260
; residue  184 ccc rtp ccc q 1.0
 4592         c3    184    ccc     C1   4592 0.17060900  12.010000   ; qtot 184.170869
 4593         hx    184    ccc     H1   4593 0.04213200   1.008000   ; qtot 184.213001
 4594         hx    184    ccc     H2   4594 0.04213200   1.008000   ; qtot 184.255133
 4595         c3    184    ccc     C2   4595 -0.04496700  12.010000   ; qtot 184.210166
 4596         hc    184    ccc     H3   4596 0.02647500   1.008000   ; qtot 184.236641
 4597         hc    184    ccc     H4   4597 0.02647500   1.008000   ; qtot 184.263116
 4598         c3    184    ccc     C3   4598 0.04732600  12.010000   ; qtot 184.310442
 4599         h1    184    ccc     H5   4599 0.07030200   1.008000   ; qtot 184.380744
 4600         h1    184    ccc     H6   4600 0.07030200   1.008000   ; qtot 184.451046
 4601         n4    184    ccc     N1   4601 -0.21077700  14.010000   ; qtot 184.240269
 4602         hn    184    ccc     H7   4602 0.28399900   1.008000   ; qtot 184.524268
 4603         hn    184    ccc     H8   4603 0.28399900   1.008000   ; qtot 184.808267
 4604         os    184    ccc     O1   4604 -0.09200600  16.000000   ; qtot 184.716261
 4605         hn    184    ccc    H17   4605 0.28399900   1.008000   ; qtot 185.000260
; residue  185 ccc rtp ccc q 1.0
 4606         c3    185    ccc     C1   4606 0.17060900  12.010000   ; qtot 185.170869
 4607         hx    185    ccc     H1   4607 0.04213200   1.008000   ; qtot 185.213001
 4608         hx    185    ccc     H2   4608 0.04213200   1.008000   ; qtot 185.255133
 4609         c3    185    ccc     C2   4609 -0.04496700  12.010000   ; qtot 185.210166
 4610         hc    185    ccc     H3   4610 0.02647500   1.008000   ; qtot 185.236641
 4611         hc    185    ccc     H4   4611 0.02647500   1.008000   ; qtot 185.263116
 4612         c3    185    ccc     C3   4612 0.04732600  12.010000   ; qtot 185.310442
 4613         h1    185    ccc     H5   4613 0.07030200   1.008000   ; qtot 185.380744
 4614         h1    185    ccc     H6   4614 0.07030200   1.008000   ; qtot 185.451046
 4615         n4    185    ccc     N1   4615 -0.21077700  14.010000   ; qtot 185.240269
 4616         hn    185    ccc     H7   4616 0.28399900   1.008000   ; qtot 185.524268
 4617         hn    185    ccc     H8   4617 0.28399900   1.008000   ; qtot 185.808267
 4618         os    185    ccc     O1   4618 -0.09200600  16.000000   ; qtot 185.716261
 4619         hn    185    ccc    H17   4619 0.28399900   1.008000   ; qtot 186.000260
; residue  186 ccc rtp ccc q 1.0
 4620         c3    186    ccc     C1   4620 0.17060900  12.010000   ; qtot 186.170869
 4621         hx    186    ccc     H1   4621 0.04213200   1.008000   ; qtot 186.213001
 4622         hx    186    ccc     H2   4622 0.04213200   1.008000   ; qtot 186.255133
 4623         c3    186    ccc     C2   4623 -0.04496700  12.010000   ; qtot 186.210166
 4624         hc    186    ccc     H3   4624 0.02647500   1.008000   ; qtot 186.236641
 4625         hc    186    ccc     H4   4625 0.02647500   1.008000   ; qtot 186.263116
 4626         c3    186    ccc     C3   4626 0.04732600  12.010000   ; qtot 186.310442
 4627         h1    186    ccc     H5   4627 0.07030200   1.008000   ; qtot 186.380744
 4628         h1    186    ccc     H6   4628 0.07030200   1.008000   ; qtot 186.451046
 4629         n4    186    ccc     N1   4629 -0.21077700  14.010000   ; qtot 186.240269
 4630         hn    186    ccc     H7   4630 0.28399900   1.008000   ; qtot 186.524268
 4631         hn    186    ccc     H8   4631 0.28399900   1.008000   ; qtot 186.808267
 4632         os    186    ccc     O1   4632 -0.09200600  16.000000   ; qtot 186.716261
 4633         hn    186    ccc    H17   4633 0.28399900   1.008000   ; qtot 187.000260
; residue  187 ccc rtp ccc q 1.0
 4634         c3    187    ccc     C1   4634 0.17060900  12.010000   ; qtot 187.170869
 4635         hx    187    ccc     H1   4635 0.04213200   1.008000   ; qtot 187.213001
 4636         hx    187    ccc     H2   4636 0.04213200   1.008000   ; qtot 187.255133
 4637         c3    187    ccc     C2   4637 -0.04496700  12.010000   ; qtot 187.210166
 4638         hc    187    ccc     H3   4638 0.02647500   1.008000   ; qtot 187.236641
 4639         hc    187    ccc     H4   4639 0.02647500   1.008000   ; qtot 187.263116
 4640         c3    187    ccc     C3   4640 0.04732600  12.010000   ; qtot 187.310442
 4641         h1    187    ccc     H5   4641 0.07030200   1.008000   ; qtot 187.380744
 4642         h1    187    ccc     H6   4642 0.07030200   1.008000   ; qtot 187.451046
 4643         n4    187    ccc     N1   4643 -0.21077700  14.010000   ; qtot 187.240269
 4644         hn    187    ccc     H7   4644 0.28399900   1.008000   ; qtot 187.524268
 4645         hn    187    ccc     H8   4645 0.28399900   1.008000   ; qtot 187.808267
 4646         os    187    ccc     O1   4646 -0.09200600  16.000000   ; qtot 187.716261
 4647         hn    187    ccc    H17   4647 0.28399900   1.008000   ; qtot 188.000260
; residue  188 ccc rtp ccc q 1.0
 4648         c3    188    ccc     C1   4648 0.17060900  12.010000   ; qtot 188.170869
 4649         hx    188    ccc     H1   4649 0.04213200   1.008000   ; qtot 188.213001
 4650         hx    188    ccc     H2   4650 0.04213200   1.008000   ; qtot 188.255133
 4651         c3    188    ccc     C2   4651 -0.04496700  12.010000   ; qtot 188.210166
 4652         hc    188    ccc     H3   4652 0.02647500   1.008000   ; qtot 188.236641
 4653         hc    188    ccc     H4   4653 0.02647500   1.008000   ; qtot 188.263116
 4654         c3    188    ccc     C3   4654 0.04732600  12.010000   ; qtot 188.310442
 4655         h1    188    ccc     H5   4655 0.07030200   1.008000   ; qtot 188.380744
 4656         h1    188    ccc     H6   4656 0.07030200   1.008000   ; qtot 188.451046
 4657         n4    188    ccc     N1   4657 -0.21077700  14.010000   ; qtot 188.240269
 4658         hn    188    ccc     H7   4658 0.28399900   1.008000   ; qtot 188.524268
 4659         hn    188    ccc     H8   4659 0.28399900   1.008000   ; qtot 188.808267
 4660         os    188    ccc     O1   4660 -0.09200600  16.000000   ; qtot 188.716261
 4661         hn    188    ccc    H17   4661 0.28399900   1.008000   ; qtot 189.000260
; residue  189 ccc rtp ccc q 1.0
 4662         c3    189    ccc     C1   4662 0.17060900  12.010000   ; qtot 189.170869
 4663         hx    189    ccc     H1   4663 0.04213200   1.008000   ; qtot 189.213001
 4664         hx    189    ccc     H2   4664 0.04213200   1.008000   ; qtot 189.255133
 4665         c3    189    ccc     C2   4665 -0.04496700  12.010000   ; qtot 189.210166
 4666         hc    189    ccc     H3   4666 0.02647500   1.008000   ; qtot 189.236641
 4667         hc    189    ccc     H4   4667 0.02647500   1.008000   ; qtot 189.263116
 4668         c3    189    ccc     C3   4668 0.04732600  12.010000   ; qtot 189.310442
 4669         h1    189    ccc     H5   4669 0.07030200   1.008000   ; qtot 189.380744
 4670         h1    189    ccc     H6   4670 0.07030200   1.008000   ; qtot 189.451046
 4671         n4    189    ccc     N1   4671 -0.21077700  14.010000   ; qtot 189.240269
 4672         hn    189    ccc     H7   4672 0.28399900   1.008000   ; qtot 189.524268
 4673         hn    189    ccc     H8   4673 0.28399900   1.008000   ; qtot 189.808267
 4674         os    189    ccc     O1   4674 -0.09200600  16.000000   ; qtot 189.716261
 4675         hn    189    ccc    H17   4675 0.28399900   1.008000   ; qtot 190.000260
; residue  190 ccc rtp ccc q 1.0
 4676         c3    190    ccc     C1   4676 0.17060900  12.010000   ; qtot 190.170869
 4677         hx    190    ccc     H1   4677 0.04213200   1.008000   ; qtot 190.213001
 4678         hx    190    ccc     H2   4678 0.04213200   1.008000   ; qtot 190.255133
 4679         c3    190    ccc     C2   4679 -0.04496700  12.010000   ; qtot 190.210166
 4680         hc    190    ccc     H3   4680 0.02647500   1.008000   ; qtot 190.236641
 4681         hc    190    ccc     H4   4681 0.02647500   1.008000   ; qtot 190.263116
 4682         c3    190    ccc     C3   4682 0.04732600  12.010000   ; qtot 190.310442
 4683         h1    190    ccc     H5   4683 0.07030200   1.008000   ; qtot 190.380744
 4684         h1    190    ccc     H6   4684 0.07030200   1.008000   ; qtot 190.451046
 4685         n4    190    ccc     N1   4685 -0.21077700  14.010000   ; qtot 190.240269
 4686         hn    190    ccc     H7   4686 0.28399900   1.008000   ; qtot 190.524268
 4687         hn    190    ccc     H8   4687 0.28399900   1.008000   ; qtot 190.808267
 4688         os    190    ccc     O1   4688 -0.09200600  16.000000   ; qtot 190.716261
 4689         hn    190    ccc    H17   4689 0.28399900   1.008000   ; qtot 191.000260
; residue  191 ccc rtp ccc q 1.0
 4690         c3    191    ccc     C1   4690 0.17060900  12.010000   ; qtot 191.170869
 4691         hx    191    ccc     H1   4691 0.04213200   1.008000   ; qtot 191.213001
 4692         hx    191    ccc     H2   4692 0.04213200   1.008000   ; qtot 191.255133
 4693         c3    191    ccc     C2   4693 -0.04496700  12.010000   ; qtot 191.210166
 4694         hc    191    ccc     H3   4694 0.02647500   1.008000   ; qtot 191.236641
 4695         hc    191    ccc     H4   4695 0.02647500   1.008000   ; qtot 191.263116
 4696         c3    191    ccc     C3   4696 0.04732600  12.010000   ; qtot 191.310442
 4697         h1    191    ccc     H5   4697 0.07030200   1.008000   ; qtot 191.380744
 4698         h1    191    ccc     H6   4698 0.07030200   1.008000   ; qtot 191.451046
 4699         n4    191    ccc     N1   4699 -0.21077700  14.010000   ; qtot 191.240269
 4700         hn    191    ccc     H7   4700 0.28399900   1.008000   ; qtot 191.524268
 4701         hn    191    ccc     H8   4701 0.28399900   1.008000   ; qtot 191.808267
 4702         os    191    ccc     O1   4702 -0.09200600  16.000000   ; qtot 191.716261
 4703         hn    191    ccc    H17   4703 0.28399900   1.008000   ; qtot 192.000260
; residue  192 ccc rtp ccc q 1.0
 4704         c3    192    ccc     C1   4704 0.17060900  12.010000   ; qtot 192.170869
 4705         hx    192    ccc     H1   4705 0.04213200   1.008000   ; qtot 192.213001
 4706         hx    192    ccc     H2   4706 0.04213200   1.008000   ; qtot 192.255133
 4707         c3    192    ccc     C2   4707 -0.04496700  12.010000   ; qtot 192.210166
 4708         hc    192    ccc     H3   4708 0.02647500   1.008000   ; qtot 192.236641
 4709         hc    192    ccc     H4   4709 0.02647500   1.008000   ; qtot 192.263116
 4710         c3    192    ccc     C3   4710 0.04732600  12.010000   ; qtot 192.310442
 4711         h1    192    ccc     H5   4711 0.07030200   1.008000   ; qtot 192.380744
 4712         h1    192    ccc     H6   4712 0.07030200   1.008000   ; qtot 192.451046
 4713         n4    192    ccc     N1   4713 -0.21077700  14.010000   ; qtot 192.240269
 4714         hn    192    ccc     H7   4714 0.28399900   1.008000   ; qtot 192.524268
 4715         hn    192    ccc     H8   4715 0.28399900   1.008000   ; qtot 192.808267
 4716         os    192    ccc     O1   4716 -0.09200600  16.000000   ; qtot 192.716261
 4717         hn    192    ccc    H17   4717 0.28399900   1.008000   ; qtot 193.000260
; residue  193 ccc rtp ccc q 1.0
 4718         c3    193    ccc     C1   4718 0.17060900  12.010000   ; qtot 193.170869
 4719         hx    193    ccc     H1   4719 0.04213200   1.008000   ; qtot 193.213001
 4720         hx    193    ccc     H2   4720 0.04213200   1.008000   ; qtot 193.255133
 4721         c3    193    ccc     C2   4721 -0.04496700  12.010000   ; qtot 193.210166
 4722         hc    193    ccc     H3   4722 0.02647500   1.008000   ; qtot 193.236641
 4723         hc    193    ccc     H4   4723 0.02647500   1.008000   ; qtot 193.263116
 4724         c3    193    ccc     C3   4724 0.04732600  12.010000   ; qtot 193.310442
 4725         h1    193    ccc     H5   4725 0.07030200   1.008000   ; qtot 193.380744
 4726         h1    193    ccc     H6   4726 0.07030200   1.008000   ; qtot 193.451046
 4727         n4    193    ccc     N1   4727 -0.21077700  14.010000   ; qtot 193.240269
 4728         hn    193    ccc     H7   4728 0.28399900   1.008000   ; qtot 193.524268
 4729         hn    193    ccc     H8   4729 0.28399900   1.008000   ; qtot 193.808267
 4730         os    193    ccc     O1   4730 -0.09200600  16.000000   ; qtot 193.716261
 4731         hn    193    ccc    H17   4731 0.28399900   1.008000   ; qtot 194.000260
; residue  194 ccc rtp ccc q 1.0
 4732         c3    194    ccc     C1   4732 0.17060900  12.010000   ; qtot 194.170869
 4733         hx    194    ccc     H1   4733 0.04213200   1.008000   ; qtot 194.213001
 4734         hx    194    ccc     H2   4734 0.04213200   1.008000   ; qtot 194.255133
 4735         c3    194    ccc     C2   4735 -0.04496700  12.010000   ; qtot 194.210166
 4736         hc    194    ccc     H3   4736 0.02647500   1.008000   ; qtot 194.236641
 4737         hc    194    ccc     H4   4737 0.02647500   1.008000   ; qtot 194.263116
 4738         c3    194    ccc     C3   4738 0.04732600  12.010000   ; qtot 194.310442
 4739         h1    194    ccc     H5   4739 0.07030200   1.008000   ; qtot 194.380744
 4740         h1    194    ccc     H6   4740 0.07030200   1.008000   ; qtot 194.451046
 4741         n4    194    ccc     N1   4741 -0.21077700  14.010000   ; qtot 194.240269
 4742         hn    194    ccc     H7   4742 0.28399900   1.008000   ; qtot 194.524268
 4743         hn    194    ccc     H8   4743 0.28399900   1.008000   ; qtot 194.808267
 4744         os    194    ccc     O1   4744 -0.09200600  16.000000   ; qtot 194.716261
 4745         hn    194    ccc    H17   4745 0.28399900   1.008000   ; qtot 195.000260
; residue  195 ccc rtp ccc q 1.0
 4746         c3    195    ccc     C1   4746 0.17060900  12.010000   ; qtot 195.170869
 4747         hx    195    ccc     H1   4747 0.04213200   1.008000   ; qtot 195.213001
 4748         hx    195    ccc     H2   4748 0.04213200   1.008000   ; qtot 195.255133
 4749         c3    195    ccc     C2   4749 -0.04496700  12.010000   ; qtot 195.210166
 4750         hc    195    ccc     H3   4750 0.02647500   1.008000   ; qtot 195.236641
 4751         hc    195    ccc     H4   4751 0.02647500   1.008000   ; qtot 195.263116
 4752         c3    195    ccc     C3   4752 0.04732600  12.010000   ; qtot 195.310442
 4753         h1    195    ccc     H5   4753 0.07030200   1.008000   ; qtot 195.380744
 4754         h1    195    ccc     H6   4754 0.07030200   1.008000   ; qtot 195.451046
 4755         n4    195    ccc     N1   4755 -0.21077700  14.010000   ; qtot 195.240269
 4756         hn    195    ccc     H7   4756 0.28399900   1.008000   ; qtot 195.524268
 4757         hn    195    ccc     H8   4757 0.28399900   1.008000   ; qtot 195.808267
 4758         os    195    ccc     O1   4758 -0.09200600  16.000000   ; qtot 195.716261
 4759         hn    195    ccc    H17   4759 0.28399900   1.008000   ; qtot 196.000260
; residue  196 ccc rtp ccc q 1.0
 4760         c3    196    ccc     C1   4760 0.17060900  12.010000   ; qtot 196.170869
 4761         hx    196    ccc     H1   4761 0.04213200   1.008000   ; qtot 196.213001
 4762         hx    196    ccc     H2   4762 0.04213200   1.008000   ; qtot 196.255133
 4763         c3    196    ccc     C2   4763 -0.04496700  12.010000   ; qtot 196.210166
 4764         hc    196    ccc     H3   4764 0.02647500   1.008000   ; qtot 196.236641
 4765         hc    196    ccc     H4   4765 0.02647500   1.008000   ; qtot 196.263116
 4766         c3    196    ccc     C3   4766 0.04732600  12.010000   ; qtot 196.310442
 4767         h1    196    ccc     H5   4767 0.07030200   1.008000   ; qtot 196.380744
 4768         h1    196    ccc     H6   4768 0.07030200   1.008000   ; qtot 196.451046
 4769         n4    196    ccc     N1   4769 -0.21077700  14.010000   ; qtot 196.240269
 4770         hn    196    ccc     H7   4770 0.28399900   1.008000   ; qtot 196.524268
 4771         hn    196    ccc     H8   4771 0.28399900   1.008000   ; qtot 196.808267
 4772         os    196    ccc     O1   4772 -0.09200600  16.000000   ; qtot 196.716261
 4773         hn    196    ccc    H17   4773 0.28399900   1.008000   ; qtot 197.000260
; residue  197 ccc rtp ccc q 1.0
 4774         c3    197    ccc     C1   4774 0.17060900  12.010000   ; qtot 197.170869
 4775         hx    197    ccc     H1   4775 0.04213200   1.008000   ; qtot 197.213001
 4776         hx    197    ccc     H2   4776 0.04213200   1.008000   ; qtot 197.255133
 4777         c3    197    ccc     C2   4777 -0.04496700  12.010000   ; qtot 197.210166
 4778         hc    197    ccc     H3   4778 0.02647500   1.008000   ; qtot 197.236641
 4779         hc    197    ccc     H4   4779 0.02647500   1.008000   ; qtot 197.263116
 4780         c3    197    ccc     C3   4780 0.04732600  12.010000   ; qtot 197.310442
 4781         h1    197    ccc     H5   4781 0.07030200   1.008000   ; qtot 197.380744
 4782         h1    197    ccc     H6   4782 0.07030200   1.008000   ; qtot 197.451046
 4783         n4    197    ccc     N1   4783 -0.21077700  14.010000   ; qtot 197.240269
 4784         hn    197    ccc     H7   4784 0.28399900   1.008000   ; qtot 197.524268
 4785         hn    197    ccc     H8   4785 0.28399900   1.008000   ; qtot 197.808267
 4786         os    197    ccc     O1   4786 -0.09200600  16.000000   ; qtot 197.716261
 4787         hn    197    ccc    H17   4787 0.28399900   1.008000   ; qtot 198.000260
; residue  198 ccc rtp ccc q 1.0
 4788         c3    198    ccc     C1   4788 0.17060900  12.010000   ; qtot 198.170869
 4789         hx    198    ccc     H1   4789 0.04213200   1.008000   ; qtot 198.213001
 4790         hx    198    ccc     H2   4790 0.04213200   1.008000   ; qtot 198.255133
 4791         c3    198    ccc     C2   4791 -0.04496700  12.010000   ; qtot 198.210166
 4792         hc    198    ccc     H3   4792 0.02647500   1.008000   ; qtot 198.236641
 4793         hc    198    ccc     H4   4793 0.02647500   1.008000   ; qtot 198.263116
 4794         c3    198    ccc     C3   4794 0.04732600  12.010000   ; qtot 198.310442
 4795         h1    198    ccc     H5   4795 0.07030200   1.008000   ; qtot 198.380744
 4796         h1    198    ccc     H6   4796 0.07030200   1.008000   ; qtot 198.451046
 4797         n4    198    ccc     N1   4797 -0.21077700  14.010000   ; qtot 198.240269
 4798         hn    198    ccc     H7   4798 0.28399900   1.008000   ; qtot 198.524268
 4799         hn    198    ccc     H8   4799 0.28399900   1.008000   ; qtot 198.808267
 4800         os    198    ccc     O1   4800 -0.09200600  16.000000   ; qtot 198.716261
 4801         hn    198    ccc    H17   4801 0.28399900   1.008000   ; qtot 199.000260
; residue  199 ccc rtp ccc q 1.0
 4802         c3    199    ccc     C1   4802 0.17060900  12.010000   ; qtot 199.170869
 4803         hx    199    ccc     H1   4803 0.04213200   1.008000   ; qtot 199.213001
 4804         hx    199    ccc     H2   4804 0.04213200   1.008000   ; qtot 199.255133
 4805         c3    199    ccc     C2   4805 -0.04496700  12.010000   ; qtot 199.210166
 4806         hc    199    ccc     H3   4806 0.02647500   1.008000   ; qtot 199.236641
 4807         hc    199    ccc     H4   4807 0.02647500   1.008000   ; qtot 199.263116
 4808         c3    199    ccc     C3   4808 0.04732600  12.010000   ; qtot 199.310442
 4809         h1    199    ccc     H5   4809 0.07030200   1.008000   ; qtot 199.380744
 4810         h1    199    ccc     H6   4810 0.07030200   1.008000   ; qtot 199.451046
 4811         n4    199    ccc     N1   4811 -0.21077700  14.010000   ; qtot 199.240269
 4812         hn    199    ccc     H7   4812 0.28399900   1.008000   ; qtot 199.524268
 4813         hn    199    ccc     H8   4813 0.28399900   1.008000   ; qtot 199.808267
 4814         os    199    ccc     O1   4814 -0.09200600  16.000000   ; qtot 199.716261
 4815         hn    199    ccc    H17   4815 0.28399900   1.008000   ; qtot 200.000260
; residue  200 ccc rtp ccc q 1.0
 4816         c3    200    ccc     C1   4816 0.17060900  12.010000   ; qtot 200.170869
 4817         hx    200    ccc     H1   4817 0.04213200   1.008000   ; qtot 200.213001
 4818         hx    200    ccc     H2   4818 0.04213200   1.008000   ; qtot 200.255133
 4819         c3    200    ccc     C2   4819 -0.04496700  12.010000   ; qtot 200.210166
 4820         hc    200    ccc     H3   4820 0.02647500   1.008000   ; qtot 200.236641
 4821         hc    200    ccc     H4   4821 0.02647500   1.008000   ; qtot 200.263116
 4822         c3    200    ccc     C3   4822 0.04732600  12.010000   ; qtot 200.310442
 4823         h1    200    ccc     H5   4823 0.07030200   1.008000   ; qtot 200.380744
 4824         h1    200    ccc     H6   4824 0.07030200   1.008000   ; qtot 200.451046
 4825         n4    200    ccc     N1   4825 -0.21077700  14.010000   ; qtot 200.240269
 4826         hn    200    ccc     H7   4826 0.28399900   1.008000   ; qtot 200.524268
 4827         hn    200    ccc     H8   4827 0.28399900   1.008000   ; qtot 200.808267
 4828         os    200    ccc     O1   4828 -0.09200600  16.000000   ; qtot 200.716261
 4829         hn    200    ccc    H17   4829 0.28399900   1.008000   ; qtot 201.000260
; residue  201 ccc rtp ccc q 1.0
 4830         c3    201    ccc     C1   4830 0.17060900  12.010000   ; qtot 201.170869
 4831         hx    201    ccc     H1   4831 0.04213200   1.008000   ; qtot 201.213001
 4832         hx    201    ccc     H2   4832 0.04213200   1.008000   ; qtot 201.255133
 4833         c3    201    ccc     C2   4833 -0.04496700  12.010000   ; qtot 201.210166
 4834         hc    201    ccc     H3   4834 0.02647500   1.008000   ; qtot 201.236641
 4835         hc    201    ccc     H4   4835 0.02647500   1.008000   ; qtot 201.263116
 4836         c3    201    ccc     C3   4836 0.04732600  12.010000   ; qtot 201.310442
 4837         h1    201    ccc     H5   4837 0.07030200   1.008000   ; qtot 201.380744
 4838         h1    201    ccc     H6   4838 0.07030200   1.008000   ; qtot 201.451046
 4839         n4    201    ccc     N1   4839 -0.21077700  14.010000   ; qtot 201.240269
 4840         hn    201    ccc     H7   4840 0.28399900   1.008000   ; qtot 201.524268
 4841         hn    201    ccc     H8   4841 0.28399900   1.008000   ; qtot 201.808267
 4842         os    201    ccc     O1   4842 -0.09200600  16.000000   ; qtot 201.716261
 4843         hn    201    ccc    H17   4843 0.28399900   1.008000   ; qtot 202.000260
; residue  202 ccc rtp ccc q 1.0
 4844         c3    202    ccc     C1   4844 0.17060900  12.010000   ; qtot 202.170869
 4845         hx    202    ccc     H1   4845 0.04213200   1.008000   ; qtot 202.213001
 4846         hx    202    ccc     H2   4846 0.04213200   1.008000   ; qtot 202.255133
 4847         c3    202    ccc     C2   4847 -0.04496700  12.010000   ; qtot 202.210166
 4848         hc    202    ccc     H3   4848 0.02647500   1.008000   ; qtot 202.236641
 4849         hc    202    ccc     H4   4849 0.02647500   1.008000   ; qtot 202.263116
 4850         c3    202    ccc     C3   4850 0.04732600  12.010000   ; qtot 202.310442
 4851         h1    202    ccc     H5   4851 0.07030200   1.008000   ; qtot 202.380744
 4852         h1    202    ccc     H6   4852 0.07030200   1.008000   ; qtot 202.451046
 4853         n4    202    ccc     N1   4853 -0.21077700  14.010000   ; qtot 202.240269
 4854         hn    202    ccc     H7   4854 0.28399900   1.008000   ; qtot 202.524268
 4855         hn    202    ccc     H8   4855 0.28399900   1.008000   ; qtot 202.808267
 4856         os    202    ccc     O1   4856 -0.09200600  16.000000   ; qtot 202.716261
 4857         hn    202    ccc    H17   4857 0.28399900   1.008000   ; qtot 203.000260
; residue  203 ccc rtp ccc q 1.0
 4858         c3    203    ccc     C1   4858 0.17060900  12.010000   ; qtot 203.170869
 4859         hx    203    ccc     H1   4859 0.04213200   1.008000   ; qtot 203.213001
 4860         hx    203    ccc     H2   4860 0.04213200   1.008000   ; qtot 203.255133
 4861         c3    203    ccc     C2   4861 -0.04496700  12.010000   ; qtot 203.210166
 4862         hc    203    ccc     H3   4862 0.02647500   1.008000   ; qtot 203.236641
 4863         hc    203    ccc     H4   4863 0.02647500   1.008000   ; qtot 203.263116
 4864         c3    203    ccc     C3   4864 0.04732600  12.010000   ; qtot 203.310442
 4865         h1    203    ccc     H5   4865 0.07030200   1.008000   ; qtot 203.380744
 4866         h1    203    ccc     H6   4866 0.07030200   1.008000   ; qtot 203.451046
 4867         n4    203    ccc     N1   4867 -0.21077700  14.010000   ; qtot 203.240269
 4868         hn    203    ccc     H7   4868 0.28399900   1.008000   ; qtot 203.524268
 4869         hn    203    ccc     H8   4869 0.28399900   1.008000   ; qtot 203.808267
 4870         os    203    ccc     O1   4870 -0.09200600  16.000000   ; qtot 203.716261
 4871         hn    203    ccc    H17   4871 0.28399900   1.008000   ; qtot 204.000260
; residue  204 ccc rtp ccc q 1.0
 4872         c3    204    ccc     C1   4872 0.17060900  12.010000   ; qtot 204.170869
 4873         hx    204    ccc     H1   4873 0.04213200   1.008000   ; qtot 204.213001
 4874         hx    204    ccc     H2   4874 0.04213200   1.008000   ; qtot 204.255133
 4875         c3    204    ccc     C2   4875 -0.04496700  12.010000   ; qtot 204.210166
 4876         hc    204    ccc     H3   4876 0.02647500   1.008000   ; qtot 204.236641
 4877         hc    204    ccc     H4   4877 0.02647500   1.008000   ; qtot 204.263116
 4878         c3    204    ccc     C3   4878 0.04732600  12.010000   ; qtot 204.310442
 4879         h1    204    ccc     H5   4879 0.07030200   1.008000   ; qtot 204.380744
 4880         h1    204    ccc     H6   4880 0.07030200   1.008000   ; qtot 204.451046
 4881         n4    204    ccc     N1   4881 -0.21077700  14.010000   ; qtot 204.240269
 4882         hn    204    ccc     H7   4882 0.28399900   1.008000   ; qtot 204.524268
 4883         hn    204    ccc     H8   4883 0.28399900   1.008000   ; qtot 204.808267
 4884         os    204    ccc     O1   4884 -0.09200600  16.000000   ; qtot 204.716261
 4885         hn    204    ccc    H17   4885 0.28399900   1.008000   ; qtot 205.000260
; residue  205 ccc rtp ccc q 1.0
 4886         c3    205    ccc     C1   4886 0.17060900  12.010000   ; qtot 205.170869
 4887         hx    205    ccc     H1   4887 0.04213200   1.008000   ; qtot 205.213001
 4888         hx    205    ccc     H2   4888 0.04213200   1.008000   ; qtot 205.255133
 4889         c3    205    ccc     C2   4889 -0.04496700  12.010000   ; qtot 205.210166
 4890         hc    205    ccc     H3   4890 0.02647500   1.008000   ; qtot 205.236641
 4891         hc    205    ccc     H4   4891 0.02647500   1.008000   ; qtot 205.263116
 4892         c3    205    ccc     C3   4892 0.04732600  12.010000   ; qtot 205.310442
 4893         h1    205    ccc     H5   4893 0.07030200   1.008000   ; qtot 205.380744
 4894         h1    205    ccc     H6   4894 0.07030200   1.008000   ; qtot 205.451046
 4895         n4    205    ccc     N1   4895 -0.21077700  14.010000   ; qtot 205.240269
 4896         hn    205    ccc     H7   4896 0.28399900   1.008000   ; qtot 205.524268
 4897         hn    205    ccc     H8   4897 0.28399900   1.008000   ; qtot 205.808267
 4898         os    205    ccc     O1   4898 -0.09200600  16.000000   ; qtot 205.716261
 4899         hn    205    ccc    H17   4899 0.28399900   1.008000   ; qtot 206.000260
; residue  206 ccc rtp ccc q 1.0
 4900         c3    206    ccc     C1   4900 0.17060900  12.010000   ; qtot 206.170869
 4901         hx    206    ccc     H1   4901 0.04213200   1.008000   ; qtot 206.213001
 4902         hx    206    ccc     H2   4902 0.04213200   1.008000   ; qtot 206.255133
 4903         c3    206    ccc     C2   4903 -0.04496700  12.010000   ; qtot 206.210166
 4904         hc    206    ccc     H3   4904 0.02647500   1.008000   ; qtot 206.236641
 4905         hc    206    ccc     H4   4905 0.02647500   1.008000   ; qtot 206.263116
 4906         c3    206    ccc     C3   4906 0.04732600  12.010000   ; qtot 206.310442
 4907         h1    206    ccc     H5   4907 0.07030200   1.008000   ; qtot 206.380744
 4908         h1    206    ccc     H6   4908 0.07030200   1.008000   ; qtot 206.451046
 4909         n4    206    ccc     N1   4909 -0.21077700  14.010000   ; qtot 206.240269
 4910         hn    206    ccc     H7   4910 0.28399900   1.008000   ; qtot 206.524268
 4911         hn    206    ccc     H8   4911 0.28399900   1.008000   ; qtot 206.808267
 4912         os    206    ccc     O1   4912 -0.09200600  16.000000   ; qtot 206.716261
 4913         hn    206    ccc    H17   4913 0.28399900   1.008000   ; qtot 207.000260
; residue  207 ccc rtp ccc q 1.0
 4914         c3    207    ccc     C1   4914 0.17060900  12.010000   ; qtot 207.170869
 4915         hx    207    ccc     H1   4915 0.04213200   1.008000   ; qtot 207.213001
 4916         hx    207    ccc     H2   4916 0.04213200   1.008000   ; qtot 207.255133
 4917         c3    207    ccc     C2   4917 -0.04496700  12.010000   ; qtot 207.210166
 4918         hc    207    ccc     H3   4918 0.02647500   1.008000   ; qtot 207.236641
 4919         hc    207    ccc     H4   4919 0.02647500   1.008000   ; qtot 207.263116
 4920         c3    207    ccc     C3   4920 0.04732600  12.010000   ; qtot 207.310442
 4921         h1    207    ccc     H5   4921 0.07030200   1.008000   ; qtot 207.380744
 4922         h1    207    ccc     H6   4922 0.07030200   1.008000   ; qtot 207.451046
 4923         n4    207    ccc     N1   4923 -0.21077700  14.010000   ; qtot 207.240269
 4924         hn    207    ccc     H7   4924 0.28399900   1.008000   ; qtot 207.524268
 4925         hn    207    ccc     H8   4925 0.28399900   1.008000   ; qtot 207.808267
 4926         os    207    ccc     O1   4926 -0.09200600  16.000000   ; qtot 207.716261
 4927         hn    207    ccc    H17   4927 0.28399900   1.008000   ; qtot 208.000260
; residue  208 ccc rtp ccc q 1.0
 4928         c3    208    ccc     C1   4928 0.17060900  12.010000   ; qtot 208.170869
 4929         hx    208    ccc     H1   4929 0.04213200   1.008000   ; qtot 208.213001
 4930         hx    208    ccc     H2   4930 0.04213200   1.008000   ; qtot 208.255133
 4931         c3    208    ccc     C2   4931 -0.04496700  12.010000   ; qtot 208.210166
 4932         hc    208    ccc     H3   4932 0.02647500   1.008000   ; qtot 208.236641
 4933         hc    208    ccc     H4   4933 0.02647500   1.008000   ; qtot 208.263116
 4934         c3    208    ccc     C3   4934 0.04732600  12.010000   ; qtot 208.310442
 4935         h1    208    ccc     H5   4935 0.07030200   1.008000   ; qtot 208.380744
 4936         h1    208    ccc     H6   4936 0.07030200   1.008000   ; qtot 208.451046
 4937         n4    208    ccc     N1   4937 -0.21077700  14.010000   ; qtot 208.240269
 4938         hn    208    ccc     H7   4938 0.28399900   1.008000   ; qtot 208.524268
 4939         hn    208    ccc     H8   4939 0.28399900   1.008000   ; qtot 208.808267
 4940         os    208    ccc     O1   4940 -0.09200600  16.000000   ; qtot 208.716261
 4941         hn    208    ccc    H17   4941 0.28399900   1.008000   ; qtot 209.000260
; residue  209 ccc rtp ccc q 1.0
 4942         c3    209    ccc     C1   4942 0.17060900  12.010000   ; qtot 209.170869
 4943         hx    209    ccc     H1   4943 0.04213200   1.008000   ; qtot 209.213001
 4944         hx    209    ccc     H2   4944 0.04213200   1.008000   ; qtot 209.255133
 4945         c3    209    ccc     C2   4945 -0.04496700  12.010000   ; qtot 209.210166
 4946         hc    209    ccc     H3   4946 0.02647500   1.008000   ; qtot 209.236641
 4947         hc    209    ccc     H4   4947 0.02647500   1.008000   ; qtot 209.263116
 4948         c3    209    ccc     C3   4948 0.04732600  12.010000   ; qtot 209.310442
 4949         h1    209    ccc     H5   4949 0.07030200   1.008000   ; qtot 209.380744
 4950         h1    209    ccc     H6   4950 0.07030200   1.008000   ; qtot 209.451046
 4951         n4    209    ccc     N1   4951 -0.21077700  14.010000   ; qtot 209.240269
 4952         hn    209    ccc     H7   4952 0.28399900   1.008000   ; qtot 209.524268
 4953         hn    209    ccc     H8   4953 0.28399900   1.008000   ; qtot 209.808267
 4954         os    209    ccc     O1   4954 -0.09200600  16.000000   ; qtot 209.716261
 4955         hn    209    ccc    H17   4955 0.28399900   1.008000   ; qtot 210.000260
; residue  210 ccc rtp ccc q 1.0
 4956         c3    210    ccc     C1   4956 0.17060900  12.010000   ; qtot 210.170869
 4957         hx    210    ccc     H1   4957 0.04213200   1.008000   ; qtot 210.213001
 4958         hx    210    ccc     H2   4958 0.04213200   1.008000   ; qtot 210.255133
 4959         c3    210    ccc     C2   4959 -0.04496700  12.010000   ; qtot 210.210166
 4960         hc    210    ccc     H3   4960 0.02647500   1.008000   ; qtot 210.236641
 4961         hc    210    ccc     H4   4961 0.02647500   1.008000   ; qtot 210.263116
 4962         c3    210    ccc     C3   4962 0.04732600  12.010000   ; qtot 210.310442
 4963         h1    210    ccc     H5   4963 0.07030200   1.008000   ; qtot 210.380744
 4964         h1    210    ccc     H6   4964 0.07030200   1.008000   ; qtot 210.451046
 4965         n4    210    ccc     N1   4965 -0.21077700  14.010000   ; qtot 210.240269
 4966         hn    210    ccc     H7   4966 0.28399900   1.008000   ; qtot 210.524268
 4967         hn    210    ccc     H8   4967 0.28399900   1.008000   ; qtot 210.808267
 4968         os    210    ccc     O1   4968 -0.09200600  16.000000   ; qtot 210.716261
 4969         hn    210    ccc    H17   4969 0.28399900   1.008000   ; qtot 211.000260
; residue  211 ccc rtp ccc q 1.0
 4970         c3    211    ccc     C1   4970 0.17060900  12.010000   ; qtot 211.170869
 4971         hx    211    ccc     H1   4971 0.04213200   1.008000   ; qtot 211.213001
 4972         hx    211    ccc     H2   4972 0.04213200   1.008000   ; qtot 211.255133
 4973         c3    211    ccc     C2   4973 -0.04496700  12.010000   ; qtot 211.210166
 4974         hc    211    ccc     H3   4974 0.02647500   1.008000   ; qtot 211.236641
 4975         hc    211    ccc     H4   4975 0.02647500   1.008000   ; qtot 211.263116
 4976         c3    211    ccc     C3   4976 0.04732600  12.010000   ; qtot 211.310442
 4977         h1    211    ccc     H5   4977 0.07030200   1.008000   ; qtot 211.380744
 4978         h1    211    ccc     H6   4978 0.07030200   1.008000   ; qtot 211.451046
 4979         n4    211    ccc     N1   4979 -0.21077700  14.010000   ; qtot 211.240269
 4980         hn    211    ccc     H7   4980 0.28399900   1.008000   ; qtot 211.524268
 4981         hn    211    ccc     H8   4981 0.28399900   1.008000   ; qtot 211.808267
 4982         os    211    ccc     O1   4982 -0.09200600  16.000000   ; qtot 211.716261
 4983         hn    211    ccc    H17   4983 0.28399900   1.008000   ; qtot 212.000260
; residue  212 ccc rtp ccc q 1.0
 4984         c3    212    ccc     C1   4984 0.17060900  12.010000   ; qtot 212.170869
 4985         hx    212    ccc     H1   4985 0.04213200   1.008000   ; qtot 212.213001
 4986         hx    212    ccc     H2   4986 0.04213200   1.008000   ; qtot 212.255133
 4987         c3    212    ccc     C2   4987 -0.04496700  12.010000   ; qtot 212.210166
 4988         hc    212    ccc     H3   4988 0.02647500   1.008000   ; qtot 212.236641
 4989         hc    212    ccc     H4   4989 0.02647500   1.008000   ; qtot 212.263116
 4990         c3    212    ccc     C3   4990 0.04732600  12.010000   ; qtot 212.310442
 4991         h1    212    ccc     H5   4991 0.07030200   1.008000   ; qtot 212.380744
 4992         h1    212    ccc     H6   4992 0.07030200   1.008000   ; qtot 212.451046
 4993         n4    212    ccc     N1   4993 -0.21077700  14.010000   ; qtot 212.240269
 4994         hn    212    ccc     H7   4994 0.28399900   1.008000   ; qtot 212.524268
 4995         hn    212    ccc     H8   4995 0.28399900   1.008000   ; qtot 212.808267
 4996         os    212    ccc     O1   4996 -0.09200600  16.000000   ; qtot 212.716261
 4997         hn    212    ccc    H17   4997 0.28399900   1.008000   ; qtot 213.000260
; residue  213 ccc rtp ccc q 1.0
 4998         c3    213    ccc     C1   4998 0.17060900  12.010000   ; qtot 213.170869
 4999         hx    213    ccc     H1   4999 0.04213200   1.008000   ; qtot 213.213001
 5000         hx    213    ccc     H2   5000 0.04213200   1.008000   ; qtot 213.255133
 5001         c3    213    ccc     C2   5001 -0.04496700  12.010000   ; qtot 213.210166
 5002         hc    213    ccc     H3   5002 0.02647500   1.008000   ; qtot 213.236641
 5003         hc    213    ccc     H4   5003 0.02647500   1.008000   ; qtot 213.263116
 5004         c3    213    ccc     C3   5004 0.04732600  12.010000   ; qtot 213.310442
 5005         h1    213    ccc     H5   5005 0.07030200   1.008000   ; qtot 213.380744
 5006         h1    213    ccc     H6   5006 0.07030200   1.008000   ; qtot 213.451046
 5007         n4    213    ccc     N1   5007 -0.21077700  14.010000   ; qtot 213.240269
 5008         hn    213    ccc     H7   5008 0.28399900   1.008000   ; qtot 213.524268
 5009         hn    213    ccc     H8   5009 0.28399900   1.008000   ; qtot 213.808267
 5010         os    213    ccc     O1   5010 -0.09200600  16.000000   ; qtot 213.716261
 5011         hn    213    ccc    H17   5011 0.28399900   1.008000   ; qtot 214.000260
; residue  214 ccc rtp ccc q 1.0
 5012         c3    214    ccc     C1   5012 0.17060900  12.010000   ; qtot 214.170869
 5013         hx    214    ccc     H1   5013 0.04213200   1.008000   ; qtot 214.213001
 5014         hx    214    ccc     H2   5014 0.04213200   1.008000   ; qtot 214.255133
 5015         c3    214    ccc     C2   5015 -0.04496700  12.010000   ; qtot 214.210166
 5016         hc    214    ccc     H3   5016 0.02647500   1.008000   ; qtot 214.236641
 5017         hc    214    ccc     H4   5017 0.02647500   1.008000   ; qtot 214.263116
 5018         c3    214    ccc     C3   5018 0.04732600  12.010000   ; qtot 214.310442
 5019         h1    214    ccc     H5   5019 0.07030200   1.008000   ; qtot 214.380744
 5020         h1    214    ccc     H6   5020 0.07030200   1.008000   ; qtot 214.451046
 5021         n4    214    ccc     N1   5021 -0.21077700  14.010000   ; qtot 214.240269
 5022         hn    214    ccc     H7   5022 0.28399900   1.008000   ; qtot 214.524268
 5023         hn    214    ccc     H8   5023 0.28399900   1.008000   ; qtot 214.808267
 5024         os    214    ccc     O1   5024 -0.09200600  16.000000   ; qtot 214.716261
 5025         hn    214    ccc    H17   5025 0.28399900   1.008000   ; qtot 215.000260
; residue  215 ccc rtp ccc q 1.0
 5026         c3    215    ccc     C1   5026 0.17060900  12.010000   ; qtot 215.170869
 5027         hx    215    ccc     H1   5027 0.04213200   1.008000   ; qtot 215.213001
 5028         hx    215    ccc     H2   5028 0.04213200   1.008000   ; qtot 215.255133
 5029         c3    215    ccc     C2   5029 -0.04496700  12.010000   ; qtot 215.210166
 5030         hc    215    ccc     H3   5030 0.02647500   1.008000   ; qtot 215.236641
 5031         hc    215    ccc     H4   5031 0.02647500   1.008000   ; qtot 215.263116
 5032         c3    215    ccc     C3   5032 0.04732600  12.010000   ; qtot 215.310442
 5033         h1    215    ccc     H5   5033 0.07030200   1.008000   ; qtot 215.380744
 5034         h1    215    ccc     H6   5034 0.07030200   1.008000   ; qtot 215.451046
 5035         n4    215    ccc     N1   5035 -0.21077700  14.010000   ; qtot 215.240269
 5036         hn    215    ccc     H7   5036 0.28399900   1.008000   ; qtot 215.524268
 5037         hn    215    ccc     H8   5037 0.28399900   1.008000   ; qtot 215.808267
 5038         os    215    ccc     O1   5038 -0.09200600  16.000000   ; qtot 215.716261
 5039         hn    215    ccc    H17   5039 0.28399900   1.008000   ; qtot 216.000260
; residue  216 ccc rtp ccc q 1.0
 5040         c3    216    ccc     C1   5040 0.17060900  12.010000   ; qtot 216.170869
 5041         hx    216    ccc     H1   5041 0.04213200   1.008000   ; qtot 216.213001
 5042         hx    216    ccc     H2   5042 0.04213200   1.008000   ; qtot 216.255133
 5043         c3    216    ccc     C2   5043 -0.04496700  12.010000   ; qtot 216.210166
 5044         hc    216    ccc     H3   5044 0.02647500   1.008000   ; qtot 216.236641
 5045         hc    216    ccc     H4   5045 0.02647500   1.008000   ; qtot 216.263116
 5046         c3    216    ccc     C3   5046 0.04732600  12.010000   ; qtot 216.310442
 5047         h1    216    ccc     H5   5047 0.07030200   1.008000   ; qtot 216.380744
 5048         h1    216    ccc     H6   5048 0.07030200   1.008000   ; qtot 216.451046
 5049         n4    216    ccc     N1   5049 -0.21077700  14.010000   ; qtot 216.240269
 5050         hn    216    ccc     H7   5050 0.28399900   1.008000   ; qtot 216.524268
 5051         hn    216    ccc     H8   5051 0.28399900   1.008000   ; qtot 216.808267
 5052         os    216    ccc     O1   5052 -0.09200600  16.000000   ; qtot 216.716261
 5053         hn    216    ccc    H17   5053 0.28399900   1.008000   ; qtot 217.000260
; residue  217 ccc rtp ccc q 1.0
 5054         c3    217    ccc     C1   5054 0.17060900  12.010000   ; qtot 217.170869
 5055         hx    217    ccc     H1   5055 0.04213200   1.008000   ; qtot 217.213001
 5056         hx    217    ccc     H2   5056 0.04213200   1.008000   ; qtot 217.255133
 5057         c3    217    ccc     C2   5057 -0.04496700  12.010000   ; qtot 217.210166
 5058         hc    217    ccc     H3   5058 0.02647500   1.008000   ; qtot 217.236641
 5059         hc    217    ccc     H4   5059 0.02647500   1.008000   ; qtot 217.263116
 5060         c3    217    ccc     C3   5060 0.04732600  12.010000   ; qtot 217.310442
 5061         h1    217    ccc     H5   5061 0.07030200   1.008000   ; qtot 217.380744
 5062         h1    217    ccc     H6   5062 0.07030200   1.008000   ; qtot 217.451046
 5063         n4    217    ccc     N1   5063 -0.21077700  14.010000   ; qtot 217.240269
 5064         hn    217    ccc     H7   5064 0.28399900   1.008000   ; qtot 217.524268
 5065         hn    217    ccc     H8   5065 0.28399900   1.008000   ; qtot 217.808267
 5066         os    217    ccc     O1   5066 -0.09200600  16.000000   ; qtot 217.716261
 5067         hn    217    ccc    H17   5067 0.28399900   1.008000   ; qtot 218.000260
; residue  218 ccc rtp ccc q 1.0
 5068         c3    218    ccc     C1   5068 0.17060900  12.010000   ; qtot 218.170869
 5069         hx    218    ccc     H1   5069 0.04213200   1.008000   ; qtot 218.213001
 5070         hx    218    ccc     H2   5070 0.04213200   1.008000   ; qtot 218.255133
 5071         c3    218    ccc     C2   5071 -0.04496700  12.010000   ; qtot 218.210166
 5072         hc    218    ccc     H3   5072 0.02647500   1.008000   ; qtot 218.236641
 5073         hc    218    ccc     H4   5073 0.02647500   1.008000   ; qtot 218.263116
 5074         c3    218    ccc     C3   5074 0.04732600  12.010000   ; qtot 218.310442
 5075         h1    218    ccc     H5   5075 0.07030200   1.008000   ; qtot 218.380744
 5076         h1    218    ccc     H6   5076 0.07030200   1.008000   ; qtot 218.451046
 5077         n4    218    ccc     N1   5077 -0.21077700  14.010000   ; qtot 218.240269
 5078         hn    218    ccc     H7   5078 0.28399900   1.008000   ; qtot 218.524268
 5079         hn    218    ccc     H8   5079 0.28399900   1.008000   ; qtot 218.808267
 5080         os    218    ccc     O1   5080 -0.09200600  16.000000   ; qtot 218.716261
 5081         hn    218    ccc    H17   5081 0.28399900   1.008000   ; qtot 219.000260
; residue  219 ccc rtp ccc q 1.0
 5082         c3    219    ccc     C1   5082 0.17060900  12.010000   ; qtot 219.170869
 5083         hx    219    ccc     H1   5083 0.04213200   1.008000   ; qtot 219.213001
 5084         hx    219    ccc     H2   5084 0.04213200   1.008000   ; qtot 219.255133
 5085         c3    219    ccc     C2   5085 -0.04496700  12.010000   ; qtot 219.210166
 5086         hc    219    ccc     H3   5086 0.02647500   1.008000   ; qtot 219.236641
 5087         hc    219    ccc     H4   5087 0.02647500   1.008000   ; qtot 219.263116
 5088         c3    219    ccc     C3   5088 0.04732600  12.010000   ; qtot 219.310442
 5089         h1    219    ccc     H5   5089 0.07030200   1.008000   ; qtot 219.380744
 5090         h1    219    ccc     H6   5090 0.07030200   1.008000   ; qtot 219.451046
 5091         n4    219    ccc     N1   5091 -0.21077700  14.010000   ; qtot 219.240269
 5092         hn    219    ccc     H7   5092 0.28399900   1.008000   ; qtot 219.524268
 5093         hn    219    ccc     H8   5093 0.28399900   1.008000   ; qtot 219.808267
 5094         os    219    ccc     O1   5094 -0.09200600  16.000000   ; qtot 219.716261
 5095         hn    219    ccc    H17   5095 0.28399900   1.008000   ; qtot 220.000260
; residue  220 ccc rtp ccc q 1.0
 5096         c3    220    ccc     C1   5096 0.17060900  12.010000   ; qtot 220.170869
 5097         hx    220    ccc     H1   5097 0.04213200   1.008000   ; qtot 220.213001
 5098         hx    220    ccc     H2   5098 0.04213200   1.008000   ; qtot 220.255133
 5099         c3    220    ccc     C2   5099 -0.04496700  12.010000   ; qtot 220.210166
 5100         hc    220    ccc     H3   5100 0.02647500   1.008000   ; qtot 220.236641
 5101         hc    220    ccc     H4   5101 0.02647500   1.008000   ; qtot 220.263116
 5102         c3    220    ccc     C3   5102 0.04732600  12.010000   ; qtot 220.310442
 5103         h1    220    ccc     H5   5103 0.07030200   1.008000   ; qtot 220.380744
 5104         h1    220    ccc     H6   5104 0.07030200   1.008000   ; qtot 220.451046
 5105         n4    220    ccc     N1   5105 -0.21077700  14.010000   ; qtot 220.240269
 5106         hn    220    ccc     H7   5106 0.28399900   1.008000   ; qtot 220.524268
 5107         hn    220    ccc     H8   5107 0.28399900   1.008000   ; qtot 220.808267
 5108         os    220    ccc     O1   5108 -0.09200600  16.000000   ; qtot 220.716261
 5109         hn    220    ccc    H17   5109 0.28399900   1.008000   ; qtot 221.000260
; residue  221 ccc rtp ccc q 1.0
 5110         c3    221    ccc     C1   5110 0.17060900  12.010000   ; qtot 221.170869
 5111         hx    221    ccc     H1   5111 0.04213200   1.008000   ; qtot 221.213001
 5112         hx    221    ccc     H2   5112 0.04213200   1.008000   ; qtot 221.255133
 5113         c3    221    ccc     C2   5113 -0.04496700  12.010000   ; qtot 221.210166
 5114         hc    221    ccc     H3   5114 0.02647500   1.008000   ; qtot 221.236641
 5115         hc    221    ccc     H4   5115 0.02647500   1.008000   ; qtot 221.263116
 5116         c3    221    ccc     C3   5116 0.04732600  12.010000   ; qtot 221.310442
 5117         h1    221    ccc     H5   5117 0.07030200   1.008000   ; qtot 221.380744
 5118         h1    221    ccc     H6   5118 0.07030200   1.008000   ; qtot 221.451046
 5119         n4    221    ccc     N1   5119 -0.21077700  14.010000   ; qtot 221.240269
 5120         hn    221    ccc     H7   5120 0.28399900   1.008000   ; qtot 221.524268
 5121         hn    221    ccc     H8   5121 0.28399900   1.008000   ; qtot 221.808267
 5122         os    221    ccc     O1   5122 -0.09200600  16.000000   ; qtot 221.716261
 5123         hn    221    ccc    H17   5123 0.28399900   1.008000   ; qtot 222.000260
; residue  222 ccc rtp ccc q 1.0
 5124         c3    222    ccc     C1   5124 0.17060900  12.010000   ; qtot 222.170869
 5125         hx    222    ccc     H1   5125 0.04213200   1.008000   ; qtot 222.213001
 5126         hx    222    ccc     H2   5126 0.04213200   1.008000   ; qtot 222.255133
 5127         c3    222    ccc     C2   5127 -0.04496700  12.010000   ; qtot 222.210166
 5128         hc    222    ccc     H3   5128 0.02647500   1.008000   ; qtot 222.236641
 5129         hc    222    ccc     H4   5129 0.02647500   1.008000   ; qtot 222.263116
 5130         c3    222    ccc     C3   5130 0.04732600  12.010000   ; qtot 222.310442
 5131         h1    222    ccc     H5   5131 0.07030200   1.008000   ; qtot 222.380744
 5132         h1    222    ccc     H6   5132 0.07030200   1.008000   ; qtot 222.451046
 5133         n4    222    ccc     N1   5133 -0.21077700  14.010000   ; qtot 222.240269
 5134         hn    222    ccc     H7   5134 0.28399900   1.008000   ; qtot 222.524268
 5135         hn    222    ccc     H8   5135 0.28399900   1.008000   ; qtot 222.808267
 5136         os    222    ccc     O1   5136 -0.09200600  16.000000   ; qtot 222.716261
 5137         hn    222    ccc    H17   5137 0.28399900   1.008000   ; qtot 223.000260
; residue  223 ccc rtp ccc q 1.0
 5138         c3    223    ccc     C1   5138 0.17060900  12.010000   ; qtot 223.170869
 5139         hx    223    ccc     H1   5139 0.04213200   1.008000   ; qtot 223.213001
 5140         hx    223    ccc     H2   5140 0.04213200   1.008000   ; qtot 223.255133
 5141         c3    223    ccc     C2   5141 -0.04496700  12.010000   ; qtot 223.210166
 5142         hc    223    ccc     H3   5142 0.02647500   1.008000   ; qtot 223.236641
 5143         hc    223    ccc     H4   5143 0.02647500   1.008000   ; qtot 223.263116
 5144         c3    223    ccc     C3   5144 0.04732600  12.010000   ; qtot 223.310442
 5145         h1    223    ccc     H5   5145 0.07030200   1.008000   ; qtot 223.380744
 5146         h1    223    ccc     H6   5146 0.07030200   1.008000   ; qtot 223.451046
 5147         n4    223    ccc     N1   5147 -0.21077700  14.010000   ; qtot 223.240269
 5148         hn    223    ccc     H7   5148 0.28399900   1.008000   ; qtot 223.524268
 5149         hn    223    ccc     H8   5149 0.28399900   1.008000   ; qtot 223.808267
 5150         os    223    ccc     O1   5150 -0.09200600  16.000000   ; qtot 223.716261
 5151         hn    223    ccc    H17   5151 0.28399900   1.008000   ; qtot 224.000260
; residue  224 ccc rtp ccc q 1.0
 5152         c3    224    ccc     C1   5152 0.17060900  12.010000   ; qtot 224.170869
 5153         hx    224    ccc     H1   5153 0.04213200   1.008000   ; qtot 224.213001
 5154         hx    224    ccc     H2   5154 0.04213200   1.008000   ; qtot 224.255133
 5155         c3    224    ccc     C2   5155 -0.04496700  12.010000   ; qtot 224.210166
 5156         hc    224    ccc     H3   5156 0.02647500   1.008000   ; qtot 224.236641
 5157         hc    224    ccc     H4   5157 0.02647500   1.008000   ; qtot 224.263116
 5158         c3    224    ccc     C3   5158 0.04732600  12.010000   ; qtot 224.310442
 5159         h1    224    ccc     H5   5159 0.07030200   1.008000   ; qtot 224.380744
 5160         h1    224    ccc     H6   5160 0.07030200   1.008000   ; qtot 224.451046
 5161         n4    224    ccc     N1   5161 -0.21077700  14.010000   ; qtot 224.240269
 5162         hn    224    ccc     H7   5162 0.28399900   1.008000   ; qtot 224.524268
 5163         hn    224    ccc     H8   5163 0.28399900   1.008000   ; qtot 224.808267
 5164         os    224    ccc     O1   5164 -0.09200600  16.000000   ; qtot 224.716261
 5165         hn    224    ccc    H17   5165 0.28399900   1.008000   ; qtot 225.000260
; residue  225 ccc rtp ccc q 1.0
 5166         c3    225    ccc     C1   5166 0.17060900  12.010000   ; qtot 225.170869
 5167         hx    225    ccc     H1   5167 0.04213200   1.008000   ; qtot 225.213001
 5168         hx    225    ccc     H2   5168 0.04213200   1.008000   ; qtot 225.255133
 5169         c3    225    ccc     C2   5169 -0.04496700  12.010000   ; qtot 225.210166
 5170         hc    225    ccc     H3   5170 0.02647500   1.008000   ; qtot 225.236641
 5171         hc    225    ccc     H4   5171 0.02647500   1.008000   ; qtot 225.263116
 5172         c3    225    ccc     C3   5172 0.04732600  12.010000   ; qtot 225.310442
 5173         h1    225    ccc     H5   5173 0.07030200   1.008000   ; qtot 225.380744
 5174         h1    225    ccc     H6   5174 0.07030200   1.008000   ; qtot 225.451046
 5175         n4    225    ccc     N1   5175 -0.21077700  14.010000   ; qtot 225.240269
 5176         hn    225    ccc     H7   5176 0.28399900   1.008000   ; qtot 225.524268
 5177         hn    225    ccc     H8   5177 0.28399900   1.008000   ; qtot 225.808267
 5178         os    225    ccc     O1   5178 -0.09200600  16.000000   ; qtot 225.716261
 5179         hn    225    ccc    H17   5179 0.28399900   1.008000   ; qtot 226.000260
; residue  226 ccc rtp ccc q 1.0
 5180         c3    226    ccc     C1   5180 0.17060900  12.010000   ; qtot 226.170869
 5181         hx    226    ccc     H1   5181 0.04213200   1.008000   ; qtot 226.213001
 5182         hx    226    ccc     H2   5182 0.04213200   1.008000   ; qtot 226.255133
 5183         c3    226    ccc     C2   5183 -0.04496700  12.010000   ; qtot 226.210166
 5184         hc    226    ccc     H3   5184 0.02647500   1.008000   ; qtot 226.236641
 5185         hc    226    ccc     H4   5185 0.02647500   1.008000   ; qtot 226.263116
 5186         c3    226    ccc     C3   5186 0.04732600  12.010000   ; qtot 226.310442
 5187         h1    226    ccc     H5   5187 0.07030200   1.008000   ; qtot 226.380744
 5188         h1    226    ccc     H6   5188 0.07030200   1.008000   ; qtot 226.451046
 5189         n4    226    ccc     N1   5189 -0.21077700  14.010000   ; qtot 226.240269
 5190         hn    226    ccc     H7   5190 0.28399900   1.008000   ; qtot 226.524268
 5191         hn    226    ccc     H8   5191 0.28399900   1.008000   ; qtot 226.808267
 5192         os    226    ccc     O1   5192 -0.09200600  16.000000   ; qtot 226.716261
 5193         hn    226    ccc    H17   5193 0.28399900   1.008000   ; qtot 227.000260
; residue  227 ccc rtp ccc q 1.0
 5194         c3    227    ccc     C1   5194 0.17060900  12.010000   ; qtot 227.170869
 5195         hx    227    ccc     H1   5195 0.04213200   1.008000   ; qtot 227.213001
 5196         hx    227    ccc     H2   5196 0.04213200   1.008000   ; qtot 227.255133
 5197         c3    227    ccc     C2   5197 -0.04496700  12.010000   ; qtot 227.210166
 5198         hc    227    ccc     H3   5198 0.02647500   1.008000   ; qtot 227.236641
 5199         hc    227    ccc     H4   5199 0.02647500   1.008000   ; qtot 227.263116
 5200         c3    227    ccc     C3   5200 0.04732600  12.010000   ; qtot 227.310442
 5201         h1    227    ccc     H5   5201 0.07030200   1.008000   ; qtot 227.380744
 5202         h1    227    ccc     H6   5202 0.07030200   1.008000   ; qtot 227.451046
 5203         n4    227    ccc     N1   5203 -0.21077700  14.010000   ; qtot 227.240269
 5204         hn    227    ccc     H7   5204 0.28399900   1.008000   ; qtot 227.524268
 5205         hn    227    ccc     H8   5205 0.28399900   1.008000   ; qtot 227.808267
 5206         os    227    ccc     O1   5206 -0.09200600  16.000000   ; qtot 227.716261
 5207         hn    227    ccc    H17   5207 0.28399900   1.008000   ; qtot 228.000260
; residue  228 ccc rtp ccc q 1.0
 5208         c3    228    ccc     C1   5208 0.17060900  12.010000   ; qtot 228.170869
 5209         hx    228    ccc     H1   5209 0.04213200   1.008000   ; qtot 228.213001
 5210         hx    228    ccc     H2   5210 0.04213200   1.008000   ; qtot 228.255133
 5211         c3    228    ccc     C2   5211 -0.04496700  12.010000   ; qtot 228.210166
 5212         hc    228    ccc     H3   5212 0.02647500   1.008000   ; qtot 228.236641
 5213         hc    228    ccc     H4   5213 0.02647500   1.008000   ; qtot 228.263116
 5214         c3    228    ccc     C3   5214 0.04732600  12.010000   ; qtot 228.310442
 5215         h1    228    ccc     H5   5215 0.07030200   1.008000   ; qtot 228.380744
 5216         h1    228    ccc     H6   5216 0.07030200   1.008000   ; qtot 228.451046
 5217         n4    228    ccc     N1   5217 -0.21077700  14.010000   ; qtot 228.240269
 5218         hn    228    ccc     H7   5218 0.28399900   1.008000   ; qtot 228.524268
 5219         hn    228    ccc     H8   5219 0.28399900   1.008000   ; qtot 228.808267
 5220         os    228    ccc     O1   5220 -0.09200600  16.000000   ; qtot 228.716261
 5221         hn    228    ccc    H17   5221 0.28399900   1.008000   ; qtot 229.000260
; residue  229 ccc rtp ccc q 1.0
 5222         c3    229    ccc     C1   5222 0.17060900  12.010000   ; qtot 229.170869
 5223         hx    229    ccc     H1   5223 0.04213200   1.008000   ; qtot 229.213001
 5224         hx    229    ccc     H2   5224 0.04213200   1.008000   ; qtot 229.255133
 5225         c3    229    ccc     C2   5225 -0.04496700  12.010000   ; qtot 229.210166
 5226         hc    229    ccc     H3   5226 0.02647500   1.008000   ; qtot 229.236641
 5227         hc    229    ccc     H4   5227 0.02647500   1.008000   ; qtot 229.263116
 5228         c3    229    ccc     C3   5228 0.04732600  12.010000   ; qtot 229.310442
 5229         h1    229    ccc     H5   5229 0.07030200   1.008000   ; qtot 229.380744
 5230         h1    229    ccc     H6   5230 0.07030200   1.008000   ; qtot 229.451046
 5231         n4    229    ccc     N1   5231 -0.21077700  14.010000   ; qtot 229.240269
 5232         hn    229    ccc     H7   5232 0.28399900   1.008000   ; qtot 229.524268
 5233         hn    229    ccc     H8   5233 0.28399900   1.008000   ; qtot 229.808267
 5234         os    229    ccc     O1   5234 -0.09200600  16.000000   ; qtot 229.716261
 5235         hn    229    ccc    H17   5235 0.28399900   1.008000   ; qtot 230.000260
; residue  230 ccc rtp ccc q 1.0
 5236         c3    230    ccc     C1   5236 0.17060900  12.010000   ; qtot 230.170869
 5237         hx    230    ccc     H1   5237 0.04213200   1.008000   ; qtot 230.213001
 5238         hx    230    ccc     H2   5238 0.04213200   1.008000   ; qtot 230.255133
 5239         c3    230    ccc     C2   5239 -0.04496700  12.010000   ; qtot 230.210166
 5240         hc    230    ccc     H3   5240 0.02647500   1.008000   ; qtot 230.236641
 5241         hc    230    ccc     H4   5241 0.02647500   1.008000   ; qtot 230.263116
 5242         c3    230    ccc     C3   5242 0.04732600  12.010000   ; qtot 230.310442
 5243         h1    230    ccc     H5   5243 0.07030200   1.008000   ; qtot 230.380744
 5244         h1    230    ccc     H6   5244 0.07030200   1.008000   ; qtot 230.451046
 5245         n4    230    ccc     N1   5245 -0.21077700  14.010000   ; qtot 230.240269
 5246         hn    230    ccc     H7   5246 0.28399900   1.008000   ; qtot 230.524268
 5247         hn    230    ccc     H8   5247 0.28399900   1.008000   ; qtot 230.808267
 5248         os    230    ccc     O1   5248 -0.09200600  16.000000   ; qtot 230.716261
 5249         hn    230    ccc    H17   5249 0.28399900   1.008000   ; qtot 231.000260
; residue  231 ccc rtp ccc q 1.0
 5250         c3    231    ccc     C1   5250 0.17060900  12.010000   ; qtot 231.170869
 5251         hx    231    ccc     H1   5251 0.04213200   1.008000   ; qtot 231.213001
 5252         hx    231    ccc     H2   5252 0.04213200   1.008000   ; qtot 231.255133
 5253         c3    231    ccc     C2   5253 -0.04496700  12.010000   ; qtot 231.210166
 5254         hc    231    ccc     H3   5254 0.02647500   1.008000   ; qtot 231.236641
 5255         hc    231    ccc     H4   5255 0.02647500   1.008000   ; qtot 231.263116
 5256         c3    231    ccc     C3   5256 0.04732600  12.010000   ; qtot 231.310442
 5257         h1    231    ccc     H5   5257 0.07030200   1.008000   ; qtot 231.380744
 5258         h1    231    ccc     H6   5258 0.07030200   1.008000   ; qtot 231.451046
 5259         n4    231    ccc     N1   5259 -0.21077700  14.010000   ; qtot 231.240269
 5260         hn    231    ccc     H7   5260 0.28399900   1.008000   ; qtot 231.524268
 5261         hn    231    ccc     H8   5261 0.28399900   1.008000   ; qtot 231.808267
 5262         os    231    ccc     O1   5262 -0.09200600  16.000000   ; qtot 231.716261
 5263         hn    231    ccc    H17   5263 0.28399900   1.008000   ; qtot 232.000260
; residue  232 ccc rtp ccc q 1.0
 5264         c3    232    ccc     C1   5264 0.17060900  12.010000   ; qtot 232.170869
 5265         hx    232    ccc     H1   5265 0.04213200   1.008000   ; qtot 232.213001
 5266         hx    232    ccc     H2   5266 0.04213200   1.008000   ; qtot 232.255133
 5267         c3    232    ccc     C2   5267 -0.04496700  12.010000   ; qtot 232.210166
 5268         hc    232    ccc     H3   5268 0.02647500   1.008000   ; qtot 232.236641
 5269         hc    232    ccc     H4   5269 0.02647500   1.008000   ; qtot 232.263116
 5270         c3    232    ccc     C3   5270 0.04732600  12.010000   ; qtot 232.310442
 5271         h1    232    ccc     H5   5271 0.07030200   1.008000   ; qtot 232.380744
 5272         h1    232    ccc     H6   5272 0.07030200   1.008000   ; qtot 232.451046
 5273         n4    232    ccc     N1   5273 -0.21077700  14.010000   ; qtot 232.240269
 5274         hn    232    ccc     H7   5274 0.28399900   1.008000   ; qtot 232.524268
 5275         hn    232    ccc     H8   5275 0.28399900   1.008000   ; qtot 232.808267
 5276         os    232    ccc     O1   5276 -0.09200600  16.000000   ; qtot 232.716261
 5277         hn    232    ccc    H17   5277 0.28399900   1.008000   ; qtot 233.000260
; residue  233 ccc rtp ccc q 1.0
 5278         c3    233    ccc     C1   5278 0.17060900  12.010000   ; qtot 233.170869
 5279         hx    233    ccc     H1   5279 0.04213200   1.008000   ; qtot 233.213001
 5280         hx    233    ccc     H2   5280 0.04213200   1.008000   ; qtot 233.255133
 5281         c3    233    ccc     C2   5281 -0.04496700  12.010000   ; qtot 233.210166
 5282         hc    233    ccc     H3   5282 0.02647500   1.008000   ; qtot 233.236641
 5283         hc    233    ccc     H4   5283 0.02647500   1.008000   ; qtot 233.263116
 5284         c3    233    ccc     C3   5284 0.04732600  12.010000   ; qtot 233.310442
 5285         h1    233    ccc     H5   5285 0.07030200   1.008000   ; qtot 233.380744
 5286         h1    233    ccc     H6   5286 0.07030200   1.008000   ; qtot 233.451046
 5287         n4    233    ccc     N1   5287 -0.21077700  14.010000   ; qtot 233.240269
 5288         hn    233    ccc     H7   5288 0.28399900   1.008000   ; qtot 233.524268
 5289         hn    233    ccc     H8   5289 0.28399900   1.008000   ; qtot 233.808267
 5290         os    233    ccc     O1   5290 -0.09200600  16.000000   ; qtot 233.716261
 5291         hn    233    ccc    H17   5291 0.28399900   1.008000   ; qtot 234.000260
; residue  234 ccc rtp ccc q 1.0
 5292         c3    234    ccc     C1   5292 0.17060900  12.010000   ; qtot 234.170869
 5293         hx    234    ccc     H1   5293 0.04213200   1.008000   ; qtot 234.213001
 5294         hx    234    ccc     H2   5294 0.04213200   1.008000   ; qtot 234.255133
 5295         c3    234    ccc     C2   5295 -0.04496700  12.010000   ; qtot 234.210166
 5296         hc    234    ccc     H3   5296 0.02647500   1.008000   ; qtot 234.236641
 5297         hc    234    ccc     H4   5297 0.02647500   1.008000   ; qtot 234.263116
 5298         c3    234    ccc     C3   5298 0.04732600  12.010000   ; qtot 234.310442
 5299         h1    234    ccc     H5   5299 0.07030200   1.008000   ; qtot 234.380744
 5300         h1    234    ccc     H6   5300 0.07030200   1.008000   ; qtot 234.451046
 5301         n4    234    ccc     N1   5301 -0.21077700  14.010000   ; qtot 234.240269
 5302         hn    234    ccc     H7   5302 0.28399900   1.008000   ; qtot 234.524268
 5303         hn    234    ccc     H8   5303 0.28399900   1.008000   ; qtot 234.808267
 5304         os    234    ccc     O1   5304 -0.09200600  16.000000   ; qtot 234.716261
 5305         hn    234    ccc    H17   5305 0.28399900   1.008000   ; qtot 235.000260
; residue  235 ccc rtp ccc q 1.0
 5306         c3    235    ccc     C1   5306 0.17060900  12.010000   ; qtot 235.170869
 5307         hx    235    ccc     H1   5307 0.04213200   1.008000   ; qtot 235.213001
 5308         hx    235    ccc     H2   5308 0.04213200   1.008000   ; qtot 235.255133
 5309         c3    235    ccc     C2   5309 -0.04496700  12.010000   ; qtot 235.210166
 5310         hc    235    ccc     H3   5310 0.02647500   1.008000   ; qtot 235.236641
 5311         hc    235    ccc     H4   5311 0.02647500   1.008000   ; qtot 235.263116
 5312         c3    235    ccc     C3   5312 0.04732600  12.010000   ; qtot 235.310442
 5313         h1    235    ccc     H5   5313 0.07030200   1.008000   ; qtot 235.380744
 5314         h1    235    ccc     H6   5314 0.07030200   1.008000   ; qtot 235.451046
 5315         n4    235    ccc     N1   5315 -0.21077700  14.010000   ; qtot 235.240269
 5316         hn    235    ccc     H7   5316 0.28399900   1.008000   ; qtot 235.524268
 5317         hn    235    ccc     H8   5317 0.28399900   1.008000   ; qtot 235.808267
 5318         os    235    ccc     O1   5318 -0.09200600  16.000000   ; qtot 235.716261
 5319         hn    235    ccc    H17   5319 0.28399900   1.008000   ; qtot 236.000260
; residue  236 ccc rtp ccc q 1.0
 5320         c3    236    ccc     C1   5320 0.17060900  12.010000   ; qtot 236.170869
 5321         hx    236    ccc     H1   5321 0.04213200   1.008000   ; qtot 236.213001
 5322         hx    236    ccc     H2   5322 0.04213200   1.008000   ; qtot 236.255133
 5323         c3    236    ccc     C2   5323 -0.04496700  12.010000   ; qtot 236.210166
 5324         hc    236    ccc     H3   5324 0.02647500   1.008000   ; qtot 236.236641
 5325         hc    236    ccc     H4   5325 0.02647500   1.008000   ; qtot 236.263116
 5326         c3    236    ccc     C3   5326 0.04732600  12.010000   ; qtot 236.310442
 5327         h1    236    ccc     H5   5327 0.07030200   1.008000   ; qtot 236.380744
 5328         h1    236    ccc     H6   5328 0.07030200   1.008000   ; qtot 236.451046
 5329         n4    236    ccc     N1   5329 -0.21077700  14.010000   ; qtot 236.240269
 5330         hn    236    ccc     H7   5330 0.28399900   1.008000   ; qtot 236.524268
 5331         hn    236    ccc     H8   5331 0.28399900   1.008000   ; qtot 236.808267
 5332         os    236    ccc     O1   5332 -0.09200600  16.000000   ; qtot 236.716261
 5333         hn    236    ccc    H17   5333 0.28399900   1.008000   ; qtot 237.000260
; residue  237 ccc rtp ccc q 1.0
 5334         c3    237    ccc     C1   5334 0.17060900  12.010000   ; qtot 237.170869
 5335         hx    237    ccc     H1   5335 0.04213200   1.008000   ; qtot 237.213001
 5336         hx    237    ccc     H2   5336 0.04213200   1.008000   ; qtot 237.255133
 5337         c3    237    ccc     C2   5337 -0.04496700  12.010000   ; qtot 237.210166
 5338         hc    237    ccc     H3   5338 0.02647500   1.008000   ; qtot 237.236641
 5339         hc    237    ccc     H4   5339 0.02647500   1.008000   ; qtot 237.263116
 5340         c3    237    ccc     C3   5340 0.04732600  12.010000   ; qtot 237.310442
 5341         h1    237    ccc     H5   5341 0.07030200   1.008000   ; qtot 237.380744
 5342         h1    237    ccc     H6   5342 0.07030200   1.008000   ; qtot 237.451046
 5343         n4    237    ccc     N1   5343 -0.21077700  14.010000   ; qtot 237.240269
 5344         hn    237    ccc     H7   5344 0.28399900   1.008000   ; qtot 237.524268
 5345         hn    237    ccc     H8   5345 0.28399900   1.008000   ; qtot 237.808267
 5346         os    237    ccc     O1   5346 -0.09200600  16.000000   ; qtot 237.716261
 5347         hn    237    ccc    H17   5347 0.28399900   1.008000   ; qtot 238.000260
; residue  238 ccc rtp ccc q 1.0
 5348         c3    238    ccc     C1   5348 0.17060900  12.010000   ; qtot 238.170869
 5349         hx    238    ccc     H1   5349 0.04213200   1.008000   ; qtot 238.213001
 5350         hx    238    ccc     H2   5350 0.04213200   1.008000   ; qtot 238.255133
 5351         c3    238    ccc     C2   5351 -0.04496700  12.010000   ; qtot 238.210166
 5352         hc    238    ccc     H3   5352 0.02647500   1.008000   ; qtot 238.236641
 5353         hc    238    ccc     H4   5353 0.02647500   1.008000   ; qtot 238.263116
 5354         c3    238    ccc     C3   5354 0.04732600  12.010000   ; qtot 238.310442
 5355         h1    238    ccc     H5   5355 0.07030200   1.008000   ; qtot 238.380744
 5356         h1    238    ccc     H6   5356 0.07030200   1.008000   ; qtot 238.451046
 5357         n4    238    ccc     N1   5357 -0.21077700  14.010000   ; qtot 238.240269
 5358         hn    238    ccc     H7   5358 0.28399900   1.008000   ; qtot 238.524268
 5359         hn    238    ccc     H8   5359 0.28399900   1.008000   ; qtot 238.808267
 5360         os    238    ccc     O1   5360 -0.09200600  16.000000   ; qtot 238.716261
 5361         hn    238    ccc    H17   5361 0.28399900   1.008000   ; qtot 239.000260
; residue  239 ccc rtp ccc q 1.0
 5362         c3    239    ccc     C1   5362 0.17060900  12.010000   ; qtot 239.170869
 5363         hx    239    ccc     H1   5363 0.04213200   1.008000   ; qtot 239.213001
 5364         hx    239    ccc     H2   5364 0.04213200   1.008000   ; qtot 239.255133
 5365         c3    239    ccc     C2   5365 -0.04496700  12.010000   ; qtot 239.210166
 5366         hc    239    ccc     H3   5366 0.02647500   1.008000   ; qtot 239.236641
 5367         hc    239    ccc     H4   5367 0.02647500   1.008000   ; qtot 239.263116
 5368         c3    239    ccc     C3   5368 0.04732600  12.010000   ; qtot 239.310442
 5369         h1    239    ccc     H5   5369 0.07030200   1.008000   ; qtot 239.380744
 5370         h1    239    ccc     H6   5370 0.07030200   1.008000   ; qtot 239.451046
 5371         n4    239    ccc     N1   5371 -0.21077700  14.010000   ; qtot 239.240269
 5372         hn    239    ccc     H7   5372 0.28399900   1.008000   ; qtot 239.524268
 5373         hn    239    ccc     H8   5373 0.28399900   1.008000   ; qtot 239.808267
 5374         os    239    ccc     O1   5374 -0.09200600  16.000000   ; qtot 239.716261
 5375         hn    239    ccc    H17   5375 0.28399900   1.008000   ; qtot 240.000260
; residue  240 ccc rtp ccc q 1.0
 5376         c3    240    ccc     C1   5376 0.17060900  12.010000   ; qtot 240.170869
 5377         hx    240    ccc     H1   5377 0.04213200   1.008000   ; qtot 240.213001
 5378         hx    240    ccc     H2   5378 0.04213200   1.008000   ; qtot 240.255133
 5379         c3    240    ccc     C2   5379 -0.04496700  12.010000   ; qtot 240.210166
 5380         hc    240    ccc     H3   5380 0.02647500   1.008000   ; qtot 240.236641
 5381         hc    240    ccc     H4   5381 0.02647500   1.008000   ; qtot 240.263116
 5382         c3    240    ccc     C3   5382 0.04732600  12.010000   ; qtot 240.310442
 5383         h1    240    ccc     H5   5383 0.07030200   1.008000   ; qtot 240.380744
 5384         h1    240    ccc     H6   5384 0.07030200   1.008000   ; qtot 240.451046
 5385         n4    240    ccc     N1   5385 -0.21077700  14.010000   ; qtot 240.240269
 5386         hn    240    ccc     H7   5386 0.28399900   1.008000   ; qtot 240.524268
 5387         hn    240    ccc     H8   5387 0.28399900   1.008000   ; qtot 240.808267
 5388         os    240    ccc     O1   5388 -0.09200600  16.000000   ; qtot 240.716261
 5389         hn    240    ccc    H17   5389 0.28399900   1.008000   ; qtot 241.000260
; residue  241 ccc rtp ccc q 1.0
 5390         c3    241    ccc     C1   5390 0.17060900  12.010000   ; qtot 241.170869
 5391         hx    241    ccc     H1   5391 0.04213200   1.008000   ; qtot 241.213001
 5392         hx    241    ccc     H2   5392 0.04213200   1.008000   ; qtot 241.255133
 5393         c3    241    ccc     C2   5393 -0.04496700  12.010000   ; qtot 241.210166
 5394         hc    241    ccc     H3   5394 0.02647500   1.008000   ; qtot 241.236641
 5395         hc    241    ccc     H4   5395 0.02647500   1.008000   ; qtot 241.263116
 5396         c3    241    ccc     C3   5396 0.04732600  12.010000   ; qtot 241.310442
 5397         h1    241    ccc     H5   5397 0.07030200   1.008000   ; qtot 241.380744
 5398         h1    241    ccc     H6   5398 0.07030200   1.008000   ; qtot 241.451046
 5399         n4    241    ccc     N1   5399 -0.21077700  14.010000   ; qtot 241.240269
 5400         hn    241    ccc     H7   5400 0.28399900   1.008000   ; qtot 241.524268
 5401         hn    241    ccc     H8   5401 0.28399900   1.008000   ; qtot 241.808267
 5402         os    241    ccc     O1   5402 -0.09200600  16.000000   ; qtot 241.716261
 5403         hn    241    ccc    H17   5403 0.28399900   1.008000   ; qtot 242.000260
; residue  242 ccc rtp ccc q 1.0
 5404         c3    242    ccc     C1   5404 0.17060900  12.010000   ; qtot 242.170869
 5405         hx    242    ccc     H1   5405 0.04213200   1.008000   ; qtot 242.213001
 5406         hx    242    ccc     H2   5406 0.04213200   1.008000   ; qtot 242.255133
 5407         c3    242    ccc     C2   5407 -0.04496700  12.010000   ; qtot 242.210166
 5408         hc    242    ccc     H3   5408 0.02647500   1.008000   ; qtot 242.236641
 5409         hc    242    ccc     H4   5409 0.02647500   1.008000   ; qtot 242.263116
 5410         c3    242    ccc     C3   5410 0.04732600  12.010000   ; qtot 242.310442
 5411         h1    242    ccc     H5   5411 0.07030200   1.008000   ; qtot 242.380744
 5412         h1    242    ccc     H6   5412 0.07030200   1.008000   ; qtot 242.451046
 5413         n4    242    ccc     N1   5413 -0.21077700  14.010000   ; qtot 242.240269
 5414         hn    242    ccc     H7   5414 0.28399900   1.008000   ; qtot 242.524268
 5415         hn    242    ccc     H8   5415 0.28399900   1.008000   ; qtot 242.808267
 5416         os    242    ccc     O1   5416 -0.09200600  16.000000   ; qtot 242.716261
 5417         hn    242    ccc    H17   5417 0.28399900   1.008000   ; qtot 243.000260
; residue  243 ccc rtp ccc q 1.0
 5418         c3    243    ccc     C1   5418 0.17060900  12.010000   ; qtot 243.170869
 5419         hx    243    ccc     H1   5419 0.04213200   1.008000   ; qtot 243.213001
 5420         hx    243    ccc     H2   5420 0.04213200   1.008000   ; qtot 243.255133
 5421         c3    243    ccc     C2   5421 -0.04496700  12.010000   ; qtot 243.210166
 5422         hc    243    ccc     H3   5422 0.02647500   1.008000   ; qtot 243.236641
 5423         hc    243    ccc     H4   5423 0.02647500   1.008000   ; qtot 243.263116
 5424         c3    243    ccc     C3   5424 0.04732600  12.010000   ; qtot 243.310442
 5425         h1    243    ccc     H5   5425 0.07030200   1.008000   ; qtot 243.380744
 5426         h1    243    ccc     H6   5426 0.07030200   1.008000   ; qtot 243.451046
 5427         n4    243    ccc     N1   5427 -0.21077700  14.010000   ; qtot 243.240269
 5428         hn    243    ccc     H7   5428 0.28399900   1.008000   ; qtot 243.524268
 5429         hn    243    ccc     H8   5429 0.28399900   1.008000   ; qtot 243.808267
 5430         os    243    ccc     O1   5430 -0.09200600  16.000000   ; qtot 243.716261
 5431         hn    243    ccc    H17   5431 0.28399900   1.008000   ; qtot 244.000260
; residue  244 ccc rtp ccc q 1.0
 5432         c3    244    ccc     C1   5432 0.17060900  12.010000   ; qtot 244.170869
 5433         hx    244    ccc     H1   5433 0.04213200   1.008000   ; qtot 244.213001
 5434         hx    244    ccc     H2   5434 0.04213200   1.008000   ; qtot 244.255133
 5435         c3    244    ccc     C2   5435 -0.04496700  12.010000   ; qtot 244.210166
 5436         hc    244    ccc     H3   5436 0.02647500   1.008000   ; qtot 244.236641
 5437         hc    244    ccc     H4   5437 0.02647500   1.008000   ; qtot 244.263116
 5438         c3    244    ccc     C3   5438 0.04732600  12.010000   ; qtot 244.310442
 5439         h1    244    ccc     H5   5439 0.07030200   1.008000   ; qtot 244.380744
 5440         h1    244    ccc     H6   5440 0.07030200   1.008000   ; qtot 244.451046
 5441         n4    244    ccc     N1   5441 -0.21077700  14.010000   ; qtot 244.240269
 5442         hn    244    ccc     H7   5442 0.28399900   1.008000   ; qtot 244.524268
 5443         hn    244    ccc     H8   5443 0.28399900   1.008000   ; qtot 244.808267
 5444         os    244    ccc     O1   5444 -0.09200600  16.000000   ; qtot 244.716261
 5445         hn    244    ccc    H17   5445 0.28399900   1.008000   ; qtot 245.000260
; residue  245 ccc rtp ccc q 1.0
 5446         c3    245    ccc     C1   5446 0.17060900  12.010000   ; qtot 245.170869
 5447         hx    245    ccc     H1   5447 0.04213200   1.008000   ; qtot 245.213001
 5448         hx    245    ccc     H2   5448 0.04213200   1.008000   ; qtot 245.255133
 5449         c3    245    ccc     C2   5449 -0.04496700  12.010000   ; qtot 245.210166
 5450         hc    245    ccc     H3   5450 0.02647500   1.008000   ; qtot 245.236641
 5451         hc    245    ccc     H4   5451 0.02647500   1.008000   ; qtot 245.263116
 5452         c3    245    ccc     C3   5452 0.04732600  12.010000   ; qtot 245.310442
 5453         h1    245    ccc     H5   5453 0.07030200   1.008000   ; qtot 245.380744
 5454         h1    245    ccc     H6   5454 0.07030200   1.008000   ; qtot 245.451046
 5455         n4    245    ccc     N1   5455 -0.21077700  14.010000   ; qtot 245.240269
 5456         hn    245    ccc     H7   5456 0.28399900   1.008000   ; qtot 245.524268
 5457         hn    245    ccc     H8   5457 0.28399900   1.008000   ; qtot 245.808267
 5458         os    245    ccc     O1   5458 -0.09200600  16.000000   ; qtot 245.716261
 5459         hn    245    ccc    H17   5459 0.28399900   1.008000   ; qtot 246.000260
; residue  246 ccc rtp ccc q 1.0
 5460         c3    246    ccc     C1   5460 0.17060900  12.010000   ; qtot 246.170869
 5461         hx    246    ccc     H1   5461 0.04213200   1.008000   ; qtot 246.213001
 5462         hx    246    ccc     H2   5462 0.04213200   1.008000   ; qtot 246.255133
 5463         c3    246    ccc     C2   5463 -0.04496700  12.010000   ; qtot 246.210166
 5464         hc    246    ccc     H3   5464 0.02647500   1.008000   ; qtot 246.236641
 5465         hc    246    ccc     H4   5465 0.02647500   1.008000   ; qtot 246.263116
 5466         c3    246    ccc     C3   5466 0.04732600  12.010000   ; qtot 246.310442
 5467         h1    246    ccc     H5   5467 0.07030200   1.008000   ; qtot 246.380744
 5468         h1    246    ccc     H6   5468 0.07030200   1.008000   ; qtot 246.451046
 5469         n4    246    ccc     N1   5469 -0.21077700  14.010000   ; qtot 246.240269
 5470         hn    246    ccc     H7   5470 0.28399900   1.008000   ; qtot 246.524268
 5471         hn    246    ccc     H8   5471 0.28399900   1.008000   ; qtot 246.808267
 5472         os    246    ccc     O1   5472 -0.09200600  16.000000   ; qtot 246.716261
 5473         hn    246    ccc    H17   5473 0.28399900   1.008000   ; qtot 247.000260
; residue  247 ccc rtp ccc q 1.0
 5474         c3    247    ccc     C1   5474 0.17060900  12.010000   ; qtot 247.170869
 5475         hx    247    ccc     H1   5475 0.04213200   1.008000   ; qtot 247.213001
 5476         hx    247    ccc     H2   5476 0.04213200   1.008000   ; qtot 247.255133
 5477         c3    247    ccc     C2   5477 -0.04496700  12.010000   ; qtot 247.210166
 5478         hc    247    ccc     H3   5478 0.02647500   1.008000   ; qtot 247.236641
 5479         hc    247    ccc     H4   5479 0.02647500   1.008000   ; qtot 247.263116
 5480         c3    247    ccc     C3   5480 0.04732600  12.010000   ; qtot 247.310442
 5481         h1    247    ccc     H5   5481 0.07030200   1.008000   ; qtot 247.380744
 5482         h1    247    ccc     H6   5482 0.07030200   1.008000   ; qtot 247.451046
 5483         n4    247    ccc     N1   5483 -0.21077700  14.010000   ; qtot 247.240269
 5484         hn    247    ccc     H7   5484 0.28399900   1.008000   ; qtot 247.524268
 5485         hn    247    ccc     H8   5485 0.28399900   1.008000   ; qtot 247.808267
 5486         os    247    ccc     O1   5486 -0.09200600  16.000000   ; qtot 247.716261
 5487         hn    247    ccc    H17   5487 0.28399900   1.008000   ; qtot 248.000260
; residue  248 ccc rtp ccc q 1.0
 5488         c3    248    ccc     C1   5488 0.17060900  12.010000   ; qtot 248.170869
 5489         hx    248    ccc     H1   5489 0.04213200   1.008000   ; qtot 248.213001
 5490         hx    248    ccc     H2   5490 0.04213200   1.008000   ; qtot 248.255133
 5491         c3    248    ccc     C2   5491 -0.04496700  12.010000   ; qtot 248.210166
 5492         hc    248    ccc     H3   5492 0.02647500   1.008000   ; qtot 248.236641
 5493         hc    248    ccc     H4   5493 0.02647500   1.008000   ; qtot 248.263116
 5494         c3    248    ccc     C3   5494 0.04732600  12.010000   ; qtot 248.310442
 5495         h1    248    ccc     H5   5495 0.07030200   1.008000   ; qtot 248.380744
 5496         h1    248    ccc     H6   5496 0.07030200   1.008000   ; qtot 248.451046
 5497         n4    248    ccc     N1   5497 -0.21077700  14.010000   ; qtot 248.240269
 5498         hn    248    ccc     H7   5498 0.28399900   1.008000   ; qtot 248.524268
 5499         hn    248    ccc     H8   5499 0.28399900   1.008000   ; qtot 248.808267
 5500         os    248    ccc     O1   5500 -0.09200600  16.000000   ; qtot 248.716261
 5501         hn    248    ccc    H17   5501 0.28399900   1.008000   ; qtot 249.000260
; residue  249 ccc rtp ccc q 1.0
 5502         c3    249    ccc     C1   5502 0.17060900  12.010000   ; qtot 249.170869
 5503         hx    249    ccc     H1   5503 0.04213200   1.008000   ; qtot 249.213001
 5504         hx    249    ccc     H2   5504 0.04213200   1.008000   ; qtot 249.255133
 5505         c3    249    ccc     C2   5505 -0.04496700  12.010000   ; qtot 249.210166
 5506         hc    249    ccc     H3   5506 0.02647500   1.008000   ; qtot 249.236641
 5507         hc    249    ccc     H4   5507 0.02647500   1.008000   ; qtot 249.263116
 5508         c3    249    ccc     C3   5508 0.04732600  12.010000   ; qtot 249.310442
 5509         h1    249    ccc     H5   5509 0.07030200   1.008000   ; qtot 249.380744
 5510         h1    249    ccc     H6   5510 0.07030200   1.008000   ; qtot 249.451046
 5511         n4    249    ccc     N1   5511 -0.21077700  14.010000   ; qtot 249.240269
 5512         hn    249    ccc     H7   5512 0.28399900   1.008000   ; qtot 249.524268
 5513         hn    249    ccc     H8   5513 0.28399900   1.008000   ; qtot 249.808267
 5514         os    249    ccc     O1   5514 -0.09200600  16.000000   ; qtot 249.716261
 5515         hn    249    ccc    H17   5515 0.28399900   1.008000   ; qtot 250.000260
; residue  250 ccc rtp ccc q 1.0
 5516         c3    250    ccc     C1   5516 0.17060900  12.010000   ; qtot 250.170869
 5517         hx    250    ccc     H1   5517 0.04213200   1.008000   ; qtot 250.213001
 5518         hx    250    ccc     H2   5518 0.04213200   1.008000   ; qtot 250.255133
 5519         c3    250    ccc     C2   5519 -0.04496700  12.010000   ; qtot 250.210166
 5520         hc    250    ccc     H3   5520 0.02647500   1.008000   ; qtot 250.236641
 5521         hc    250    ccc     H4   5521 0.02647500   1.008000   ; qtot 250.263116
 5522         c3    250    ccc     C3   5522 0.04732600  12.010000   ; qtot 250.310442
 5523         h1    250    ccc     H5   5523 0.07030200   1.008000   ; qtot 250.380744
 5524         h1    250    ccc     H6   5524 0.07030200   1.008000   ; qtot 250.451046
 5525         n4    250    ccc     N1   5525 -0.21077700  14.010000   ; qtot 250.240269
 5526         hn    250    ccc     H7   5526 0.28399900   1.008000   ; qtot 250.524268
 5527         hn    250    ccc     H8   5527 0.28399900   1.008000   ; qtot 250.808267
 5528         os    250    ccc     O1   5528 -0.09200600  16.000000   ; qtot 250.716261
 5529         hn    250    ccc    H17   5529 0.28399900   1.008000   ; qtot 251.000260
; residue  251 ccc rtp ccc q 1.0
 5530         c3    251    ccc     C1   5530 0.17060900  12.010000   ; qtot 251.170869
 5531         hx    251    ccc     H1   5531 0.04213200   1.008000   ; qtot 251.213001
 5532         hx    251    ccc     H2   5532 0.04213200   1.008000   ; qtot 251.255133
 5533         c3    251    ccc     C2   5533 -0.04496700  12.010000   ; qtot 251.210166
 5534         hc    251    ccc     H3   5534 0.02647500   1.008000   ; qtot 251.236641
 5535         hc    251    ccc     H4   5535 0.02647500   1.008000   ; qtot 251.263116
 5536         c3    251    ccc     C3   5536 0.04732600  12.010000   ; qtot 251.310442
 5537         h1    251    ccc     H5   5537 0.07030200   1.008000   ; qtot 251.380744
 5538         h1    251    ccc     H6   5538 0.07030200   1.008000   ; qtot 251.451046
 5539         n4    251    ccc     N1   5539 -0.21077700  14.010000   ; qtot 251.240269
 5540         hn    251    ccc     H7   5540 0.28399900   1.008000   ; qtot 251.524268
 5541         hn    251    ccc     H8   5541 0.28399900   1.008000   ; qtot 251.808267
 5542         os    251    ccc     O1   5542 -0.09200600  16.000000   ; qtot 251.716261
 5543         hn    251    ccc    H17   5543 0.28399900   1.008000   ; qtot 252.000260
; residue  252 ccc rtp ccc q 1.0
 5544         c3    252    ccc     C1   5544 0.17060900  12.010000   ; qtot 252.170869
 5545         hx    252    ccc     H1   5545 0.04213200   1.008000   ; qtot 252.213001
 5546         hx    252    ccc     H2   5546 0.04213200   1.008000   ; qtot 252.255133
 5547         c3    252    ccc     C2   5547 -0.04496700  12.010000   ; qtot 252.210166
 5548         hc    252    ccc     H3   5548 0.02647500   1.008000   ; qtot 252.236641
 5549         hc    252    ccc     H4   5549 0.02647500   1.008000   ; qtot 252.263116
 5550         c3    252    ccc     C3   5550 0.04732600  12.010000   ; qtot 252.310442
 5551         h1    252    ccc     H5   5551 0.07030200   1.008000   ; qtot 252.380744
 5552         h1    252    ccc     H6   5552 0.07030200   1.008000   ; qtot 252.451046
 5553         n4    252    ccc     N1   5553 -0.21077700  14.010000   ; qtot 252.240269
 5554         hn    252    ccc     H7   5554 0.28399900   1.008000   ; qtot 252.524268
 5555         hn    252    ccc     H8   5555 0.28399900   1.008000   ; qtot 252.808267
 5556         os    252    ccc     O1   5556 -0.09200600  16.000000   ; qtot 252.716261
 5557         hn    252    ccc    H17   5557 0.28399900   1.008000   ; qtot 253.000260
; residue  253 ccc rtp ccc q 1.0
 5558         c3    253    ccc     C1   5558 0.17060900  12.010000   ; qtot 253.170869
 5559         hx    253    ccc     H1   5559 0.04213200   1.008000   ; qtot 253.213001
 5560         hx    253    ccc     H2   5560 0.04213200   1.008000   ; qtot 253.255133
 5561         c3    253    ccc     C2   5561 -0.04496700  12.010000   ; qtot 253.210166
 5562         hc    253    ccc     H3   5562 0.02647500   1.008000   ; qtot 253.236641
 5563         hc    253    ccc     H4   5563 0.02647500   1.008000   ; qtot 253.263116
 5564         c3    253    ccc     C3   5564 0.04732600  12.010000   ; qtot 253.310442
 5565         h1    253    ccc     H5   5565 0.07030200   1.008000   ; qtot 253.380744
 5566         h1    253    ccc     H6   5566 0.07030200   1.008000   ; qtot 253.451046
 5567         n4    253    ccc     N1   5567 -0.21077700  14.010000   ; qtot 253.240269
 5568         hn    253    ccc     H7   5568 0.28399900   1.008000   ; qtot 253.524268
 5569         hn    253    ccc     H8   5569 0.28399900   1.008000   ; qtot 253.808267
 5570         os    253    ccc     O1   5570 -0.09200600  16.000000   ; qtot 253.716261
 5571         hn    253    ccc    H17   5571 0.28399900   1.008000   ; qtot 254.000260

[ bonds ]
;    ai     aj funct         c0         c1         c2         c3
      1      2     1   0.14316 258236.480000
      1      5     1   0.14316 258236.480000
      2      8     1   0.15375 251793.120000
      5     11     1   0.15375 251793.120000
      8     14     1   0.15375 251793.120000
     11     17     1   0.15375 251793.120000
     14     20     1   0.15110 237065.440000
     17     21     1   0.15110 237065.440000
     20     28     1   0.15110 237065.440000
     20     31     1   0.15110 237065.440000
     21     22     1   0.15110 237065.440000
     21     25     1   0.15110 237065.440000
     22     34     1   0.15375 251793.120000
     25     37     1   0.15375 251793.120000
     28     40     1   0.15375 251793.120000
     31     43     1   0.15375 251793.120000
     34     55     1   0.15375 251793.120000
     37     52     1   0.15375 251793.120000
     40     49     1   0.15375 251793.120000
     43     46     1   0.15375 251793.120000
     46     88     1   0.14316 258236.480000
     49    118     1   0.14316 258236.480000
     52    148     1   0.14316 258236.480000
     55    178     1   0.14316 258236.480000
     60     61     1   0.15110 237065.440000
     60     64     1   0.15110 237065.440000
     60     67     1   0.15110 237065.440000
     61     73     1   0.15375 251793.120000
     64     76     1   0.15375 251793.120000
     67     70     1   0.15375 251793.120000
     70     79     1   0.15375 251793.120000
     73     85     1   0.15375 251793.120000
     76     82     1   0.15375 251793.120000
     79     88     1   0.14316 258236.480000
     82    208     1   0.14316 258236.480000
     85    238     1   0.14316 258236.480000
     90     91     1   0.15110 237065.440000
     90     94     1   0.15110 237065.440000
     90     97     1   0.15110 237065.440000
     91    103     1   0.15375 251793.120000
     94    106     1   0.15375 251793.120000
     97    100     1   0.15375 251793.120000
    100    109     1   0.15375 251793.120000
    103    115     1   0.15375 251793.120000
    106    112     1   0.15375 251793.120000
    109    118     1   0.14316 258236.480000
    112    268     1   0.14316 258236.480000
    115    298     1   0.14316 258236.480000
    120    121     1   0.15110 237065.440000
    120    124     1   0.15110 237065.440000
    120    127     1   0.15110 237065.440000
    121    133     1   0.15375 251793.120000
    124    136     1   0.15375 251793.120000
    127    130     1   0.15375 251793.120000
    130    139     1   0.15375 251793.120000
    133    145     1   0.15375 251793.120000
    136    142     1   0.15375 251793.120000
    139    148     1   0.14316 258236.480000
    142    328     1   0.14316 258236.480000
    145    358     1   0.14316 258236.480000
    150    151     1   0.15110 237065.440000
    150    154     1   0.15110 237065.440000
    150    157     1   0.15110 237065.440000
    151    163     1   0.15375 251793.120000
    154    166     1   0.15375 251793.120000
    157    160     1   0.15375 251793.120000
    160    169     1   0.15375 251793.120000
    163    175     1   0.15375 251793.120000
    166    172     1   0.15375 251793.120000
    169    178     1   0.14316 258236.480000
    172    388     1   0.14316 258236.480000
    175    418     1   0.14316 258236.480000
    180    181     1   0.15110 237065.440000
    180    184     1   0.15110 237065.440000
    180    187     1   0.15110 237065.440000
    181    193     1   0.15375 251793.120000
    184    196     1   0.15375 251793.120000
    187    190     1   0.15375 251793.120000
    190    199     1   0.15375 251793.120000
    193    205     1   0.15375 251793.120000
    196    202     1   0.15375 251793.120000
    199    208     1   0.14316 258236.480000
    202    448     1   0.14316 258236.480000
    205    478     1   0.14316 258236.480000
    210    211     1   0.15110 237065.440000
    210    214     1   0.15110 237065.440000
    210    217     1   0.15110 237065.440000
    211    223     1   0.15375 251793.120000
    214    226     1   0.15375 251793.120000
    217    220     1   0.15375 251793.120000
    220    229     1   0.15375 251793.120000
    223    235     1   0.15375 251793.120000
    226    232     1   0.15375 251793.120000
    229    238     1   0.14316 258236.480000
    232    508     1   0.14316 258236.480000
    235    538     1   0.14316 258236.480000
    240    241     1   0.15110 237065.440000
    240    244     1   0.15110 237065.440000
    240    247     1   0.15110 237065.440000
    241    253     1   0.15375 251793.120000
    244    256     1   0.15375 251793.120000
    247    250     1   0.15375 251793.120000
    250    259     1   0.15375 251793.120000
    253    265     1   0.15375 251793.120000
    256    262     1   0.15375 251793.120000
    259    268     1   0.14316 258236.480000
    262    568     1   0.14316 258236.480000
    265    598     1   0.14316 258236.480000
    270    271     1   0.15110 237065.440000
    270    274     1   0.15110 237065.440000
    270    277     1   0.15110 237065.440000
    271    283     1   0.15375 251793.120000
    274    286     1   0.15375 251793.120000
    277    280     1   0.15375 251793.120000
    280    289     1   0.15375 251793.120000
    283    295     1   0.15375 251793.120000
    286    292     1   0.15375 251793.120000
    289    298     1   0.14316 258236.480000
    292    628     1   0.14316 258236.480000
    295    658     1   0.14316 258236.480000
    300    301     1   0.15110 237065.440000
    300    304     1   0.15110 237065.440000
    300    307     1   0.15110 237065.440000
    301    313     1   0.15375 251793.120000
    304    316     1   0.15375 251793.120000
    307    310     1   0.15375 251793.120000
    310    319     1   0.15375 251793.120000
    313    325     1   0.15375 251793.120000
    316    322     1   0.15375 251793.120000
    319    328     1   0.14316 258236.480000
    322    688     1   0.14316 258236.480000
    325    718     1   0.14316 258236.480000
    330    331     1   0.15110 237065.440000
    330    334     1   0.15110 237065.440000
    330    337     1   0.15110 237065.440000
    331    343     1   0.15375 251793.120000
    334    346     1   0.15375 251793.120000
    337    340     1   0.15375 251793.120000
    340    349     1   0.15375 251793.120000
    343    355     1   0.15375 251793.120000
    346    352     1   0.15375 251793.120000
    349    358     1   0.14316 258236.480000
    352    748     1   0.14316 258236.480000
    355    778     1   0.14316 258236.480000
    360    361     1   0.15110 237065.440000
    360    364     1   0.15110 237065.440000
    360    367     1   0.15110 237065.440000
    361    373     1   0.15375 251793.120000
    364    376     1   0.15375 251793.120000
    367    370     1   0.15375 251793.120000
    370    379     1   0.15375 251793.120000
    373    385     1   0.15375 251793.120000
    376    382     1   0.15375 251793.120000
    379    388     1   0.14316 258236.480000
    382    808     1   0.14316 258236.480000
    385    838     1   0.14316 258236.480000
    390    391     1   0.15110 237065.440000
    390    394     1   0.15110 237065.440000
    390    397     1   0.15110 237065.440000
    391    403     1   0.15375 251793.120000
    394    406     1   0.15375 251793.120000
    397    400     1   0.15375 251793.120000
    400    409     1   0.15375 251793.120000
    403    415     1   0.15375 251793.120000
    406    412     1   0.15375 251793.120000
    409    418     1   0.14316 258236.480000
    412    868     1   0.14316 258236.480000
    415    898     1   0.14316 258236.480000
    420    421     1   0.15110 237065.440000
    420    424     1   0.15110 237065.440000
    420    427     1   0.15110 237065.440000
    421    433     1   0.15375 251793.120000
    424    436     1   0.15375 251793.120000
    427    430     1   0.15375 251793.120000
    430    439     1   0.15375 251793.120000
    433    445     1   0.15375 251793.120000
    436    442     1   0.15375 251793.120000
    439    448     1   0.14316 258236.480000
    442    928     1   0.14316 258236.480000
    445    958     1   0.14316 258236.480000
    450    451     1   0.15110 237065.440000
    450    454     1   0.15110 237065.440000
    450    457     1   0.15110 237065.440000
    451    463     1   0.15375 251793.120000
    454    466     1   0.15375 251793.120000
    457    460     1   0.15375 251793.120000
    460    469     1   0.15375 251793.120000
    463    475     1   0.15375 251793.120000
    466    472     1   0.15375 251793.120000
    469    478     1   0.14316 258236.480000
    472    988     1   0.14316 258236.480000
    475   1018     1   0.14316 258236.480000
    480    481     1   0.15110 237065.440000
    480    484     1   0.15110 237065.440000
    480    487     1   0.15110 237065.440000
    481    493     1   0.15375 251793.120000
    484    496     1   0.15375 251793.120000
    487    490     1   0.15375 251793.120000
    490    499     1   0.15375 251793.120000
    493    505     1   0.15375 251793.120000
    496    502     1   0.15375 251793.120000
    499    508     1   0.14316 258236.480000
    502   1048     1   0.14316 258236.480000
    505   1078     1   0.14316 258236.480000
    510    511     1   0.15110 237065.440000
    510    514     1   0.15110 237065.440000
    510    517     1   0.15110 237065.440000
    511    523     1   0.15375 251793.120000
    514    526     1   0.15375 251793.120000
    517    520     1   0.15375 251793.120000
    520    529     1   0.15375 251793.120000
    523    535     1   0.15375 251793.120000
    526    532     1   0.15375 251793.120000
    529    538     1   0.14316 258236.480000
    532   1108     1   0.14316 258236.480000
    535   1138     1   0.14316 258236.480000
    540    541     1   0.15110 237065.440000
    540    544     1   0.15110 237065.440000
    540    547     1   0.15110 237065.440000
    541    553     1   0.15375 251793.120000
    544    556     1   0.15375 251793.120000
    547    550     1   0.15375 251793.120000
    550    559     1   0.15375 251793.120000
    553    565     1   0.15375 251793.120000
    556    562     1   0.15375 251793.120000
    559    568     1   0.14316 258236.480000
    562   1168     1   0.14316 258236.480000
    565   1198     1   0.14316 258236.480000
    570    571     1   0.15110 237065.440000
    570    574     1   0.15110 237065.440000
    570    577     1   0.15110 237065.440000
    571    583     1   0.15375 251793.120000
    574    586     1   0.15375 251793.120000
    577    580     1   0.15375 251793.120000
    580    589     1   0.15375 251793.120000
    583    595     1   0.15375 251793.120000
    586    592     1   0.15375 251793.120000
    589    598     1   0.14316 258236.480000
    592   1228     1   0.14316 258236.480000
    595   1258     1   0.14316 258236.480000
    600    601     1   0.15110 237065.440000
    600    604     1   0.15110 237065.440000
    600    607     1   0.15110 237065.440000
    601    613     1   0.15375 251793.120000
    604    616     1   0.15375 251793.120000
    607    610     1   0.15375 251793.120000
    610    619     1   0.15375 251793.120000
    613    625     1   0.15375 251793.120000
    616    622     1   0.15375 251793.120000
    619    628     1   0.14316 258236.480000
    622   1288     1   0.14316 258236.480000
    625   1318     1   0.14316 258236.480000
    630    631     1   0.15110 237065.440000
    630    634     1   0.15110 237065.440000
    630    637     1   0.15110 237065.440000
    631    643     1   0.15375 251793.120000
    634    646     1   0.15375 251793.120000
    637    640     1   0.15375 251793.120000
    640    649     1   0.15375 251793.120000
    643    655     1   0.15375 251793.120000
    646    652     1   0.15375 251793.120000
    649    658     1   0.14316 258236.480000
    652   1348     1   0.14316 258236.480000
    655   1378     1   0.14316 258236.480000
    660    661     1   0.15110 237065.440000
    660    664     1   0.15110 237065.440000
    660    667     1   0.15110 237065.440000
    661    673     1   0.15375 251793.120000
    664    676     1   0.15375 251793.120000
    667    670     1   0.15375 251793.120000
    670    679     1   0.15375 251793.120000
    673    685     1   0.15375 251793.120000
    676    682     1   0.15375 251793.120000
    679    688     1   0.14316 258236.480000
    682   1408     1   0.14316 258236.480000
    685   1438     1   0.14316 258236.480000
    690    691     1   0.15110 237065.440000
    690    694     1   0.15110 237065.440000
    690    697     1   0.15110 237065.440000
    691    703     1   0.15375 251793.120000
    694    706     1   0.15375 251793.120000
    697    700     1   0.15375 251793.120000
    700    709     1   0.15375 251793.120000
    703    715     1   0.15375 251793.120000
    706    712     1   0.15375 251793.120000
    709    718     1   0.14316 258236.480000
    712   1468     1   0.14316 258236.480000
    715   1498     1   0.14316 258236.480000
    720    721     1   0.15110 237065.440000
    720    724     1   0.15110 237065.440000
    720    727     1   0.15110 237065.440000
    721    733     1   0.15375 251793.120000
    724    736     1   0.15375 251793.120000
    727    730     1   0.15375 251793.120000
    730    739     1   0.15375 251793.120000
    733    745     1   0.15375 251793.120000
    736    742     1   0.15375 251793.120000
    739    748     1   0.14316 258236.480000
    742   1528     1   0.14316 258236.480000
    745   1558     1   0.14316 258236.480000
    750    751     1   0.15110 237065.440000
    750    754     1   0.15110 237065.440000
    750    757     1   0.15110 237065.440000
    751    763     1   0.15375 251793.120000
    754    766     1   0.15375 251793.120000
    757    760     1   0.15375 251793.120000
    760    769     1   0.15375 251793.120000
    763    775     1   0.15375 251793.120000
    766    772     1   0.15375 251793.120000
    769    778     1   0.14316 258236.480000
    772   1588     1   0.14316 258236.480000
    775   1618     1   0.14316 258236.480000
    780    781     1   0.15110 237065.440000
    780    784     1   0.15110 237065.440000
    780    787     1   0.15110 237065.440000
    781    793     1   0.15375 251793.120000
    784    796     1   0.15375 251793.120000
    787    790     1   0.15375 251793.120000
    790    799     1   0.15375 251793.120000
    793    805     1   0.15375 251793.120000
    796    802     1   0.15375 251793.120000
    799    808     1   0.14316 258236.480000
    802   1648     1   0.14316 258236.480000
    805   1678     1   0.14316 258236.480000
    810    811     1   0.15110 237065.440000
    810    814     1   0.15110 237065.440000
    810    817     1   0.15110 237065.440000
    811    823     1   0.15375 251793.120000
    814    826     1   0.15375 251793.120000
    817    820     1   0.15375 251793.120000
    820    829     1   0.15375 251793.120000
    823    835     1   0.15375 251793.120000
    826    832     1   0.15375 251793.120000
    829    838     1   0.14316 258236.480000
    832   1708     1   0.14316 258236.480000
    835   1738     1   0.14316 258236.480000
    840    841     1   0.15110 237065.440000
    840    844     1   0.15110 237065.440000
    840    847     1   0.15110 237065.440000
    841    853     1   0.15375 251793.120000
    844    856     1   0.15375 251793.120000
    847    850     1   0.15375 251793.120000
    850    859     1   0.15375 251793.120000
    853    865     1   0.15375 251793.120000
    856    862     1   0.15375 251793.120000
    859    868     1   0.14316 258236.480000
    862   1768     1   0.14316 258236.480000
    865   1798     1   0.14316 258236.480000
    870    871     1   0.15110 237065.440000
    870    874     1   0.15110 237065.440000
    870    877     1   0.15110 237065.440000
    871    883     1   0.15375 251793.120000
    874    886     1   0.15375 251793.120000
    877    880     1   0.15375 251793.120000
    880    889     1   0.15375 251793.120000
    883    895     1   0.15375 251793.120000
    886    892     1   0.15375 251793.120000
    889    898     1   0.14316 258236.480000
    892   1828     1   0.14316 258236.480000
    895   1858     1   0.14316 258236.480000
    900    901     1   0.15110 237065.440000
    900    904     1   0.15110 237065.440000
    900    907     1   0.15110 237065.440000
    901    913     1   0.15375 251793.120000
    904    916     1   0.15375 251793.120000
    907    910     1   0.15375 251793.120000
    910    919     1   0.15375 251793.120000
    913    925     1   0.15375 251793.120000
    916    922     1   0.15375 251793.120000
    919    928     1   0.14316 258236.480000
    922   1888     1   0.14316 258236.480000
    925   1918     1   0.14316 258236.480000
    930    931     1   0.15110 237065.440000
    930    934     1   0.15110 237065.440000
    930    937     1   0.15110 237065.440000
    931    943     1   0.15375 251793.120000
    934    946     1   0.15375 251793.120000
    937    940     1   0.15375 251793.120000
    940    949     1   0.15375 251793.120000
    943    955     1   0.15375 251793.120000
    946    952     1   0.15375 251793.120000
    949    958     1   0.14316 258236.480000
    952   1948     1   0.14316 258236.480000
    955   1978     1   0.14316 258236.480000
    960    961     1   0.15110 237065.440000
    960    964     1   0.15110 237065.440000
    960    967     1   0.15110 237065.440000
    961    973     1   0.15375 251793.120000
    964    976     1   0.15375 251793.120000
    967    970     1   0.15375 251793.120000
    970    979     1   0.15375 251793.120000
    973    985     1   0.15375 251793.120000
    976    982     1   0.15375 251793.120000
    979    988     1   0.14316 258236.480000
    982   2008     1   0.14316 258236.480000
    985   2038     1   0.14316 258236.480000
    990    991     1   0.15110 237065.440000
    990    994     1   0.15110 237065.440000
    990    997     1   0.15110 237065.440000
    991   1003     1   0.15375 251793.120000
    994   1006     1   0.15375 251793.120000
    997   1000     1   0.15375 251793.120000
   1000   1009     1   0.15375 251793.120000
   1003   1015     1   0.15375 251793.120000
   1006   1012     1   0.15375 251793.120000
   1009   1018     1   0.14316 258236.480000
   1012   2068     1   0.14316 258236.480000
   1015   2098     1   0.14316 258236.480000
   1020   1021     1   0.15110 237065.440000
   1020   1024     1   0.15110 237065.440000
   1020   1027     1   0.15110 237065.440000
   1021   1033     1   0.15375 251793.120000
   1024   1036     1   0.15375 251793.120000
   1027   1030     1   0.15375 251793.120000
   1030   1039     1   0.15375 251793.120000
   1033   1045     1   0.15375 251793.120000
   1036   1042     1   0.15375 251793.120000
   1039   1048     1   0.14316 258236.480000
   1042   2128     1   0.14316 258236.480000
   1045   2158     1   0.14316 258236.480000
   1050   1051     1   0.15110 237065.440000
   1050   1054     1   0.15110 237065.440000
   1050   1057     1   0.15110 237065.440000
   1051   1063     1   0.15375 251793.120000
   1054   1066     1   0.15375 251793.120000
   1057   1060     1   0.15375 251793.120000
   1060   1069     1   0.15375 251793.120000
   1063   1075     1   0.15375 251793.120000
   1066   1072     1   0.15375 251793.120000
   1069   1078     1   0.14316 258236.480000
   1072   2188     1   0.14316 258236.480000
   1075   2218     1   0.14316 258236.480000
   1080   1081     1   0.15110 237065.440000
   1080   1084     1   0.15110 237065.440000
   1080   1087     1   0.15110 237065.440000
   1081   1093     1   0.15375 251793.120000
   1084   1096     1   0.15375 251793.120000
   1087   1090     1   0.15375 251793.120000
   1090   1099     1   0.15375 251793.120000
   1093   1105     1   0.15375 251793.120000
   1096   1102     1   0.15375 251793.120000
   1099   1108     1   0.14316 258236.480000
   1102   2248     1   0.14316 258236.480000
   1105   2278     1   0.14316 258236.480000
   1110   1111     1   0.15110 237065.440000
   1110   1114     1   0.15110 237065.440000
   1110   1117     1   0.15110 237065.440000
   1111   1123     1   0.15375 251793.120000
   1114   1126     1   0.15375 251793.120000
   1117   1120     1   0.15375 251793.120000
   1120   1129     1   0.15375 251793.120000
   1123   1135     1   0.15375 251793.120000
   1126   1132     1   0.15375 251793.120000
   1129   1138     1   0.14316 258236.480000
   1132   2308     1   0.14316 258236.480000
   1135   2338     1   0.14316 258236.480000
   1140   1141     1   0.15110 237065.440000
   1140   1144     1   0.15110 237065.440000
   1140   1147     1   0.15110 237065.440000
   1141   1153     1   0.15375 251793.120000
   1144   1156     1   0.15375 251793.120000
   1147   1150     1   0.15375 251793.120000
   1150   1159     1   0.15375 251793.120000
   1153   1165     1   0.15375 251793.120000
   1156   1162     1   0.15375 251793.120000
   1159   1168     1   0.14316 258236.480000
   1162   2368     1   0.14316 258236.480000
   1165   2398     1   0.14316 258236.480000
   1170   1171     1   0.15110 237065.440000
   1170   1174     1   0.15110 237065.440000
   1170   1177     1   0.15110 237065.440000
   1171   1183     1   0.15375 251793.120000
   1174   1186     1   0.15375 251793.120000
   1177   1180     1   0.15375 251793.120000
   1180   1189     1   0.15375 251793.120000
   1183   1195     1   0.15375 251793.120000
   1186   1192     1   0.15375 251793.120000
   1189   1198     1   0.14316 258236.480000
   1192   2428     1   0.14316 258236.480000
   1195   2458     1   0.14316 258236.480000
   1200   1201     1   0.15110 237065.440000
   1200   1204     1   0.15110 237065.440000
   1200   1207     1   0.15110 237065.440000
   1201   1213     1   0.15375 251793.120000
   1204   1216     1   0.15375 251793.120000
   1207   1210     1   0.15375 251793.120000
   1210   1219     1   0.15375 251793.120000
   1213   1225     1   0.15375 251793.120000
   1216   1222     1   0.15375 251793.120000
   1219   1228     1   0.14316 258236.480000
   1222   2488     1   0.14316 258236.480000
   1225   2518     1   0.14316 258236.480000
   1230   1231     1   0.15110 237065.440000
   1230   1234     1   0.15110 237065.440000
   1230   1237     1   0.15110 237065.440000
   1231   1243     1   0.15375 251793.120000
   1234   1246     1   0.15375 251793.120000
   1237   1240     1   0.15375 251793.120000
   1240   1249     1   0.15375 251793.120000
   1243   1255     1   0.15375 251793.120000
   1246   1252     1   0.15375 251793.120000
   1249   1258     1   0.14316 258236.480000
   1252   2548     1   0.14316 258236.480000
   1255   2578     1   0.14316 258236.480000
   1260   1261     1   0.15110 237065.440000
   1260   1264     1   0.15110 237065.440000
   1260   1267     1   0.15110 237065.440000
   1261   1273     1   0.15375 251793.120000
   1264   1276     1   0.15375 251793.120000
   1267   1270     1   0.15375 251793.120000
   1270   1279     1   0.15375 251793.120000
   1273   1285     1   0.15375 251793.120000
   1276   1282     1   0.15375 251793.120000
   1279   1288     1   0.14316 258236.480000
   1282   2608     1   0.14316 258236.480000
   1285   2638     1   0.14316 258236.480000
   1290   1291     1   0.15110 237065.440000
   1290   1294     1   0.15110 237065.440000
   1290   1297     1   0.15110 237065.440000
   1291   1303     1   0.15375 251793.120000
   1294   1306     1   0.15375 251793.120000
   1297   1300     1   0.15375 251793.120000
   1300   1309     1   0.15375 251793.120000
   1303   1315     1   0.15375 251793.120000
   1306   1312     1   0.15375 251793.120000
   1309   1318     1   0.14316 258236.480000
   1312   2668     1   0.14316 258236.480000
   1315   2698     1   0.14316 258236.480000
   1320   1321     1   0.15110 237065.440000
   1320   1324     1   0.15110 237065.440000
   1320   1327     1   0.15110 237065.440000
   1321   1333     1   0.15375 251793.120000
   1324   1336     1   0.15375 251793.120000
   1327   1330     1   0.15375 251793.120000
   1330   1339     1   0.15375 251793.120000
   1333   1345     1   0.15375 251793.120000
   1336   1342     1   0.15375 251793.120000
   1339   1348     1   0.14316 258236.480000
   1342   2728     1   0.14316 258236.480000
   1345   2758     1   0.14316 258236.480000
   1350   1351     1   0.15110 237065.440000
   1350   1354     1   0.15110 237065.440000
   1350   1357     1   0.15110 237065.440000
   1351   1363     1   0.15375 251793.120000
   1354   1366     1   0.15375 251793.120000
   1357   1360     1   0.15375 251793.120000
   1360   1369     1   0.15375 251793.120000
   1363   1375     1   0.15375 251793.120000
   1366   1372     1   0.15375 251793.120000
   1369   1378     1   0.14316 258236.480000
   1372   2788     1   0.14316 258236.480000
   1375   2818     1   0.14316 258236.480000
   1380   1381     1   0.15110 237065.440000
   1380   1384     1   0.15110 237065.440000
   1380   1387     1   0.15110 237065.440000
   1381   1393     1   0.15375 251793.120000
   1384   1396     1   0.15375 251793.120000
   1387   1390     1   0.15375 251793.120000
   1390   1399     1   0.15375 251793.120000
   1393   1405     1   0.15375 251793.120000
   1396   1402     1   0.15375 251793.120000
   1399   1408     1   0.14316 258236.480000
   1402   2848     1   0.14316 258236.480000
   1405   2878     1   0.14316 258236.480000
   1410   1411     1   0.15110 237065.440000
   1410   1414     1   0.15110 237065.440000
   1410   1417     1   0.15110 237065.440000
   1411   1423     1   0.15375 251793.120000
   1414   1426     1   0.15375 251793.120000
   1417   1420     1   0.15375 251793.120000
   1420   1429     1   0.15375 251793.120000
   1423   1435     1   0.15375 251793.120000
   1426   1432     1   0.15375 251793.120000
   1429   1438     1   0.14316 258236.480000
   1432   2908     1   0.14316 258236.480000
   1435   2938     1   0.14316 258236.480000
   1440   1441     1   0.15110 237065.440000
   1440   1444     1   0.15110 237065.440000
   1440   1447     1   0.15110 237065.440000
   1441   1453     1   0.15375 251793.120000
   1444   1456     1   0.15375 251793.120000
   1447   1450     1   0.15375 251793.120000
   1450   1459     1   0.15375 251793.120000
   1453   1465     1   0.15375 251793.120000
   1456   1462     1   0.15375 251793.120000
   1459   1468     1   0.14316 258236.480000
   1462   2968     1   0.14316 258236.480000
   1465   2998     1   0.14316 258236.480000
   1470   1471     1   0.15110 237065.440000
   1470   1474     1   0.15110 237065.440000
   1470   1477     1   0.15110 237065.440000
   1471   1483     1   0.15375 251793.120000
   1474   1486     1   0.15375 251793.120000
   1477   1480     1   0.15375 251793.120000
   1480   1489     1   0.15375 251793.120000
   1483   1495     1   0.15375 251793.120000
   1486   1492     1   0.15375 251793.120000
   1489   1498     1   0.14316 258236.480000
   1492   3028     1   0.14316 258236.480000
   1495   3058     1   0.14316 258236.480000
   1500   1501     1   0.15110 237065.440000
   1500   1504     1   0.15110 237065.440000
   1500   1507     1   0.15110 237065.440000
   1501   1513     1   0.15375 251793.120000
   1504   1516     1   0.15375 251793.120000
   1507   1510     1   0.15375 251793.120000
   1510   1519     1   0.15375 251793.120000
   1513   1525     1   0.15375 251793.120000
   1516   1522     1   0.15375 251793.120000
   1519   1528     1   0.14316 258236.480000
   1522   3088     1   0.14316 258236.480000
   1525   3118     1   0.14316 258236.480000
   1530   1531     1   0.15110 237065.440000
   1530   1534     1   0.15110 237065.440000
   1530   1537     1   0.15110 237065.440000
   1531   1543     1   0.15375 251793.120000
   1534   1546     1   0.15375 251793.120000
   1537   1540     1   0.15375 251793.120000
   1540   1549     1   0.15375 251793.120000
   1543   1555     1   0.15375 251793.120000
   1546   1552     1   0.15375 251793.120000
   1549   1558     1   0.14316 258236.480000
   1552   3148     1   0.14316 258236.480000
   1555   3178     1   0.14316 258236.480000
   1560   1561     1   0.15110 237065.440000
   1560   1564     1   0.15110 237065.440000
   1560   1567     1   0.15110 237065.440000
   1561   1573     1   0.15375 251793.120000
   1564   1576     1   0.15375 251793.120000
   1567   1570     1   0.15375 251793.120000
   1570   1579     1   0.15375 251793.120000
   1573   1585     1   0.15375 251793.120000
   1576   1582     1   0.15375 251793.120000
   1579   1588     1   0.14316 258236.480000
   1582   3208     1   0.14316 258236.480000
   1585   3238     1   0.14316 258236.480000
   1590   1591     1   0.15110 237065.440000
   1590   1594     1   0.15110 237065.440000
   1590   1597     1   0.15110 237065.440000
   1591   1603     1   0.15375 251793.120000
   1594   1606     1   0.15375 251793.120000
   1597   1600     1   0.15375 251793.120000
   1600   1609     1   0.15375 251793.120000
   1603   1615     1   0.15375 251793.120000
   1606   1612     1   0.15375 251793.120000
   1609   1618     1   0.14316 258236.480000
   1612   3268     1   0.14316 258236.480000
   1615   3298     1   0.14316 258236.480000
   1620   1621     1   0.15110 237065.440000
   1620   1624     1   0.15110 237065.440000
   1620   1627     1   0.15110 237065.440000
   1621   1633     1   0.15375 251793.120000
   1624   1636     1   0.15375 251793.120000
   1627   1630     1   0.15375 251793.120000
   1630   1639     1   0.15375 251793.120000
   1633   1645     1   0.15375 251793.120000
   1636   1642     1   0.15375 251793.120000
   1639   1648     1   0.14316 258236.480000
   1642   3328     1   0.14316 258236.480000
   1645   3358     1   0.14316 258236.480000
   1650   1651     1   0.15110 237065.440000
   1650   1654     1   0.15110 237065.440000
   1650   1657     1   0.15110 237065.440000
   1651   1663     1   0.15375 251793.120000
   1654   1666     1   0.15375 251793.120000
   1657   1660     1   0.15375 251793.120000
   1660   1669     1   0.15375 251793.120000
   1663   1675     1   0.15375 251793.120000
   1666   1672     1   0.15375 251793.120000
   1669   1678     1   0.14316 258236.480000
   1672   3388     1   0.14316 258236.480000
   1675   3418     1   0.14316 258236.480000
   1680   1681     1   0.15110 237065.440000
   1680   1684     1   0.15110 237065.440000
   1680   1687     1   0.15110 237065.440000
   1681   1693     1   0.15375 251793.120000
   1684   1696     1   0.15375 251793.120000
   1687   1690     1   0.15375 251793.120000
   1690   1699     1   0.15375 251793.120000
   1693   1705     1   0.15375 251793.120000
   1696   1702     1   0.15375 251793.120000
   1699   1708     1   0.14316 258236.480000
   1702   3448     1   0.14316 258236.480000
   1705   3478     1   0.14316 258236.480000
   1710   1711     1   0.15110 237065.440000
   1710   1714     1   0.15110 237065.440000
   1710   1717     1   0.15110 237065.440000
   1711   1723     1   0.15375 251793.120000
   1714   1726     1   0.15375 251793.120000
   1717   1720     1   0.15375 251793.120000
   1720   1729     1   0.15375 251793.120000
   1723   1735     1   0.15375 251793.120000
   1726   1732     1   0.15375 251793.120000
   1729   1738     1   0.14316 258236.480000
   1732   3508     1   0.14316 258236.480000
   1735   3538     1   0.14316 258236.480000
   1740   1741     1   0.15110 237065.440000
   1740   1744     1   0.15110 237065.440000
   1740   1747     1   0.15110 237065.440000
   1741   1753     1   0.15375 251793.120000
   1744   1756     1   0.15375 251793.120000
   1747   1750     1   0.15375 251793.120000
   1750   1759     1   0.15375 251793.120000
   1753   1765     1   0.15375 251793.120000
   1756   1762     1   0.15375 251793.120000
   1759   1768     1   0.14316 258236.480000
   1762   3568     1   0.14316 258236.480000
   1765   3598     1   0.14316 258236.480000
   1770   1771     1   0.15110 237065.440000
   1770   1774     1   0.15110 237065.440000
   1770   1777     1   0.15110 237065.440000
   1771   1783     1   0.15375 251793.120000
   1774   1786     1   0.15375 251793.120000
   1777   1780     1   0.15375 251793.120000
   1780   1789     1   0.15375 251793.120000
   1783   1795     1   0.15375 251793.120000
   1786   1792     1   0.15375 251793.120000
   1789   1798     1   0.14316 258236.480000
   1792   3628     1   0.14316 258236.480000
   1795   3658     1   0.14316 258236.480000
   1800   1801     1   0.15110 237065.440000
   1800   1804     1   0.15110 237065.440000
   1800   1807     1   0.15110 237065.440000
   1801   1813     1   0.15375 251793.120000
   1804   1816     1   0.15375 251793.120000
   1807   1810     1   0.15375 251793.120000
   1810   1819     1   0.15375 251793.120000
   1813   1825     1   0.15375 251793.120000
   1816   1822     1   0.15375 251793.120000
   1819   1828     1   0.14316 258236.480000
   1822   3688     1   0.14316 258236.480000
   1825   3718     1   0.14316 258236.480000
   1830   1831     1   0.15110 237065.440000
   1830   1834     1   0.15110 237065.440000
   1830   1837     1   0.15110 237065.440000
   1831   1843     1   0.15375 251793.120000
   1834   1846     1   0.15375 251793.120000
   1837   1840     1   0.15375 251793.120000
   1840   1849     1   0.15375 251793.120000
   1843   1855     1   0.15375 251793.120000
   1846   1852     1   0.15375 251793.120000
   1849   1858     1   0.14316 258236.480000
   1852   3748     1   0.14316 258236.480000
   1855   3778     1   0.14316 258236.480000
   1860   1861     1   0.15110 237065.440000
   1860   1864     1   0.15110 237065.440000
   1860   1867     1   0.15110 237065.440000
   1861   1873     1   0.15375 251793.120000
   1864   1876     1   0.15375 251793.120000
   1867   1870     1   0.15375 251793.120000
   1870   1879     1   0.15375 251793.120000
   1873   1885     1   0.15375 251793.120000
   1876   1882     1   0.15375 251793.120000
   1879   1888     1   0.14316 258236.480000
   1882   3792     1   0.14316 258236.480000
   1885   3806     1   0.14316 258236.480000
   1890   1891     1   0.15110 237065.440000
   1890   1894     1   0.15110 237065.440000
   1890   1897     1   0.15110 237065.440000
   1891   1903     1   0.15375 251793.120000
   1894   1906     1   0.15375 251793.120000
   1897   1900     1   0.15375 251793.120000
   1900   1909     1   0.15375 251793.120000
   1903   1915     1   0.15375 251793.120000
   1906   1912     1   0.15375 251793.120000
   1909   1918     1   0.14316 258236.480000
   1912   3820     1   0.14316 258236.480000
   1915   3834     1   0.14316 258236.480000
   1920   1921     1   0.15110 237065.440000
   1920   1924     1   0.15110 237065.440000
   1920   1927     1   0.15110 237065.440000
   1921   1933     1   0.15375 251793.120000
   1924   1936     1   0.15375 251793.120000
   1927   1930     1   0.15375 251793.120000
   1930   1939     1   0.15375 251793.120000
   1933   1945     1   0.15375 251793.120000
   1936   1942     1   0.15375 251793.120000
   1939   1948     1   0.14316 258236.480000
   1942   3848     1   0.14316 258236.480000
   1945   3862     1   0.14316 258236.480000
   1950   1951     1   0.15110 237065.440000
   1950   1954     1   0.15110 237065.440000
   1950   1957     1   0.15110 237065.440000
   1951   1963     1   0.15375 251793.120000
   1954   1966     1   0.15375 251793.120000
   1957   1960     1   0.15375 251793.120000
   1960   1969     1   0.15375 251793.120000
   1963   1975     1   0.15375 251793.120000
   1966   1972     1   0.15375 251793.120000
   1969   1978     1   0.14316 258236.480000
   1972   3876     1   0.14316 258236.480000
   1975   3890     1   0.14316 258236.480000
   1980   1981     1   0.15110 237065.440000
   1980   1984     1   0.15110 237065.440000
   1980   1987     1   0.15110 237065.440000
   1981   1993     1   0.15375 251793.120000
   1984   1996     1   0.15375 251793.120000
   1987   1990     1   0.15375 251793.120000
   1990   1999     1   0.15375 251793.120000
   1993   2005     1   0.15375 251793.120000
   1996   2002     1   0.15375 251793.120000
   1999   2008     1   0.14316 258236.480000
   2002   3904     1   0.14316 258236.480000
   2005   3918     1   0.14316 258236.480000
   2010   2011     1   0.15110 237065.440000
   2010   2014     1   0.15110 237065.440000
   2010   2017     1   0.15110 237065.440000
   2011   2023     1   0.15375 251793.120000
   2014   2026     1   0.15375 251793.120000
   2017   2020     1   0.15375 251793.120000
   2020   2029     1   0.15375 251793.120000
   2023   2035     1   0.15375 251793.120000
   2026   2032     1   0.15375 251793.120000
   2029   2038     1   0.14316 258236.480000
   2032   3932     1   0.14316 258236.480000
   2035   3946     1   0.14316 258236.480000
   2040   2041     1   0.15110 237065.440000
   2040   2044     1   0.15110 237065.440000
   2040   2047     1   0.15110 237065.440000
   2041   2053     1   0.15375 251793.120000
   2044   2056     1   0.15375 251793.120000
   2047   2050     1   0.15375 251793.120000
   2050   2059     1   0.15375 251793.120000
   2053   2065     1   0.15375 251793.120000
   2056   2062     1   0.15375 251793.120000
   2059   2068     1   0.14316 258236.480000
   2062   3960     1   0.14316 258236.480000
   2065   3974     1   0.14316 258236.480000
   2070   2071     1   0.15110 237065.440000
   2070   2074     1   0.15110 237065.440000
   2070   2077     1   0.15110 237065.440000
   2071   2083     1   0.15375 251793.120000
   2074   2086     1   0.15375 251793.120000
   2077   2080     1   0.15375 251793.120000
   2080   2089     1   0.15375 251793.120000
   2083   2095     1   0.15375 251793.120000
   2086   2092     1   0.15375 251793.120000
   2089   2098     1   0.14316 258236.480000
   2092   3988     1   0.14316 258236.480000
   2095   4002     1   0.14316 258236.480000
   2100   2101     1   0.15110 237065.440000
   2100   2104     1   0.15110 237065.440000
   2100   2107     1   0.15110 237065.440000
   2101   2113     1   0.15375 251793.120000
   2104   2116     1   0.15375 251793.120000
   2107   2110     1   0.15375 251793.120000
   2110   2119     1   0.15375 251793.120000
   2113   2125     1   0.15375 251793.120000
   2116   2122     1   0.15375 251793.120000
   2119   2128     1   0.14316 258236.480000
   2122   4016     1   0.14316 258236.480000
   2125   4030     1   0.14316 258236.480000
   2130   2131     1   0.15110 237065.440000
   2130   2134     1   0.15110 237065.440000
   2130   2137     1   0.15110 237065.440000
   2131   2143     1   0.15375 251793.120000
   2134   2146     1   0.15375 251793.120000
   2137   2140     1   0.15375 251793.120000
   2140   2149     1   0.15375 251793.120000
   2143   2155     1   0.15375 251793.120000
   2146   2152     1   0.15375 251793.120000
   2149   2158     1   0.14316 258236.480000
   2152   4044     1   0.14316 258236.480000
   2155   4058     1   0.14316 258236.480000
   2160   2161     1   0.15110 237065.440000
   2160   2164     1   0.15110 237065.440000
   2160   2167     1   0.15110 237065.440000
   2161   2173     1   0.15375 251793.120000
   2164   2176     1   0.15375 251793.120000
   2167   2170     1   0.15375 251793.120000
   2170   2179     1   0.15375 251793.120000
   2173   2185     1   0.15375 251793.120000
   2176   2182     1   0.15375 251793.120000
   2179   2188     1   0.14316 258236.480000
   2182   4072     1   0.14316 258236.480000
   2185   4086     1   0.14316 258236.480000
   2190   2191     1   0.15110 237065.440000
   2190   2194     1   0.15110 237065.440000
   2190   2197     1   0.15110 237065.440000
   2191   2203     1   0.15375 251793.120000
   2194   2206     1   0.15375 251793.120000
   2197   2200     1   0.15375 251793.120000
   2200   2209     1   0.15375 251793.120000
   2203   2215     1   0.15375 251793.120000
   2206   2212     1   0.15375 251793.120000
   2209   2218     1   0.14316 258236.480000
   2212   4100     1   0.14316 258236.480000
   2215   4114     1   0.14316 258236.480000
   2220   2221     1   0.15110 237065.440000
   2220   2224     1   0.15110 237065.440000
   2220   2227     1   0.15110 237065.440000
   2221   2233     1   0.15375 251793.120000
   2224   2236     1   0.15375 251793.120000
   2227   2230     1   0.15375 251793.120000
   2230   2239     1   0.15375 251793.120000
   2233   2245     1   0.15375 251793.120000
   2236   2242     1   0.15375 251793.120000
   2239   2248     1   0.14316 258236.480000
   2242   4128     1   0.14316 258236.480000
   2245   4142     1   0.14316 258236.480000
   2250   2251     1   0.15110 237065.440000
   2250   2254     1   0.15110 237065.440000
   2250   2257     1   0.15110 237065.440000
   2251   2263     1   0.15375 251793.120000
   2254   2266     1   0.15375 251793.120000
   2257   2260     1   0.15375 251793.120000
   2260   2269     1   0.15375 251793.120000
   2263   2275     1   0.15375 251793.120000
   2266   2272     1   0.15375 251793.120000
   2269   2278     1   0.14316 258236.480000
   2272   4156     1   0.14316 258236.480000
   2275   4170     1   0.14316 258236.480000
   2280   2281     1   0.15110 237065.440000
   2280   2284     1   0.15110 237065.440000
   2280   2287     1   0.15110 237065.440000
   2281   2293     1   0.15375 251793.120000
   2284   2296     1   0.15375 251793.120000
   2287   2290     1   0.15375 251793.120000
   2290   2299     1   0.15375 251793.120000
   2293   2305     1   0.15375 251793.120000
   2296   2302     1   0.15375 251793.120000
   2299   2308     1   0.14316 258236.480000
   2302   4184     1   0.14316 258236.480000
   2305   4198     1   0.14316 258236.480000
   2310   2311     1   0.15110 237065.440000
   2310   2314     1   0.15110 237065.440000
   2310   2317     1   0.15110 237065.440000
   2311   2323     1   0.15375 251793.120000
   2314   2326     1   0.15375 251793.120000
   2317   2320     1   0.15375 251793.120000
   2320   2329     1   0.15375 251793.120000
   2323   2335     1   0.15375 251793.120000
   2326   2332     1   0.15375 251793.120000
   2329   2338     1   0.14316 258236.480000
   2332   4212     1   0.14316 258236.480000
   2335   4226     1   0.14316 258236.480000
   2340   2341     1   0.15110 237065.440000
   2340   2344     1   0.15110 237065.440000
   2340   2347     1   0.15110 237065.440000
   2341   2353     1   0.15375 251793.120000
   2344   2356     1   0.15375 251793.120000
   2347   2350     1   0.15375 251793.120000
   2350   2359     1   0.15375 251793.120000
   2353   2365     1   0.15375 251793.120000
   2356   2362     1   0.15375 251793.120000
   2359   2368     1   0.14316 258236.480000
   2362   4240     1   0.14316 258236.480000
   2365   4254     1   0.14316 258236.480000
   2370   2371     1   0.15110 237065.440000
   2370   2374     1   0.15110 237065.440000
   2370   2377     1   0.15110 237065.440000
   2371   2383     1   0.15375 251793.120000
   2374   2386     1   0.15375 251793.120000
   2377   2380     1   0.15375 251793.120000
   2380   2389     1   0.15375 251793.120000
   2383   2395     1   0.15375 251793.120000
   2386   2392     1   0.15375 251793.120000
   2389   2398     1   0.14316 258236.480000
   2392   4268     1   0.14316 258236.480000
   2395   4282     1   0.14316 258236.480000
   2400   2401     1   0.15110 237065.440000
   2400   2404     1   0.15110 237065.440000
   2400   2407     1   0.15110 237065.440000
   2401   2413     1   0.15375 251793.120000
   2404   2416     1   0.15375 251793.120000
   2407   2410     1   0.15375 251793.120000
   2410   2419     1   0.15375 251793.120000
   2413   2425     1   0.15375 251793.120000
   2416   2422     1   0.15375 251793.120000
   2419   2428     1   0.14316 258236.480000
   2422   4296     1   0.14316 258236.480000
   2425   4310     1   0.14316 258236.480000
   2430   2431     1   0.15110 237065.440000
   2430   2434     1   0.15110 237065.440000
   2430   2437     1   0.15110 237065.440000
   2431   2443     1   0.15375 251793.120000
   2434   2446     1   0.15375 251793.120000
   2437   2440     1   0.15375 251793.120000
   2440   2449     1   0.15375 251793.120000
   2443   2455     1   0.15375 251793.120000
   2446   2452     1   0.15375 251793.120000
   2449   2458     1   0.14316 258236.480000
   2452   4324     1   0.14316 258236.480000
   2455   4338     1   0.14316 258236.480000
   2460   2461     1   0.15110 237065.440000
   2460   2464     1   0.15110 237065.440000
   2460   2467     1   0.15110 237065.440000
   2461   2473     1   0.15375 251793.120000
   2464   2476     1   0.15375 251793.120000
   2467   2470     1   0.15375 251793.120000
   2470   2479     1   0.15375 251793.120000
   2473   2485     1   0.15375 251793.120000
   2476   2482     1   0.15375 251793.120000
   2479   2488     1   0.14316 258236.480000
   2482   4352     1   0.14316 258236.480000
   2485   4366     1   0.14316 258236.480000
   2490   2491     1   0.15110 237065.440000
   2490   2494     1   0.15110 237065.440000
   2490   2497     1   0.15110 237065.440000
   2491   2503     1   0.15375 251793.120000
   2494   2506     1   0.15375 251793.120000
   2497   2500     1   0.15375 251793.120000
   2500   2509     1   0.15375 251793.120000
   2503   2515     1   0.15375 251793.120000
   2506   2512     1   0.15375 251793.120000
   2509   2518     1   0.14316 258236.480000
   2512   4380     1   0.14316 258236.480000
   2515   4394     1   0.14316 258236.480000
   2520   2521     1   0.15110 237065.440000
   2520   2524     1   0.15110 237065.440000
   2520   2527     1   0.15110 237065.440000
   2521   2533     1   0.15375 251793.120000
   2524   2536     1   0.15375 251793.120000
   2527   2530     1   0.15375 251793.120000
   2530   2539     1   0.15375 251793.120000
   2533   2545     1   0.15375 251793.120000
   2536   2542     1   0.15375 251793.120000
   2539   2548     1   0.14316 258236.480000
   2542   4408     1   0.14316 258236.480000
   2545   4422     1   0.14316 258236.480000
   2550   2551     1   0.15110 237065.440000
   2550   2554     1   0.15110 237065.440000
   2550   2557     1   0.15110 237065.440000
   2551   2563     1   0.15375 251793.120000
   2554   2566     1   0.15375 251793.120000
   2557   2560     1   0.15375 251793.120000
   2560   2569     1   0.15375 251793.120000
   2563   2575     1   0.15375 251793.120000
   2566   2572     1   0.15375 251793.120000
   2569   2578     1   0.14316 258236.480000
   2572   4436     1   0.14316 258236.480000
   2575   4450     1   0.14316 258236.480000
   2580   2581     1   0.15110 237065.440000
   2580   2584     1   0.15110 237065.440000
   2580   2587     1   0.15110 237065.440000
   2581   2593     1   0.15375 251793.120000
   2584   2596     1   0.15375 251793.120000
   2587   2590     1   0.15375 251793.120000
   2590   2599     1   0.15375 251793.120000
   2593   2605     1   0.15375 251793.120000
   2596   2602     1   0.15375 251793.120000
   2599   2608     1   0.14316 258236.480000
   2602   4464     1   0.14316 258236.480000
   2605   4478     1   0.14316 258236.480000
   2610   2611     1   0.15110 237065.440000
   2610   2614     1   0.15110 237065.440000
   2610   2617     1   0.15110 237065.440000
   2611   2623     1   0.15375 251793.120000
   2614   2626     1   0.15375 251793.120000
   2617   2620     1   0.15375 251793.120000
   2620   2629     1   0.15375 251793.120000
   2623   2635     1   0.15375 251793.120000
   2626   2632     1   0.15375 251793.120000
   2629   2638     1   0.14316 258236.480000
   2632   4492     1   0.14316 258236.480000
   2635   4506     1   0.14316 258236.480000
   2640   2641     1   0.15110 237065.440000
   2640   2644     1   0.15110 237065.440000
   2640   2647     1   0.15110 237065.440000
   2641   2653     1   0.15375 251793.120000
   2644   2656     1   0.15375 251793.120000
   2647   2650     1   0.15375 251793.120000
   2650   2659     1   0.15375 251793.120000
   2653   2665     1   0.15375 251793.120000
   2656   2662     1   0.15375 251793.120000
   2659   2668     1   0.14316 258236.480000
   2662   4520     1   0.14316 258236.480000
   2665   4534     1   0.14316 258236.480000
   2670   2671     1   0.15110 237065.440000
   2670   2674     1   0.15110 237065.440000
   2670   2677     1   0.15110 237065.440000
   2671   2683     1   0.15375 251793.120000
   2674   2686     1   0.15375 251793.120000
   2677   2680     1   0.15375 251793.120000
   2680   2689     1   0.15375 251793.120000
   2683   2695     1   0.15375 251793.120000
   2686   2692     1   0.15375 251793.120000
   2689   2698     1   0.14316 258236.480000
   2692   4548     1   0.14316 258236.480000
   2695   4562     1   0.14316 258236.480000
   2700   2701     1   0.15110 237065.440000
   2700   2704     1   0.15110 237065.440000
   2700   2707     1   0.15110 237065.440000
   2701   2713     1   0.15375 251793.120000
   2704   2716     1   0.15375 251793.120000
   2707   2710     1   0.15375 251793.120000
   2710   2719     1   0.15375 251793.120000
   2713   2725     1   0.15375 251793.120000
   2716   2722     1   0.15375 251793.120000
   2719   2728     1   0.14316 258236.480000
   2722   4576     1   0.14316 258236.480000
   2725   4590     1   0.14316 258236.480000
   2730   2731     1   0.15110 237065.440000
   2730   2734     1   0.15110 237065.440000
   2730   2737     1   0.15110 237065.440000
   2731   2743     1   0.15375 251793.120000
   2734   2746     1   0.15375 251793.120000
   2737   2740     1   0.15375 251793.120000
   2740   2749     1   0.15375 251793.120000
   2743   2755     1   0.15375 251793.120000
   2746   2752     1   0.15375 251793.120000
   2749   2758     1   0.14316 258236.480000
   2752   4604     1   0.14316 258236.480000
   2755   4618     1   0.14316 258236.480000
   2760   2761     1   0.15110 237065.440000
   2760   2764     1   0.15110 237065.440000
   2760   2767     1   0.15110 237065.440000
   2761   2773     1   0.15375 251793.120000
   2764   2776     1   0.15375 251793.120000
   2767   2770     1   0.15375 251793.120000
   2770   2779     1   0.15375 251793.120000
   2773   2785     1   0.15375 251793.120000
   2776   2782     1   0.15375 251793.120000
   2779   2788     1   0.14316 258236.480000
   2782   4632     1   0.14316 258236.480000
   2785   4646     1   0.14316 258236.480000
   2790   2791     1   0.15110 237065.440000
   2790   2794     1   0.15110 237065.440000
   2790   2797     1   0.15110 237065.440000
   2791   2803     1   0.15375 251793.120000
   2794   2806     1   0.15375 251793.120000
   2797   2800     1   0.15375 251793.120000
   2800   2809     1   0.15375 251793.120000
   2803   2815     1   0.15375 251793.120000
   2806   2812     1   0.15375 251793.120000
   2809   2818     1   0.14316 258236.480000
   2812   4660     1   0.14316 258236.480000
   2815   4674     1   0.14316 258236.480000
   2820   2821     1   0.15110 237065.440000
   2820   2824     1   0.15110 237065.440000
   2820   2827     1   0.15110 237065.440000
   2821   2833     1   0.15375 251793.120000
   2824   2836     1   0.15375 251793.120000
   2827   2830     1   0.15375 251793.120000
   2830   2839     1   0.15375 251793.120000
   2833   2845     1   0.15375 251793.120000
   2836   2842     1   0.15375 251793.120000
   2839   2848     1   0.14316 258236.480000
   2842   4688     1   0.14316 258236.480000
   2845   4702     1   0.14316 258236.480000
   2850   2851     1   0.15110 237065.440000
   2850   2854     1   0.15110 237065.440000
   2850   2857     1   0.15110 237065.440000
   2851   2863     1   0.15375 251793.120000
   2854   2866     1   0.15375 251793.120000
   2857   2860     1   0.15375 251793.120000
   2860   2869     1   0.15375 251793.120000
   2863   2875     1   0.15375 251793.120000
   2866   2872     1   0.15375 251793.120000
   2869   2878     1   0.14316 258236.480000
   2872   4716     1   0.14316 258236.480000
   2875   4730     1   0.14316 258236.480000
   2880   2881     1   0.15110 237065.440000
   2880   2884     1   0.15110 237065.440000
   2880   2887     1   0.15110 237065.440000
   2881   2893     1   0.15375 251793.120000
   2884   2896     1   0.15375 251793.120000
   2887   2890     1   0.15375 251793.120000
   2890   2899     1   0.15375 251793.120000
   2893   2905     1   0.15375 251793.120000
   2896   2902     1   0.15375 251793.120000
   2899   2908     1   0.14316 258236.480000
   2902   4744     1   0.14316 258236.480000
   2905   4758     1   0.14316 258236.480000
   2910   2911     1   0.15110 237065.440000
   2910   2914     1   0.15110 237065.440000
   2910   2917     1   0.15110 237065.440000
   2911   2923     1   0.15375 251793.120000
   2914   2926     1   0.15375 251793.120000
   2917   2920     1   0.15375 251793.120000
   2920   2929     1   0.15375 251793.120000
   2923   2935     1   0.15375 251793.120000
   2926   2932     1   0.15375 251793.120000
   2929   2938     1   0.14316 258236.480000
   2932   4772     1   0.14316 258236.480000
   2935   4786     1   0.14316 258236.480000
   2940   2941     1   0.15110 237065.440000
   2940   2944     1   0.15110 237065.440000
   2940   2947     1   0.15110 237065.440000
   2941   2953     1   0.15375 251793.120000
   2944   2956     1   0.15375 251793.120000
   2947   2950     1   0.15375 251793.120000
   2950   2959     1   0.15375 251793.120000
   2953   2965     1   0.15375 251793.120000
   2956   2962     1   0.15375 251793.120000
   2959   2968     1   0.14316 258236.480000
   2962   4800     1   0.14316 258236.480000
   2965   4814     1   0.14316 258236.480000
   2970   2971     1   0.15110 237065.440000
   2970   2974     1   0.15110 237065.440000
   2970   2977     1   0.15110 237065.440000
   2971   2983     1   0.15375 251793.120000
   2974   2986     1   0.15375 251793.120000
   2977   2980     1   0.15375 251793.120000
   2980   2989     1   0.15375 251793.120000
   2983   2995     1   0.15375 251793.120000
   2986   2992     1   0.15375 251793.120000
   2989   2998     1   0.14316 258236.480000
   2992   4828     1   0.14316 258236.480000
   2995   4842     1   0.14316 258236.480000
   3000   3001     1   0.15110 237065.440000
   3000   3004     1   0.15110 237065.440000
   3000   3007     1   0.15110 237065.440000
   3001   3013     1   0.15375 251793.120000
   3004   3016     1   0.15375 251793.120000
   3007   3010     1   0.15375 251793.120000
   3010   3019     1   0.15375 251793.120000
   3013   3025     1   0.15375 251793.120000
   3016   3022     1   0.15375 251793.120000
   3019   3028     1   0.14316 258236.480000
   3022   4856     1   0.14316 258236.480000
   3025   4870     1   0.14316 258236.480000
   3030   3031     1   0.15110 237065.440000
   3030   3034     1   0.15110 237065.440000
   3030   3037     1   0.15110 237065.440000
   3031   3043     1   0.15375 251793.120000
   3034   3046     1   0.15375 251793.120000
   3037   3040     1   0.15375 251793.120000
   3040   3049     1   0.15375 251793.120000
   3043   3055     1   0.15375 251793.120000
   3046   3052     1   0.15375 251793.120000
   3049   3058     1   0.14316 258236.480000
   3052   4884     1   0.14316 258236.480000
   3055   4898     1   0.14316 258236.480000
   3060   3061     1   0.15110 237065.440000
   3060   3064     1   0.15110 237065.440000
   3060   3067     1   0.15110 237065.440000
   3061   3073     1   0.15375 251793.120000
   3064   3076     1   0.15375 251793.120000
   3067   3070     1   0.15375 251793.120000
   3070   3079     1   0.15375 251793.120000
   3073   3085     1   0.15375 251793.120000
   3076   3082     1   0.15375 251793.120000
   3079   3088     1   0.14316 258236.480000
   3082   4912     1   0.14316 258236.480000
   3085   4926     1   0.14316 258236.480000
   3090   3091     1   0.15110 237065.440000
   3090   3094     1   0.15110 237065.440000
   3090   3097     1   0.15110 237065.440000
   3091   3103     1   0.15375 251793.120000
   3094   3106     1   0.15375 251793.120000
   3097   3100     1   0.15375 251793.120000
   3100   3109     1   0.15375 251793.120000
   3103   3115     1   0.15375 251793.120000
   3106   3112     1   0.15375 251793.120000
   3109   3118     1   0.14316 258236.480000
   3112   4940     1   0.14316 258236.480000
   3115   4954     1   0.14316 258236.480000
   3120   3121     1   0.15110 237065.440000
   3120   3124     1   0.15110 237065.440000
   3120   3127     1   0.15110 237065.440000
   3121   3133     1   0.15375 251793.120000
   3124   3136     1   0.15375 251793.120000
   3127   3130     1   0.15375 251793.120000
   3130   3139     1   0.15375 251793.120000
   3133   3145     1   0.15375 251793.120000
   3136   3142     1   0.15375 251793.120000
   3139   3148     1   0.14316 258236.480000
   3142   4968     1   0.14316 258236.480000
   3145   4982     1   0.14316 258236.480000
   3150   3151     1   0.15110 237065.440000
   3150   3154     1   0.15110 237065.440000
   3150   3157     1   0.15110 237065.440000
   3151   3163     1   0.15375 251793.120000
   3154   3166     1   0.15375 251793.120000
   3157   3160     1   0.15375 251793.120000
   3160   3169     1   0.15375 251793.120000
   3163   3175     1   0.15375 251793.120000
   3166   3172     1   0.15375 251793.120000
   3169   3178     1   0.14316 258236.480000
   3172   4996     1   0.14316 258236.480000
   3175   5010     1   0.14316 258236.480000
   3180   3181     1   0.15110 237065.440000
   3180   3184     1   0.15110 237065.440000
   3180   3187     1   0.15110 237065.440000
   3181   3193     1   0.15375 251793.120000
   3184   3196     1   0.15375 251793.120000
   3187   3190     1   0.15375 251793.120000
   3190   3199     1   0.15375 251793.120000
   3193   3205     1   0.15375 251793.120000
   3196   3202     1   0.15375 251793.120000
   3199   3208     1   0.14316 258236.480000
   3202   5024     1   0.14316 258236.480000
   3205   5038     1   0.14316 258236.480000
   3210   3211     1   0.15110 237065.440000
   3210   3214     1   0.15110 237065.440000
   3210   3217     1   0.15110 237065.440000
   3211   3223     1   0.15375 251793.120000
   3214   3226     1   0.15375 251793.120000
   3217   3220     1   0.15375 251793.120000
   3220   3229     1   0.15375 251793.120000
   3223   3235     1   0.15375 251793.120000
   3226   3232     1   0.15375 251793.120000
   3229   3238     1   0.14316 258236.480000
   3232   5052     1   0.14316 258236.480000
   3235   5066     1   0.14316 258236.480000
   3240   3241     1   0.15110 237065.440000
   3240   3244     1   0.15110 237065.440000
   3240   3247     1   0.15110 237065.440000
   3241   3253     1   0.15375 251793.120000
   3244   3256     1   0.15375 251793.120000
   3247   3250     1   0.15375 251793.120000
   3250   3259     1   0.15375 251793.120000
   3253   3265     1   0.15375 251793.120000
   3256   3262     1   0.15375 251793.120000
   3259   3268     1   0.14316 258236.480000
   3262   5080     1   0.14316 258236.480000
   3265   5094     1   0.14316 258236.480000
   3270   3271     1   0.15110 237065.440000
   3270   3274     1   0.15110 237065.440000
   3270   3277     1   0.15110 237065.440000
   3271   3283     1   0.15375 251793.120000
   3274   3286     1   0.15375 251793.120000
   3277   3280     1   0.15375 251793.120000
   3280   3289     1   0.15375 251793.120000
   3283   3295     1   0.15375 251793.120000
   3286   3292     1   0.15375 251793.120000
   3289   3298     1   0.14316 258236.480000
   3292   5108     1   0.14316 258236.480000
   3295   5122     1   0.14316 258236.480000
   3300   3301     1   0.15110 237065.440000
   3300   3304     1   0.15110 237065.440000
   3300   3307     1   0.15110 237065.440000
   3301   3313     1   0.15375 251793.120000
   3304   3316     1   0.15375 251793.120000
   3307   3310     1   0.15375 251793.120000
   3310   3319     1   0.15375 251793.120000
   3313   3325     1   0.15375 251793.120000
   3316   3322     1   0.15375 251793.120000
   3319   3328     1   0.14316 258236.480000
   3322   5136     1   0.14316 258236.480000
   3325   5150     1   0.14316 258236.480000
   3330   3331     1   0.15110 237065.440000
   3330   3334     1   0.15110 237065.440000
   3330   3337     1   0.15110 237065.440000
   3331   3343     1   0.15375 251793.120000
   3334   3346     1   0.15375 251793.120000
   3337   3340     1   0.15375 251793.120000
   3340   3349     1   0.15375 251793.120000
   3343   3355     1   0.15375 251793.120000
   3346   3352     1   0.15375 251793.120000
   3349   3358     1   0.14316 258236.480000
   3352   5164     1   0.14316 258236.480000
   3355   5178     1   0.14316 258236.480000
   3360   3361     1   0.15110 237065.440000
   3360   3364     1   0.15110 237065.440000
   3360   3367     1   0.15110 237065.440000
   3361   3373     1   0.15375 251793.120000
   3364   3376     1   0.15375 251793.120000
   3367   3370     1   0.15375 251793.120000
   3370   3379     1   0.15375 251793.120000
   3373   3385     1   0.15375 251793.120000
   3376   3382     1   0.15375 251793.120000
   3379   3388     1   0.14316 258236.480000
   3382   5192     1   0.14316 258236.480000
   3385   5206     1   0.14316 258236.480000
   3390   3391     1   0.15110 237065.440000
   3390   3394     1   0.15110 237065.440000
   3390   3397     1   0.15110 237065.440000
   3391   3403     1   0.15375 251793.120000
   3394   3406     1   0.15375 251793.120000
   3397   3400     1   0.15375 251793.120000
   3400   3409     1   0.15375 251793.120000
   3403   3415     1   0.15375 251793.120000
   3406   3412     1   0.15375 251793.120000
   3409   3418     1   0.14316 258236.480000
   3412   5220     1   0.14316 258236.480000
   3415   5234     1   0.14316 258236.480000
   3420   3421     1   0.15110 237065.440000
   3420   3424     1   0.15110 237065.440000
   3420   3427     1   0.15110 237065.440000
   3421   3433     1   0.15375 251793.120000
   3424   3436     1   0.15375 251793.120000
   3427   3430     1   0.15375 251793.120000
   3430   3439     1   0.15375 251793.120000
   3433   3445     1   0.15375 251793.120000
   3436   3442     1   0.15375 251793.120000
   3439   3448     1   0.14316 258236.480000
   3442   5248     1   0.14316 258236.480000
   3445   5262     1   0.14316 258236.480000
   3450   3451     1   0.15110 237065.440000
   3450   3454     1   0.15110 237065.440000
   3450   3457     1   0.15110 237065.440000
   3451   3463     1   0.15375 251793.120000
   3454   3466     1   0.15375 251793.120000
   3457   3460     1   0.15375 251793.120000
   3460   3469     1   0.15375 251793.120000
   3463   3475     1   0.15375 251793.120000
   3466   3472     1   0.15375 251793.120000
   3469   3478     1   0.14316 258236.480000
   3472   5276     1   0.14316 258236.480000
   3475   5290     1   0.14316 258236.480000
   3480   3481     1   0.15110 237065.440000
   3480   3484     1   0.15110 237065.440000
   3480   3487     1   0.15110 237065.440000
   3481   3493     1   0.15375 251793.120000
   3484   3496     1   0.15375 251793.120000
   3487   3490     1   0.15375 251793.120000
   3490   3499     1   0.15375 251793.120000
   3493   3505     1   0.15375 251793.120000
   3496   3502     1   0.15375 251793.120000
   3499   3508     1   0.14316 258236.480000
   3502   5304     1   0.14316 258236.480000
   3505   5318     1   0.14316 258236.480000
   3510   3511     1   0.15110 237065.440000
   3510   3514     1   0.15110 237065.440000
   3510   3517     1   0.15110 237065.440000
   3511   3523     1   0.15375 251793.120000
   3514   3526     1   0.15375 251793.120000
   3517   3520     1   0.15375 251793.120000
   3520   3529     1   0.15375 251793.120000
   3523   3535     1   0.15375 251793.120000
   3526   3532     1   0.15375 251793.120000
   3529   3538     1   0.14316 258236.480000
   3532   5332     1   0.14316 258236.480000
   3535   5346     1   0.14316 258236.480000
   3540   3541     1   0.15110 237065.440000
   3540   3544     1   0.15110 237065.440000
   3540   3547     1   0.15110 237065.440000
   3541   3553     1   0.15375 251793.120000
   3544   3556     1   0.15375 251793.120000
   3547   3550     1   0.15375 251793.120000
   3550   3559     1   0.15375 251793.120000
   3553   3565     1   0.15375 251793.120000
   3556   3562     1   0.15375 251793.120000
   3559   3568     1   0.14316 258236.480000
   3562   5360     1   0.14316 258236.480000
   3565   5374     1   0.14316 258236.480000
   3570   3571     1   0.15110 237065.440000
   3570   3574     1   0.15110 237065.440000
   3570   3577     1   0.15110 237065.440000
   3571   3583     1   0.15375 251793.120000
   3574   3586     1   0.15375 251793.120000
   3577   3580     1   0.15375 251793.120000
   3580   3589     1   0.15375 251793.120000
   3583   3595     1   0.15375 251793.120000
   3586   3592     1   0.15375 251793.120000
   3589   3598     1   0.14316 258236.480000
   3592   5388     1   0.14316 258236.480000
   3595   5402     1   0.14316 258236.480000
   3600   3601     1   0.15110 237065.440000
   3600   3604     1   0.15110 237065.440000
   3600   3607     1   0.15110 237065.440000
   3601   3613     1   0.15375 251793.120000
   3604   3616     1   0.15375 251793.120000
   3607   3610     1   0.15375 251793.120000
   3610   3619     1   0.15375 251793.120000
   3613   3625     1   0.15375 251793.120000
   3616   3622     1   0.15375 251793.120000
   3619   3628     1   0.14316 258236.480000
   3622   5416     1   0.14316 258236.480000
   3625   5430     1   0.14316 258236.480000
   3630   3631     1   0.15110 237065.440000
   3630   3634     1   0.15110 237065.440000
   3630   3637     1   0.15110 237065.440000
   3631   3643     1   0.15375 251793.120000
   3634   3646     1   0.15375 251793.120000
   3637   3640     1   0.15375 251793.120000
   3640   3649     1   0.15375 251793.120000
   3643   3655     1   0.15375 251793.120000
   3646   3652     1   0.15375 251793.120000
   3649   3658     1   0.14316 258236.480000
   3652   5444     1   0.14316 258236.480000
   3655   5458     1   0.14316 258236.480000
   3660   3661     1   0.15110 237065.440000
   3660   3664     1   0.15110 237065.440000
   3660   3667     1   0.15110 237065.440000
   3661   3673     1   0.15375 251793.120000
   3664   3676     1   0.15375 251793.120000
   3667   3670     1   0.15375 251793.120000
   3670   3679     1   0.15375 251793.120000
   3673   3685     1   0.15375 251793.120000
   3676   3682     1   0.15375 251793.120000
   3679   3688     1   0.14316 258236.480000
   3682   5472     1   0.14316 258236.480000
   3685   5486     1   0.14316 258236.480000
   3690   3691     1   0.15110 237065.440000
   3690   3694     1   0.15110 237065.440000
   3690   3697     1   0.15110 237065.440000
   3691   3703     1   0.15375 251793.120000
   3694   3706     1   0.15375 251793.120000
   3697   3700     1   0.15375 251793.120000
   3700   3709     1   0.15375 251793.120000
   3703   3715     1   0.15375 251793.120000
   3706   3712     1   0.15375 251793.120000
   3709   3718     1   0.14316 258236.480000
   3712   5500     1   0.14316 258236.480000
   3715   5514     1   0.14316 258236.480000
   3720   3721     1   0.15110 237065.440000
   3720   3724     1   0.15110 237065.440000
   3720   3727     1   0.15110 237065.440000
   3721   3733     1   0.15375 251793.120000
   3724   3736     1   0.15375 251793.120000
   3727   3730     1   0.15375 251793.120000
   3730   3739     1   0.15375 251793.120000
   3733   3745     1   0.15375 251793.120000
   3736   3742     1   0.15375 251793.120000
   3739   3748     1   0.14316 258236.480000
   3742   5528     1   0.14316 258236.480000
   3745   5542     1   0.14316 258236.480000
   3750   3751     1   0.15110 237065.440000
   3750   3754     1   0.15110 237065.440000
   3750   3757     1   0.15110 237065.440000
   3751   3763     1   0.15375 251793.120000
   3754   3766     1   0.15375 251793.120000
   3757   3760     1   0.15375 251793.120000
   3760   3769     1   0.15375 251793.120000
   3763   3775     1   0.15375 251793.120000
   3766   3772     1   0.15375 251793.120000
   3769   3778     1   0.14316 258236.480000
   3772   5556     1   0.14316 258236.480000
   3775   5570     1   0.14316 258236.480000
   3780   3783     1   0.15375 251793.120000
   3780   3789     1   0.15110 237065.440000
   3783   3786     1   0.15375 251793.120000
   3786   3792     1   0.14316 258236.480000
   3794   3797     1   0.15375 251793.120000
   3794   3803     1   0.15110 237065.440000
   3797   3800     1   0.15375 251793.120000
   3800   3806     1   0.14316 258236.480000
   3808   3811     1   0.15375 251793.120000
   3808   3817     1   0.15110 237065.440000
   3811   3814     1   0.15375 251793.120000
   3814   3820     1   0.14316 258236.480000
   3822   3825     1   0.15375 251793.120000
   3822   3831     1   0.15110 237065.440000
   3825   3828     1   0.15375 251793.120000
   3828   3834     1   0.14316 258236.480000
   3836   3839     1   0.15375 251793.120000
   3836   3845     1   0.15110 237065.440000
   3839   3842     1   0.15375 251793.120000
   3842   3848     1   0.14316 258236.480000
   3850   3853     1   0.15375 251793.120000
   3850   3859     1   0.15110 237065.440000
   3853   3856     1   0.15375 251793.120000
   3856   3862     1   0.14316 258236.480000
   3864   3867     1   0.15375 251793.120000
   3864   3873     1   0.15110 237065.440000
   3867   3870     1   0.15375 251793.120000
   3870   3876     1   0.14316 258236.480000
   3878   3881     1   0.15375 251793.120000
   3878   3887     1   0.15110 237065.440000
   3881   3884     1   0.15375 251793.120000
   3884   3890     1   0.14316 258236.480000
   3892   3895     1   0.15375 251793.120000
   3892   3901     1   0.15110 237065.440000
   3895   3898     1   0.15375 251793.120000
   3898   3904     1   0.14316 258236.480000
   3906   3909     1   0.15375 251793.120000
   3906   3915     1   0.15110 237065.440000
   3909   3912     1   0.15375 251793.120000
   3912   3918     1   0.14316 258236.480000
   3920   3923     1   0.15375 251793.120000
   3920   3929     1   0.15110 237065.440000
   3923   3926     1   0.15375 251793.120000
   3926   3932     1   0.14316 258236.480000
   3934   3937     1   0.15375 251793.120000
   3934   3943     1   0.15110 237065.440000
   3937   3940     1   0.15375 251793.120000
   3940   3946     1   0.14316 258236.480000
   3948   3951     1   0.15375 251793.120000
   3948   3957     1   0.15110 237065.440000
   3951   3954     1   0.15375 251793.120000
   3954   3960     1   0.14316 258236.480000
   3962   3965     1   0.15375 251793.120000
   3962   3971     1   0.15110 237065.440000
   3965   3968     1   0.15375 251793.120000
   3968   3974     1   0.14316 258236.480000
   3976   3979     1   0.15375 251793.120000
   3976   3985     1   0.15110 237065.440000
   3979   3982     1   0.15375 251793.120000
   3982   3988     1   0.14316 258236.480000
   3990   3993     1   0.15375 251793.120000
   3990   3999     1   0.15110 237065.440000
   3993   3996     1   0.15375 251793.120000
   3996   4002     1   0.14316 258236.480000
   4004   4007     1   0.15375 251793.120000
   4004   4013     1   0.15110 237065.440000
   4007   4010     1   0.15375 251793.120000
   4010   4016     1   0.14316 258236.480000
   4018   4021     1   0.15375 251793.120000
   4018   4027     1   0.15110 237065.440000
   4021   4024     1   0.15375 251793.120000
   4024   4030     1   0.14316 258236.480000
   4032   4035     1   0.15375 251793.120000
   4032   4041     1   0.15110 237065.440000
   4035   4038     1   0.15375 251793.120000
   4038   4044     1   0.14316 258236.480000
   4046   4049     1   0.15375 251793.120000
   4046   4055     1   0.15110 237065.440000
   4049   4052     1   0.15375 251793.120000
   4052   4058     1   0.14316 258236.480000
   4060   4063     1   0.15375 251793.120000
   4060   4069     1   0.15110 237065.440000
   4063   4066     1   0.15375 251793.120000
   4066   4072     1   0.14316 258236.480000
   4074   4077     1   0.15375 251793.120000
   4074   4083     1   0.15110 237065.440000
   4077   4080     1   0.15375 251793.120000
   4080   4086     1   0.14316 258236.480000
   4088   4091     1   0.15375 251793.120000
   4088   4097     1   0.15110 237065.440000
   4091   4094     1   0.15375 251793.120000
   4094   4100     1   0.14316 258236.480000
   4102   4105     1   0.15375 251793.120000
   4102   4111     1   0.15110 237065.440000
   4105   4108     1   0.15375 251793.120000
   4108   4114     1   0.14316 258236.480000
   4116   4119     1   0.15375 251793.120000
   4116   4125     1   0.15110 237065.440000
   4119   4122     1   0.15375 251793.120000
   4122   4128     1   0.14316 258236.480000
   4130   4133     1   0.15375 251793.120000
   4130   4139     1   0.15110 237065.440000
   4133   4136     1   0.15375 251793.120000
   4136   4142     1   0.14316 258236.480000
   4144   4147     1   0.15375 251793.120000
   4144   4153     1   0.15110 237065.440000
   4147   4150     1   0.15375 251793.120000
   4150   4156     1   0.14316 258236.480000
   4158   4161     1   0.15375 251793.120000
   4158   4167     1   0.15110 237065.440000
   4161   4164     1   0.15375 251793.120000
   4164   4170     1   0.14316 258236.480000
   4172   4175     1   0.15375 251793.120000
   4172   4181     1   0.15110 237065.440000
   4175   4178     1   0.15375 251793.120000
   4178   4184     1   0.14316 258236.480000
   4186   4189     1   0.15375 251793.120000
   4186   4195     1   0.15110 237065.440000
   4189   4192     1   0.15375 251793.120000
   4192   4198     1   0.14316 258236.480000
   4200   4203     1   0.15375 251793.120000
   4200   4209     1   0.15110 237065.440000
   4203   4206     1   0.15375 251793.120000
   4206   4212     1   0.14316 258236.480000
   4214   4217     1   0.15375 251793.120000
   4214   4223     1   0.15110 237065.440000
   4217   4220     1   0.15375 251793.120000
   4220   4226     1   0.14316 258236.480000
   4228   4231     1   0.15375 251793.120000
   4228   4237     1   0.15110 237065.440000
   4231   4234     1   0.15375 251793.120000
   4234   4240     1   0.14316 258236.480000
   4242   4245     1   0.15375 251793.120000
   4242   4251     1   0.15110 237065.440000
   4245   4248     1   0.15375 251793.120000
   4248   4254     1   0.14316 258236.480000
   4256   4259     1   0.15375 251793.120000
   4256   4265     1   0.15110 237065.440000
   4259   4262     1   0.15375 251793.120000
   4262   4268     1   0.14316 258236.480000
   4270   4273     1   0.15375 251793.120000
   4270   4279     1   0.15110 237065.440000
   4273   4276     1   0.15375 251793.120000
   4276   4282     1   0.14316 258236.480000
   4284   4287     1   0.15375 251793.120000
   4284   4293     1   0.15110 237065.440000
   4287   4290     1   0.15375 251793.120000
   4290   4296     1   0.14316 258236.480000
   4298   4301     1   0.15375 251793.120000
   4298   4307     1   0.15110 237065.440000
   4301   4304     1   0.15375 251793.120000
   4304   4310     1   0.14316 258236.480000
   4312   4315     1   0.15375 251793.120000
   4312   4321     1   0.15110 237065.440000
   4315   4318     1   0.15375 251793.120000
   4318   4324     1   0.14316 258236.480000
   4326   4329     1   0.15375 251793.120000
   4326   4335     1   0.15110 237065.440000
   4329   4332     1   0.15375 251793.120000
   4332   4338     1   0.14316 258236.480000
   4340   4343     1   0.15375 251793.120000
   4340   4349     1   0.15110 237065.440000
   4343   4346     1   0.15375 251793.120000
   4346   4352     1   0.14316 258236.480000
   4354   4357     1   0.15375 251793.120000
   4354   4363     1   0.15110 237065.440000
   4357   4360     1   0.15375 251793.120000
   4360   4366     1   0.14316 258236.480000
   4368   4371     1   0.15375 251793.120000
   4368   4377     1   0.15110 237065.440000
   4371   4374     1   0.15375 251793.120000
   4374   4380     1   0.14316 258236.480000
   4382   4385     1   0.15375 251793.120000
   4382   4391     1   0.15110 237065.440000
   4385   4388     1   0.15375 251793.120000
   4388   4394     1   0.14316 258236.480000
   4396   4399     1   0.15375 251793.120000
   4396   4405     1   0.15110 237065.440000
   4399   4402     1   0.15375 251793.120000
   4402   4408     1   0.14316 258236.480000
   4410   4413     1   0.15375 251793.120000
   4410   4419     1   0.15110 237065.440000
   4413   4416     1   0.15375 251793.120000
   4416   4422     1   0.14316 258236.480000
   4424   4427     1   0.15375 251793.120000
   4424   4433     1   0.15110 237065.440000
   4427   4430     1   0.15375 251793.120000
   4430   4436     1   0.14316 258236.480000
   4438   4441     1   0.15375 251793.120000
   4438   4447     1   0.15110 237065.440000
   4441   4444     1   0.15375 251793.120000
   4444   4450     1   0.14316 258236.480000
   4452   4455     1   0.15375 251793.120000
   4452   4461     1   0.15110 237065.440000
   4455   4458     1   0.15375 251793.120000
   4458   4464     1   0.14316 258236.480000
   4466   4469     1   0.15375 251793.120000
   4466   4475     1   0.15110 237065.440000
   4469   4472     1   0.15375 251793.120000
   4472   4478     1   0.14316 258236.480000
   4480   4483     1   0.15375 251793.120000
   4480   4489     1   0.15110 237065.440000
   4483   4486     1   0.15375 251793.120000
   4486   4492     1   0.14316 258236.480000
   4494   4497     1   0.15375 251793.120000
   4494   4503     1   0.15110 237065.440000
   4497   4500     1   0.15375 251793.120000
   4500   4506     1   0.14316 258236.480000
   4508   4511     1   0.15375 251793.120000
   4508   4517     1   0.15110 237065.440000
   4511   4514     1   0.15375 251793.120000
   4514   4520     1   0.14316 258236.480000
   4522   4525     1   0.15375 251793.120000
   4522   4531     1   0.15110 237065.440000
   4525   4528     1   0.15375 251793.120000
   4528   4534     1   0.14316 258236.480000
   4536   4539     1   0.15375 251793.120000
   4536   4545     1   0.15110 237065.440000
   4539   4542     1   0.15375 251793.120000
   4542   4548     1   0.14316 258236.480000
   4550   4553     1   0.15375 251793.120000
   4550   4559     1   0.15110 237065.440000
   4553   4556     1   0.15375 251793.120000
   4556   4562     1   0.14316 258236.480000
   4564   4567     1   0.15375 251793.120000
   4564   4573     1   0.15110 237065.440000
   4567   4570     1   0.15375 251793.120000
   4570   4576     1   0.14316 258236.480000
   4578   4581     1   0.15375 251793.120000
   4578   4587     1   0.15110 237065.440000
   4581   4584     1   0.15375 251793.120000
   4584   4590     1   0.14316 258236.480000
   4592   4595     1   0.15375 251793.120000
   4592   4601     1   0.15110 237065.440000
   4595   4598     1   0.15375 251793.120000
   4598   4604     1   0.14316 258236.480000
   4606   4609     1   0.15375 251793.120000
   4606   4615     1   0.15110 237065.440000
   4609   4612     1   0.15375 251793.120000
   4612   4618     1   0.14316 258236.480000
   4620   4623     1   0.15375 251793.120000
   4620   4629     1   0.15110 237065.440000
   4623   4626     1   0.15375 251793.120000
   4626   4632     1   0.14316 258236.480000
   4634   4637     1   0.15375 251793.120000
   4634   4643     1   0.15110 237065.440000
   4637   4640     1   0.15375 251793.120000
   4640   4646     1   0.14316 258236.480000
   4648   4651     1   0.15375 251793.120000
   4648   4657     1   0.15110 237065.440000
   4651   4654     1   0.15375 251793.120000
   4654   4660     1   0.14316 258236.480000
   4662   4665     1   0.15375 251793.120000
   4662   4671     1   0.15110 237065.440000
   4665   4668     1   0.15375 251793.120000
   4668   4674     1   0.14316 258236.480000
   4676   4679     1   0.15375 251793.120000
   4676   4685     1   0.15110 237065.440000
   4679   4682     1   0.15375 251793.120000
   4682   4688     1   0.14316 258236.480000
   4690   4693     1   0.15375 251793.120000
   4690   4699     1   0.15110 237065.440000
   4693   4696     1   0.15375 251793.120000
   4696   4702     1   0.14316 258236.480000
   4704   4707     1   0.15375 251793.120000
   4704   4713     1   0.15110 237065.440000
   4707   4710     1   0.15375 251793.120000
   4710   4716     1   0.14316 258236.480000
   4718   4721     1   0.15375 251793.120000
   4718   4727     1   0.15110 237065.440000
   4721   4724     1   0.15375 251793.120000
   4724   4730     1   0.14316 258236.480000
   4732   4735     1   0.15375 251793.120000
   4732   4741     1   0.15110 237065.440000
   4735   4738     1   0.15375 251793.120000
   4738   4744     1   0.14316 258236.480000
   4746   4749     1   0.15375 251793.120000
   4746   4755     1   0.15110 237065.440000
   4749   4752     1   0.15375 251793.120000
   4752   4758     1   0.14316 258236.480000
   4760   4763     1   0.15375 251793.120000
   4760   4769     1   0.15110 237065.440000
   4763   4766     1   0.15375 251793.120000
   4766   4772     1   0.14316 258236.480000
   4774   4777     1   0.15375 251793.120000
   4774   4783     1   0.15110 237065.440000
   4777   4780     1   0.15375 251793.120000
   4780   4786     1   0.14316 258236.480000
   4788   4791     1   0.15375 251793.120000
   4788   4797     1   0.15110 237065.440000
   4791   4794     1   0.15375 251793.120000
   4794   4800     1   0.14316 258236.480000
   4802   4805     1   0.15375 251793.120000
   4802   4811     1   0.15110 237065.440000
   4805   4808     1   0.15375 251793.120000
   4808   4814     1   0.14316 258236.480000
   4816   4819     1   0.15375 251793.120000
   4816   4825     1   0.15110 237065.440000
   4819   4822     1   0.15375 251793.120000
   4822   4828     1   0.14316 258236.480000
   4830   4833     1   0.15375 251793.120000
   4830   4839     1   0.15110 237065.440000
   4833   4836     1   0.15375 251793.120000
   4836   4842     1   0.14316 258236.480000
   4844   4847     1   0.15375 251793.120000
   4844   4853     1   0.15110 237065.440000
   4847   4850     1   0.15375 251793.120000
   4850   4856     1   0.14316 258236.480000
   4858   4861     1   0.15375 251793.120000
   4858   4867     1   0.15110 237065.440000
   4861   4864     1   0.15375 251793.120000
   4864   4870     1   0.14316 258236.480000
   4872   4875     1   0.15375 251793.120000
   4872   4881     1   0.15110 237065.440000
   4875   4878     1   0.15375 251793.120000
   4878   4884     1   0.14316 258236.480000
   4886   4889     1   0.15375 251793.120000
   4886   4895     1   0.15110 237065.440000
   4889   4892     1   0.15375 251793.120000
   4892   4898     1   0.14316 258236.480000
   4900   4903     1   0.15375 251793.120000
   4900   4909     1   0.15110 237065.440000
   4903   4906     1   0.15375 251793.120000
   4906   4912     1   0.14316 258236.480000
   4914   4917     1   0.15375 251793.120000
   4914   4923     1   0.15110 237065.440000
   4917   4920     1   0.15375 251793.120000
   4920   4926     1   0.14316 258236.480000
   4928   4931     1   0.15375 251793.120000
   4928   4937     1   0.15110 237065.440000
   4931   4934     1   0.15375 251793.120000
   4934   4940     1   0.14316 258236.480000
   4942   4945     1   0.15375 251793.120000
   4942   4951     1   0.15110 237065.440000
   4945   4948     1   0.15375 251793.120000
   4948   4954     1   0.14316 258236.480000
   4956   4959     1   0.15375 251793.120000
   4956   4965     1   0.15110 237065.440000
   4959   4962     1   0.15375 251793.120000
   4962   4968     1   0.14316 258236.480000
   4970   4973     1   0.15375 251793.120000
   4970   4979     1   0.15110 237065.440000
   4973   4976     1   0.15375 251793.120000
   4976   4982     1   0.14316 258236.480000
   4984   4987     1   0.15375 251793.120000
   4984   4993     1   0.15110 237065.440000
   4987   4990     1   0.15375 251793.120000
   4990   4996     1   0.14316 258236.480000
   4998   5001     1   0.15375 251793.120000
   4998   5007     1   0.15110 237065.440000
   5001   5004     1   0.15375 251793.120000
   5004   5010     1   0.14316 258236.480000
   5012   5015     1   0.15375 251793.120000
   5012   5021     1   0.15110 237065.440000
   5015   5018     1   0.15375 251793.120000
   5018   5024     1   0.14316 258236.480000
   5026   5029     1   0.15375 251793.120000
   5026   5035     1   0.15110 237065.440000
   5029   5032     1   0.15375 251793.120000
   5032   5038     1   0.14316 258236.480000
   5040   5043     1   0.15375 251793.120000
   5040   5049     1   0.15110 237065.440000
   5043   5046     1   0.15375 251793.120000
   5046   5052     1   0.14316 258236.480000
   5054   5057     1   0.15375 251793.120000
   5054   5063     1   0.15110 237065.440000
   5057   5060     1   0.15375 251793.120000
   5060   5066     1   0.14316 258236.480000
   5068   5071     1   0.15375 251793.120000
   5068   5077     1   0.15110 237065.440000
   5071   5074     1   0.15375 251793.120000
   5074   5080     1   0.14316 258236.480000
   5082   5085     1   0.15375 251793.120000
   5082   5091     1   0.15110 237065.440000
   5085   5088     1   0.15375 251793.120000
   5088   5094     1   0.14316 258236.480000
   5096   5099     1   0.15375 251793.120000
   5096   5105     1   0.15110 237065.440000
   5099   5102     1   0.15375 251793.120000
   5102   5108     1   0.14316 258236.480000
   5110   5113     1   0.15375 251793.120000
   5110   5119     1   0.15110 237065.440000
   5113   5116     1   0.15375 251793.120000
   5116   5122     1   0.14316 258236.480000
   5124   5127     1   0.15375 251793.120000
   5124   5133     1   0.15110 237065.440000
   5127   5130     1   0.15375 251793.120000
   5130   5136     1   0.14316 258236.480000
   5138   5141     1   0.15375 251793.120000
   5138   5147     1   0.15110 237065.440000
   5141   5144     1   0.15375 251793.120000
   5144   5150     1   0.14316 258236.480000
   5152   5155     1   0.15375 251793.120000
   5152   5161     1   0.15110 237065.440000
   5155   5158     1   0.15375 251793.120000
   5158   5164     1   0.14316 258236.480000
   5166   5169     1   0.15375 251793.120000
   5166   5175     1   0.15110 237065.440000
   5169   5172     1   0.15375 251793.120000
   5172   5178     1   0.14316 258236.480000
   5180   5183     1   0.15375 251793.120000
   5180   5189     1   0.15110 237065.440000
   5183   5186     1   0.15375 251793.120000
   5186   5192     1   0.14316 258236.480000
   5194   5197     1   0.15375 251793.120000
   5194   5203     1   0.15110 237065.440000
   5197   5200     1   0.15375 251793.120000
   5200   5206     1   0.14316 258236.480000
   5208   5211     1   0.15375 251793.120000
   5208   5217     1   0.15110 237065.440000
   5211   5214     1   0.15375 251793.120000
   5214   5220     1   0.14316 258236.480000
   5222   5225     1   0.15375 251793.120000
   5222   5231     1   0.15110 237065.440000
   5225   5228     1   0.15375 251793.120000
   5228   5234     1   0.14316 258236.480000
   5236   5239     1   0.15375 251793.120000
   5236   5245     1   0.15110 237065.440000
   5239   5242     1   0.15375 251793.120000
   5242   5248     1   0.14316 258236.480000
   5250   5253     1   0.15375 251793.120000
   5250   5259     1   0.15110 237065.440000
   5253   5256     1   0.15375 251793.120000
   5256   5262     1   0.14316 258236.480000
   5264   5267     1   0.15375 251793.120000
   5264   5273     1   0.15110 237065.440000
   5267   5270     1   0.15375 251793.120000
   5270   5276     1   0.14316 258236.480000
   5278   5281     1   0.15375 251793.120000
   5278   5287     1   0.15110 237065.440000
   5281   5284     1   0.15375 251793.120000
   5284   5290     1   0.14316 258236.480000
   5292   5295     1   0.15375 251793.120000
   5292   5301     1   0.15110 237065.440000
   5295   5298     1   0.15375 251793.120000
   5298   5304     1   0.14316 258236.480000
   5306   5309     1   0.15375 251793.120000
   5306   5315     1   0.15110 237065.440000
   5309   5312     1   0.15375 251793.120000
   5312   5318     1   0.14316 258236.480000
   5320   5323     1   0.15375 251793.120000
   5320   5329     1   0.15110 237065.440000
   5323   5326     1   0.15375 251793.120000
   5326   5332     1   0.14316 258236.480000
   5334   5337     1   0.15375 251793.120000
   5334   5343     1   0.15110 237065.440000
   5337   5340     1   0.15375 251793.120000
   5340   5346     1   0.14316 258236.480000
   5348   5351     1   0.15375 251793.120000
   5348   5357     1   0.15110 237065.440000
   5351   5354     1   0.15375 251793.120000
   5354   5360     1   0.14316 258236.480000
   5362   5365     1   0.15375 251793.120000
   5362   5371     1   0.15110 237065.440000
   5365   5368     1   0.15375 251793.120000
   5368   5374     1   0.14316 258236.480000
   5376   5379     1   0.15375 251793.120000
   5376   5385     1   0.15110 237065.440000
   5379   5382     1   0.15375 251793.120000
   5382   5388     1   0.14316 258236.480000
   5390   5393     1   0.15375 251793.120000
   5390   5399     1   0.15110 237065.440000
   5393   5396     1   0.15375 251793.120000
   5396   5402     1   0.14316 258236.480000
   5404   5407     1   0.15375 251793.120000
   5404   5413     1   0.15110 237065.440000
   5407   5410     1   0.15375 251793.120000
   5410   5416     1   0.14316 258236.480000
   5418   5421     1   0.15375 251793.120000
   5418   5427     1   0.15110 237065.440000
   5421   5424     1   0.15375 251793.120000
   5424   5430     1   0.14316 258236.480000
   5432   5435     1   0.15375 251793.120000
   5432   5441     1   0.15110 237065.440000
   5435   5438     1   0.15375 251793.120000
   5438   5444     1   0.14316 258236.480000
   5446   5449     1   0.15375 251793.120000
   5446   5455     1   0.15110 237065.440000
   5449   5452     1   0.15375 251793.120000
   5452   5458     1   0.14316 258236.480000
   5460   5463     1   0.15375 251793.120000
   5460   5469     1   0.15110 237065.440000
   5463   5466     1   0.15375 251793.120000
   5466   5472     1   0.14316 258236.480000
   5474   5477     1   0.15375 251793.120000
   5474   5483     1   0.15110 237065.440000
   5477   5480     1   0.15375 251793.120000
   5480   5486     1   0.14316 258236.480000
   5488   5491     1   0.15375 251793.120000
   5488   5497     1   0.15110 237065.440000
   5491   5494     1   0.15375 251793.120000
   5494   5500     1   0.14316 258236.480000
   5502   5505     1   0.15375 251793.120000
   5502   5511     1   0.15110 237065.440000
   5505   5508     1   0.15375 251793.120000
   5508   5514     1   0.14316 258236.480000
   5516   5519     1   0.15375 251793.120000
   5516   5525     1   0.15110 237065.440000
   5519   5522     1   0.15375 251793.120000
   5522   5528     1   0.14316 258236.480000
   5530   5533     1   0.15375 251793.120000
   5530   5539     1   0.15110 237065.440000
   5533   5536     1   0.15375 251793.120000
   5536   5542     1   0.14316 258236.480000
   5544   5547     1   0.15375 251793.120000
   5544   5553     1   0.15110 237065.440000
   5547   5550     1   0.15375 251793.120000
   5550   5556     1   0.14316 258236.480000
   5558   5561     1   0.15375 251793.120000
   5558   5567     1   0.15110 237065.440000
   5561   5564     1   0.15375 251793.120000
   5564   5570     1   0.14316 258236.480000
      2      3     1   0.10969 276646.080000
      2      4     1   0.10969 276646.080000
      5      6     1   0.10969 276646.080000
      5      7     1   0.10969 276646.080000
      8      9     1   0.10969 276646.080000
      8     10     1   0.10969 276646.080000
     11     12     1   0.10969 276646.080000
     11     13     1   0.10969 276646.080000
     14     15     1   0.10910 283424.160000
     14     16     1   0.10910 283424.160000
     17     18     1   0.10910 283424.160000
     17     19     1   0.10910 283424.160000
     20     58     1   0.10304 312293.760000
     21     59     1   0.10304 312293.760000
     22     23     1   0.10910 283424.160000
     22     24     1   0.10910 283424.160000
     25     26     1   0.10910 283424.160000
     25     27     1   0.10910 283424.160000
     28     29     1   0.10910 283424.160000
     28     30     1   0.10910 283424.160000
     31     32     1   0.10910 283424.160000
     31     33     1   0.10910 283424.160000
     34     35     1   0.10969 276646.080000
     34     36     1   0.10969 276646.080000
     37     38     1   0.10969 276646.080000
     37     39     1   0.10969 276646.080000
     40     41     1   0.10969 276646.080000
     40     42     1   0.10969 276646.080000
     43     44     1   0.10969 276646.080000
     43     45     1   0.10969 276646.080000
     46     47     1   0.10969 276646.080000
     46     48     1   0.10969 276646.080000
     49     50     1   0.10969 276646.080000
     49     51     1   0.10969 276646.080000
     52     53     1   0.10969 276646.080000
     52     54     1   0.10969 276646.080000
     55     56     1   0.10969 276646.080000
     55     57     1   0.10969 276646.080000
     60     89     1   0.10304 312293.760000
     61     62     1   0.10910 283424.160000
     61     63     1   0.10910 283424.160000
     64     65     1   0.10910 283424.160000
     64     66     1   0.10910 283424.160000
     67     68     1   0.10910 283424.160000
     67     69     1   0.10910 283424.160000
     70     71     1   0.10969 276646.080000
     70     72     1   0.10969 276646.080000
     73     74     1   0.10969 276646.080000
     73     75     1   0.10969 276646.080000
     76     77     1   0.10969 276646.080000
     76     78     1   0.10969 276646.080000
     79     80     1   0.10969 276646.080000
     79     81     1   0.10969 276646.080000
     82     83     1   0.10969 276646.080000
     82     84     1   0.10969 276646.080000
     85     86     1   0.10969 276646.080000
     85     87     1   0.10969 276646.080000
     90    119     1   0.10304 312293.760000
     91     92     1   0.10910 283424.160000
     91     93     1   0.10910 283424.160000
     94     95     1   0.10910 283424.160000
     94     96     1   0.10910 283424.160000
     97     98     1   0.10910 283424.160000
     97     99     1   0.10910 283424.160000
    100    101     1   0.10969 276646.080000
    100    102     1   0.10969 276646.080000
    103    104     1   0.10969 276646.080000
    103    105     1   0.10969 276646.080000
    106    107     1   0.10969 276646.080000
    106    108     1   0.10969 276646.080000
    109    110     1   0.10969 276646.080000
    109    111     1   0.10969 276646.080000
    112    113     1   0.10969 276646.080000
    112    114     1   0.10969 276646.080000
    115    116     1   0.10969 276646.080000
    115    117     1   0.10969 276646.080000
    120    149     1   0.10304 312293.760000
    121    122     1   0.10910 283424.160000
    121    123     1   0.10910 283424.160000
    124    125     1   0.10910 283424.160000
    124    126     1   0.10910 283424.160000
    127    128     1   0.10910 283424.160000
    127    129     1   0.10910 283424.160000
    130    131     1   0.10969 276646.080000
    130    132     1   0.10969 276646.080000
    133    134     1   0.10969 276646.080000
    133    135     1   0.10969 276646.080000
    136    137     1   0.10969 276646.080000
    136    138     1   0.10969 276646.080000
    139    140     1   0.10969 276646.080000
    139    141     1   0.10969 276646.080000
    142    143     1   0.10969 276646.080000
    142    144     1   0.10969 276646.080000
    145    146     1   0.10969 276646.080000
    145    147     1   0.10969 276646.080000
    150    179     1   0.10304 312293.760000
    151    152     1   0.10910 283424.160000
    151    153     1   0.10910 283424.160000
    154    155     1   0.10910 283424.160000
    154    156     1   0.10910 283424.160000
    157    158     1   0.10910 283424.160000
    157    159     1   0.10910 283424.160000
    160    161     1   0.10969 276646.080000
    160    162     1   0.10969 276646.080000
    163    164     1   0.10969 276646.080000
    163    165     1   0.10969 276646.080000
    166    167     1   0.10969 276646.080000
    166    168     1   0.10969 276646.080000
    169    170     1   0.10969 276646.080000
    169    171     1   0.10969 276646.080000
    172    173     1   0.10969 276646.080000
    172    174     1   0.10969 276646.080000
    175    176     1   0.10969 276646.080000
    175    177     1   0.10969 276646.080000
    180    209     1   0.10304 312293.760000
    181    182     1   0.10910 283424.160000
    181    183     1   0.10910 283424.160000
    184    185     1   0.10910 283424.160000
    184    186     1   0.10910 283424.160000
    187    188     1   0.10910 283424.160000
    187    189     1   0.10910 283424.160000
    190    191     1   0.10969 276646.080000
    190    192     1   0.10969 276646.080000
    193    194     1   0.10969 276646.080000
    193    195     1   0.10969 276646.080000
    196    197     1   0.10969 276646.080000
    196    198     1   0.10969 276646.080000
    199    200     1   0.10969 276646.080000
    199    201     1   0.10969 276646.080000
    202    203     1   0.10969 276646.080000
    202    204     1   0.10969 276646.080000
    205    206     1   0.10969 276646.080000
    205    207     1   0.10969 276646.080000
    210    239     1   0.10304 312293.760000
    211    212     1   0.10910 283424.160000
    211    213     1   0.10910 283424.160000
    214    215     1   0.10910 283424.160000
    214    216     1   0.10910 283424.160000
    217    218     1   0.10910 283424.160000
    217    219     1   0.10910 283424.160000
    220    221     1   0.10969 276646.080000
    220    222     1   0.10969 276646.080000
    223    224     1   0.10969 276646.080000
    223    225     1   0.10969 276646.080000
    226    227     1   0.10969 276646.080000
    226    228     1   0.10969 276646.080000
    229    230     1   0.10969 276646.080000
    229    231     1   0.10969 276646.080000
    232    233     1   0.10969 276646.080000
    232    234     1   0.10969 276646.080000
    235    236     1   0.10969 276646.080000
    235    237     1   0.10969 276646.080000
    240    269     1   0.10304 312293.760000
    241    242     1   0.10910 283424.160000
    241    243     1   0.10910 283424.160000
    244    245     1   0.10910 283424.160000
    244    246     1   0.10910 283424.160000
    247    248     1   0.10910 283424.160000
    247    249     1   0.10910 283424.160000
    250    251     1   0.10969 276646.080000
    250    252     1   0.10969 276646.080000
    253    254     1   0.10969 276646.080000
    253    255     1   0.10969 276646.080000
    256    257     1   0.10969 276646.080000
    256    258     1   0.10969 276646.080000
    259    260     1   0.10969 276646.080000
    259    261     1   0.10969 276646.080000
    262    263     1   0.10969 276646.080000
    262    264     1   0.10969 276646.080000
    265    266     1   0.10969 276646.080000
    265    267     1   0.10969 276646.080000
    270    299     1   0.10304 312293.760000
    271    272     1   0.10910 283424.160000
    271    273     1   0.10910 283424.160000
    274    275     1   0.10910 283424.160000
    274    276     1   0.10910 283424.160000
    277    278     1   0.10910 283424.160000
    277    279     1   0.10910 283424.160000
    280    281     1   0.10969 276646.080000
    280    282     1   0.10969 276646.080000
    283    284     1   0.10969 276646.080000
    283    285     1   0.10969 276646.080000
    286    287     1   0.10969 276646.080000
    286    288     1   0.10969 276646.080000
    289    290     1   0.10969 276646.080000
    289    291     1   0.10969 276646.080000
    292    293     1   0.10969 276646.080000
    292    294     1   0.10969 276646.080000
    295    296     1   0.10969 276646.080000
    295    297     1   0.10969 276646.080000
    300    329     1   0.10304 312293.760000
    301    302     1   0.10910 283424.160000
    301    303     1   0.10910 283424.160000
    304    305     1   0.10910 283424.160000
    304    306     1   0.10910 283424.160000
    307    308     1   0.10910 283424.160000
    307    309     1   0.10910 283424.160000
    310    311     1   0.10969 276646.080000
    310    312     1   0.10969 276646.080000
    313    314     1   0.10969 276646.080000
    313    315     1   0.10969 276646.080000
    316    317     1   0.10969 276646.080000
    316    318     1   0.10969 276646.080000
    319    320     1   0.10969 276646.080000
    319    321     1   0.10969 276646.080000
    322    323     1   0.10969 276646.080000
    322    324     1   0.10969 276646.080000
    325    326     1   0.10969 276646.080000
    325    327     1   0.10969 276646.080000
    330    359     1   0.10304 312293.760000
    331    332     1   0.10910 283424.160000
    331    333     1   0.10910 283424.160000
    334    335     1   0.10910 283424.160000
    334    336     1   0.10910 283424.160000
    337    338     1   0.10910 283424.160000
    337    339     1   0.10910 283424.160000
    340    341     1   0.10969 276646.080000
    340    342     1   0.10969 276646.080000
    343    344     1   0.10969 276646.080000
    343    345     1   0.10969 276646.080000
    346    347     1   0.10969 276646.080000
    346    348     1   0.10969 276646.080000
    349    350     1   0.10969 276646.080000
    349    351     1   0.10969 276646.080000
    352    353     1   0.10969 276646.080000
    352    354     1   0.10969 276646.080000
    355    356     1   0.10969 276646.080000
    355    357     1   0.10969 276646.080000
    360    389     1   0.10304 312293.760000
    361    362     1   0.10910 283424.160000
    361    363     1   0.10910 283424.160000
    364    365     1   0.10910 283424.160000
    364    366     1   0.10910 283424.160000
    367    368     1   0.10910 283424.160000
    367    369     1   0.10910 283424.160000
    370    371     1   0.10969 276646.080000
    370    372     1   0.10969 276646.080000
    373    374     1   0.10969 276646.080000
    373    375     1   0.10969 276646.080000
    376    377     1   0.10969 276646.080000
    376    378     1   0.10969 276646.080000
    379    380     1   0.10969 276646.080000
    379    381     1   0.10969 276646.080000
    382    383     1   0.10969 276646.080000
    382    384     1   0.10969 276646.080000
    385    386     1   0.10969 276646.080000
    385    387     1   0.10969 276646.080000
    390    419     1   0.10304 312293.760000
    391    392     1   0.10910 283424.160000
    391    393     1   0.10910 283424.160000
    394    395     1   0.10910 283424.160000
    394    396     1   0.10910 283424.160000
    397    398     1   0.10910 283424.160000
    397    399     1   0.10910 283424.160000
    400    401     1   0.10969 276646.080000
    400    402     1   0.10969 276646.080000
    403    404     1   0.10969 276646.080000
    403    405     1   0.10969 276646.080000
    406    407     1   0.10969 276646.080000
    406    408     1   0.10969 276646.080000
    409    410     1   0.10969 276646.080000
    409    411     1   0.10969 276646.080000
    412    413     1   0.10969 276646.080000
    412    414     1   0.10969 276646.080000
    415    416     1   0.10969 276646.080000
    415    417     1   0.10969 276646.080000
    420    449     1   0.10304 312293.760000
    421    422     1   0.10910 283424.160000
    421    423     1   0.10910 283424.160000
    424    425     1   0.10910 283424.160000
    424    426     1   0.10910 283424.160000
    427    428     1   0.10910 283424.160000
    427    429     1   0.10910 283424.160000
    430    431     1   0.10969 276646.080000
    430    432     1   0.10969 276646.080000
    433    434     1   0.10969 276646.080000
    433    435     1   0.10969 276646.080000
    436    437     1   0.10969 276646.080000
    436    438     1   0.10969 276646.080000
    439    440     1   0.10969 276646.080000
    439    441     1   0.10969 276646.080000
    442    443     1   0.10969 276646.080000
    442    444     1   0.10969 276646.080000
    445    446     1   0.10969 276646.080000
    445    447     1   0.10969 276646.080000
    450    479     1   0.10304 312293.760000
    451    452     1   0.10910 283424.160000
    451    453     1   0.10910 283424.160000
    454    455     1   0.10910 283424.160000
    454    456     1   0.10910 283424.160000
    457    458     1   0.10910 283424.160000
    457    459     1   0.10910 283424.160000
    460    461     1   0.10969 276646.080000
    460    462     1   0.10969 276646.080000
    463    464     1   0.10969 276646.080000
    463    465     1   0.10969 276646.080000
    466    467     1   0.10969 276646.080000
    466    468     1   0.10969 276646.080000
    469    470     1   0.10969 276646.080000
    469    471     1   0.10969 276646.080000
    472    473     1   0.10969 276646.080000
    472    474     1   0.10969 276646.080000
    475    476     1   0.10969 276646.080000
    475    477     1   0.10969 276646.080000
    480    509     1   0.10304 312293.760000
    481    482     1   0.10910 283424.160000
    481    483     1   0.10910 283424.160000
    484    485     1   0.10910 283424.160000
    484    486     1   0.10910 283424.160000
    487    488     1   0.10910 283424.160000
    487    489     1   0.10910 283424.160000
    490    491     1   0.10969 276646.080000
    490    492     1   0.10969 276646.080000
    493    494     1   0.10969 276646.080000
    493    495     1   0.10969 276646.080000
    496    497     1   0.10969 276646.080000
    496    498     1   0.10969 276646.080000
    499    500     1   0.10969 276646.080000
    499    501     1   0.10969 276646.080000
    502    503     1   0.10969 276646.080000
    502    504     1   0.10969 276646.080000
    505    506     1   0.10969 276646.080000
    505    507     1   0.10969 276646.080000
    510    539     1   0.10304 312293.760000
    511    512     1   0.10910 283424.160000
    511    513     1   0.10910 283424.160000
    514    515     1   0.10910 283424.160000
    514    516     1   0.10910 283424.160000
    517    518     1   0.10910 283424.160000
    517    519     1   0.10910 283424.160000
    520    521     1   0.10969 276646.080000
    520    522     1   0.10969 276646.080000
    523    524     1   0.10969 276646.080000
    523    525     1   0.10969 276646.080000
    526    527     1   0.10969 276646.080000
    526    528     1   0.10969 276646.080000
    529    530     1   0.10969 276646.080000
    529    531     1   0.10969 276646.080000
    532    533     1   0.10969 276646.080000
    532    534     1   0.10969 276646.080000
    535    536     1   0.10969 276646.080000
    535    537     1   0.10969 276646.080000
    540    569     1   0.10304 312293.760000
    541    542     1   0.10910 283424.160000
    541    543     1   0.10910 283424.160000
    544    545     1   0.10910 283424.160000
    544    546     1   0.10910 283424.160000
    547    548     1   0.10910 283424.160000
    547    549     1   0.10910 283424.160000
    550    551     1   0.10969 276646.080000
    550    552     1   0.10969 276646.080000
    553    554     1   0.10969 276646.080000
    553    555     1   0.10969 276646.080000
    556    557     1   0.10969 276646.080000
    556    558     1   0.10969 276646.080000
    559    560     1   0.10969 276646.080000
    559    561     1   0.10969 276646.080000
    562    563     1   0.10969 276646.080000
    562    564     1   0.10969 276646.080000
    565    566     1   0.10969 276646.080000
    565    567     1   0.10969 276646.080000
    570    599     1   0.10304 312293.760000
    571    572     1   0.10910 283424.160000
    571    573     1   0.10910 283424.160000
    574    575     1   0.10910 283424.160000
    574    576     1   0.10910 283424.160000
    577    578     1   0.10910 283424.160000
    577    579     1   0.10910 283424.160000
    580    581     1   0.10969 276646.080000
    580    582     1   0.10969 276646.080000
    583    584     1   0.10969 276646.080000
    583    585     1   0.10969 276646.080000
    586    587     1   0.10969 276646.080000
    586    588     1   0.10969 276646.080000
    589    590     1   0.10969 276646.080000
    589    591     1   0.10969 276646.080000
    592    593     1   0.10969 276646.080000
    592    594     1   0.10969 276646.080000
    595    596     1   0.10969 276646.080000
    595    597     1   0.10969 276646.080000
    600    629     1   0.10304 312293.760000
    601    602     1   0.10910 283424.160000
    601    603     1   0.10910 283424.160000
    604    605     1   0.10910 283424.160000
    604    606     1   0.10910 283424.160000
    607    608     1   0.10910 283424.160000
    607    609     1   0.10910 283424.160000
    610    611     1   0.10969 276646.080000
    610    612     1   0.10969 276646.080000
    613    614     1   0.10969 276646.080000
    613    615     1   0.10969 276646.080000
    616    617     1   0.10969 276646.080000
    616    618     1   0.10969 276646.080000
    619    620     1   0.10969 276646.080000
    619    621     1   0.10969 276646.080000
    622    623     1   0.10969 276646.080000
    622    624     1   0.10969 276646.080000
    625    626     1   0.10969 276646.080000
    625    627     1   0.10969 276646.080000
    630    659     1   0.10304 312293.760000
    631    632     1   0.10910 283424.160000
    631    633     1   0.10910 283424.160000
    634    635     1   0.10910 283424.160000
    634    636     1   0.10910 283424.160000
    637    638     1   0.10910 283424.160000
    637    639     1   0.10910 283424.160000
    640    641     1   0.10969 276646.080000
    640    642     1   0.10969 276646.080000
    643    644     1   0.10969 276646.080000
    643    645     1   0.10969 276646.080000
    646    647     1   0.10969 276646.080000
    646    648     1   0.10969 276646.080000
    649    650     1   0.10969 276646.080000
    649    651     1   0.10969 276646.080000
    652    653     1   0.10969 276646.080000
    652    654     1   0.10969 276646.080000
    655    656     1   0.10969 276646.080000
    655    657     1   0.10969 276646.080000
    660    689     1   0.10304 312293.760000
    661    662     1   0.10910 283424.160000
    661    663     1   0.10910 283424.160000
    664    665     1   0.10910 283424.160000
    664    666     1   0.10910 283424.160000
    667    668     1   0.10910 283424.160000
    667    669     1   0.10910 283424.160000
    670    671     1   0.10969 276646.080000
    670    672     1   0.10969 276646.080000
    673    674     1   0.10969 276646.080000
    673    675     1   0.10969 276646.080000
    676    677     1   0.10969 276646.080000
    676    678     1   0.10969 276646.080000
    679    680     1   0.10969 276646.080000
    679    681     1   0.10969 276646.080000
    682    683     1   0.10969 276646.080000
    682    684     1   0.10969 276646.080000
    685    686     1   0.10969 276646.080000
    685    687     1   0.10969 276646.080000
    690    719     1   0.10304 312293.760000
    691    692     1   0.10910 283424.160000
    691    693     1   0.10910 283424.160000
    694    695     1   0.10910 283424.160000
    694    696     1   0.10910 283424.160000
    697    698     1   0.10910 283424.160000
    697    699     1   0.10910 283424.160000
    700    701     1   0.10969 276646.080000
    700    702     1   0.10969 276646.080000
    703    704     1   0.10969 276646.080000
    703    705     1   0.10969 276646.080000
    706    707     1   0.10969 276646.080000
    706    708     1   0.10969 276646.080000
    709    710     1   0.10969 276646.080000
    709    711     1   0.10969 276646.080000
    712    713     1   0.10969 276646.080000
    712    714     1   0.10969 276646.080000
    715    716     1   0.10969 276646.080000
    715    717     1   0.10969 276646.080000
    720    749     1   0.10304 312293.760000
    721    722     1   0.10910 283424.160000
    721    723     1   0.10910 283424.160000
    724    725     1   0.10910 283424.160000
    724    726     1   0.10910 283424.160000
    727    728     1   0.10910 283424.160000
    727    729     1   0.10910 283424.160000
    730    731     1   0.10969 276646.080000
    730    732     1   0.10969 276646.080000
    733    734     1   0.10969 276646.080000
    733    735     1   0.10969 276646.080000
    736    737     1   0.10969 276646.080000
    736    738     1   0.10969 276646.080000
    739    740     1   0.10969 276646.080000
    739    741     1   0.10969 276646.080000
    742    743     1   0.10969 276646.080000
    742    744     1   0.10969 276646.080000
    745    746     1   0.10969 276646.080000
    745    747     1   0.10969 276646.080000
    750    779     1   0.10304 312293.760000
    751    752     1   0.10910 283424.160000
    751    753     1   0.10910 283424.160000
    754    755     1   0.10910 283424.160000
    754    756     1   0.10910 283424.160000
    757    758     1   0.10910 283424.160000
    757    759     1   0.10910 283424.160000
    760    761     1   0.10969 276646.080000
    760    762     1   0.10969 276646.080000
    763    764     1   0.10969 276646.080000
    763    765     1   0.10969 276646.080000
    766    767     1   0.10969 276646.080000
    766    768     1   0.10969 276646.080000
    769    770     1   0.10969 276646.080000
    769    771     1   0.10969 276646.080000
    772    773     1   0.10969 276646.080000
    772    774     1   0.10969 276646.080000
    775    776     1   0.10969 276646.080000
    775    777     1   0.10969 276646.080000
    780    809     1   0.10304 312293.760000
    781    782     1   0.10910 283424.160000
    781    783     1   0.10910 283424.160000
    784    785     1   0.10910 283424.160000
    784    786     1   0.10910 283424.160000
    787    788     1   0.10910 283424.160000
    787    789     1   0.10910 283424.160000
    790    791     1   0.10969 276646.080000
    790    792     1   0.10969 276646.080000
    793    794     1   0.10969 276646.080000
    793    795     1   0.10969 276646.080000
    796    797     1   0.10969 276646.080000
    796    798     1   0.10969 276646.080000
    799    800     1   0.10969 276646.080000
    799    801     1   0.10969 276646.080000
    802    803     1   0.10969 276646.080000
    802    804     1   0.10969 276646.080000
    805    806     1   0.10969 276646.080000
    805    807     1   0.10969 276646.080000
    810    839     1   0.10304 312293.760000
    811    812     1   0.10910 283424.160000
    811    813     1   0.10910 283424.160000
    814    815     1   0.10910 283424.160000
    814    816     1   0.10910 283424.160000
    817    818     1   0.10910 283424.160000
    817    819     1   0.10910 283424.160000
    820    821     1   0.10969 276646.080000
    820    822     1   0.10969 276646.080000
    823    824     1   0.10969 276646.080000
    823    825     1   0.10969 276646.080000
    826    827     1   0.10969 276646.080000
    826    828     1   0.10969 276646.080000
    829    830     1   0.10969 276646.080000
    829    831     1   0.10969 276646.080000
    832    833     1   0.10969 276646.080000
    832    834     1   0.10969 276646.080000
    835    836     1   0.10969 276646.080000
    835    837     1   0.10969 276646.080000
    840    869     1   0.10304 312293.760000
    841    842     1   0.10910 283424.160000
    841    843     1   0.10910 283424.160000
    844    845     1   0.10910 283424.160000
    844    846     1   0.10910 283424.160000
    847    848     1   0.10910 283424.160000
    847    849     1   0.10910 283424.160000
    850    851     1   0.10969 276646.080000
    850    852     1   0.10969 276646.080000
    853    854     1   0.10969 276646.080000
    853    855     1   0.10969 276646.080000
    856    857     1   0.10969 276646.080000
    856    858     1   0.10969 276646.080000
    859    860     1   0.10969 276646.080000
    859    861     1   0.10969 276646.080000
    862    863     1   0.10969 276646.080000
    862    864     1   0.10969 276646.080000
    865    866     1   0.10969 276646.080000
    865    867     1   0.10969 276646.080000
    870    899     1   0.10304 312293.760000
    871    872     1   0.10910 283424.160000
    871    873     1   0.10910 283424.160000
    874    875     1   0.10910 283424.160000
    874    876     1   0.10910 283424.160000
    877    878     1   0.10910 283424.160000
    877    879     1   0.10910 283424.160000
    880    881     1   0.10969 276646.080000
    880    882     1   0.10969 276646.080000
    883    884     1   0.10969 276646.080000
    883    885     1   0.10969 276646.080000
    886    887     1   0.10969 276646.080000
    886    888     1   0.10969 276646.080000
    889    890     1   0.10969 276646.080000
    889    891     1   0.10969 276646.080000
    892    893     1   0.10969 276646.080000
    892    894     1   0.10969 276646.080000
    895    896     1   0.10969 276646.080000
    895    897     1   0.10969 276646.080000
    900    929     1   0.10304 312293.760000
    901    902     1   0.10910 283424.160000
    901    903     1   0.10910 283424.160000
    904    905     1   0.10910 283424.160000
    904    906     1   0.10910 283424.160000
    907    908     1   0.10910 283424.160000
    907    909     1   0.10910 283424.160000
    910    911     1   0.10969 276646.080000
    910    912     1   0.10969 276646.080000
    913    914     1   0.10969 276646.080000
    913    915     1   0.10969 276646.080000
    916    917     1   0.10969 276646.080000
    916    918     1   0.10969 276646.080000
    919    920     1   0.10969 276646.080000
    919    921     1   0.10969 276646.080000
    922    923     1   0.10969 276646.080000
    922    924     1   0.10969 276646.080000
    925    926     1   0.10969 276646.080000
    925    927     1   0.10969 276646.080000
    930    959     1   0.10304 312293.760000
    931    932     1   0.10910 283424.160000
    931    933     1   0.10910 283424.160000
    934    935     1   0.10910 283424.160000
    934    936     1   0.10910 283424.160000
    937    938     1   0.10910 283424.160000
    937    939     1   0.10910 283424.160000
    940    941     1   0.10969 276646.080000
    940    942     1   0.10969 276646.080000
    943    944     1   0.10969 276646.080000
    943    945     1   0.10969 276646.080000
    946    947     1   0.10969 276646.080000
    946    948     1   0.10969 276646.080000
    949    950     1   0.10969 276646.080000
    949    951     1   0.10969 276646.080000
    952    953     1   0.10969 276646.080000
    952    954     1   0.10969 276646.080000
    955    956     1   0.10969 276646.080000
    955    957     1   0.10969 276646.080000
    960    989     1   0.10304 312293.760000
    961    962     1   0.10910 283424.160000
    961    963     1   0.10910 283424.160000
    964    965     1   0.10910 283424.160000
    964    966     1   0.10910 283424.160000
    967    968     1   0.10910 283424.160000
    967    969     1   0.10910 283424.160000
    970    971     1   0.10969 276646.080000
    970    972     1   0.10969 276646.080000
    973    974     1   0.10969 276646.080000
    973    975     1   0.10969 276646.080000
    976    977     1   0.10969 276646.080000
    976    978     1   0.10969 276646.080000
    979    980     1   0.10969 276646.080000
    979    981     1   0.10969 276646.080000
    982    983     1   0.10969 276646.080000
    982    984     1   0.10969 276646.080000
    985    986     1   0.10969 276646.080000
    985    987     1   0.10969 276646.080000
    990   1019     1   0.10304 312293.760000
    991    992     1   0.10910 283424.160000
    991    993     1   0.10910 283424.160000
    994    995     1   0.10910 283424.160000
    994    996     1   0.10910 283424.160000
    997    998     1   0.10910 283424.160000
    997    999     1   0.10910 283424.160000
   1000   1001     1   0.10969 276646.080000
   1000   1002     1   0.10969 276646.080000
   1003   1004     1   0.10969 276646.080000
   1003   1005     1   0.10969 276646.080000
   1006   1007     1   0.10969 276646.080000
   1006   1008     1   0.10969 276646.080000
   1009   1010     1   0.10969 276646.080000
   1009   1011     1   0.10969 276646.080000
   1012   1013     1   0.10969 276646.080000
   1012   1014     1   0.10969 276646.080000
   1015   1016     1   0.10969 276646.080000
   1015   1017     1   0.10969 276646.080000
   1020   1049     1   0.10304 312293.760000
   1021   1022     1   0.10910 283424.160000
   1021   1023     1   0.10910 283424.160000
   1024   1025     1   0.10910 283424.160000
   1024   1026     1   0.10910 283424.160000
   1027   1028     1   0.10910 283424.160000
   1027   1029     1   0.10910 283424.160000
   1030   1031     1   0.10969 276646.080000
   1030   1032     1   0.10969 276646.080000
   1033   1034     1   0.10969 276646.080000
   1033   1035     1   0.10969 276646.080000
   1036   1037     1   0.10969 276646.080000
   1036   1038     1   0.10969 276646.080000
   1039   1040     1   0.10969 276646.080000
   1039   1041     1   0.10969 276646.080000
   1042   1043     1   0.10969 276646.080000
   1042   1044     1   0.10969 276646.080000
   1045   1046     1   0.10969 276646.080000
   1045   1047     1   0.10969 276646.080000
   1050   1079     1   0.10304 312293.760000
   1051   1052     1   0.10910 283424.160000
   1051   1053     1   0.10910 283424.160000
   1054   1055     1   0.10910 283424.160000
   1054   1056     1   0.10910 283424.160000
   1057   1058     1   0.10910 283424.160000
   1057   1059     1   0.10910 283424.160000
   1060   1061     1   0.10969 276646.080000
   1060   1062     1   0.10969 276646.080000
   1063   1064     1   0.10969 276646.080000
   1063   1065     1   0.10969 276646.080000
   1066   1067     1   0.10969 276646.080000
   1066   1068     1   0.10969 276646.080000
   1069   1070     1   0.10969 276646.080000
   1069   1071     1   0.10969 276646.080000
   1072   1073     1   0.10969 276646.080000
   1072   1074     1   0.10969 276646.080000
   1075   1076     1   0.10969 276646.080000
   1075   1077     1   0.10969 276646.080000
   1080   1109     1   0.10304 312293.760000
   1081   1082     1   0.10910 283424.160000
   1081   1083     1   0.10910 283424.160000
   1084   1085     1   0.10910 283424.160000
   1084   1086     1   0.10910 283424.160000
   1087   1088     1   0.10910 283424.160000
   1087   1089     1   0.10910 283424.160000
   1090   1091     1   0.10969 276646.080000
   1090   1092     1   0.10969 276646.080000
   1093   1094     1   0.10969 276646.080000
   1093   1095     1   0.10969 276646.080000
   1096   1097     1   0.10969 276646.080000
   1096   1098     1   0.10969 276646.080000
   1099   1100     1   0.10969 276646.080000
   1099   1101     1   0.10969 276646.080000
   1102   1103     1   0.10969 276646.080000
   1102   1104     1   0.10969 276646.080000
   1105   1106     1   0.10969 276646.080000
   1105   1107     1   0.10969 276646.080000
   1110   1139     1   0.10304 312293.760000
   1111   1112     1   0.10910 283424.160000
   1111   1113     1   0.10910 283424.160000
   1114   1115     1   0.10910 283424.160000
   1114   1116     1   0.10910 283424.160000
   1117   1118     1   0.10910 283424.160000
   1117   1119     1   0.10910 283424.160000
   1120   1121     1   0.10969 276646.080000
   1120   1122     1   0.10969 276646.080000
   1123   1124     1   0.10969 276646.080000
   1123   1125     1   0.10969 276646.080000
   1126   1127     1   0.10969 276646.080000
   1126   1128     1   0.10969 276646.080000
   1129   1130     1   0.10969 276646.080000
   1129   1131     1   0.10969 276646.080000
   1132   1133     1   0.10969 276646.080000
   1132   1134     1   0.10969 276646.080000
   1135   1136     1   0.10969 276646.080000
   1135   1137     1   0.10969 276646.080000
   1140   1169     1   0.10304 312293.760000
   1141   1142     1   0.10910 283424.160000
   1141   1143     1   0.10910 283424.160000
   1144   1145     1   0.10910 283424.160000
   1144   1146     1   0.10910 283424.160000
   1147   1148     1   0.10910 283424.160000
   1147   1149     1   0.10910 283424.160000
   1150   1151     1   0.10969 276646.080000
   1150   1152     1   0.10969 276646.080000
   1153   1154     1   0.10969 276646.080000
   1153   1155     1   0.10969 276646.080000
   1156   1157     1   0.10969 276646.080000
   1156   1158     1   0.10969 276646.080000
   1159   1160     1   0.10969 276646.080000
   1159   1161     1   0.10969 276646.080000
   1162   1163     1   0.10969 276646.080000
   1162   1164     1   0.10969 276646.080000
   1165   1166     1   0.10969 276646.080000
   1165   1167     1   0.10969 276646.080000
   1170   1199     1   0.10304 312293.760000
   1171   1172     1   0.10910 283424.160000
   1171   1173     1   0.10910 283424.160000
   1174   1175     1   0.10910 283424.160000
   1174   1176     1   0.10910 283424.160000
   1177   1178     1   0.10910 283424.160000
   1177   1179     1   0.10910 283424.160000
   1180   1181     1   0.10969 276646.080000
   1180   1182     1   0.10969 276646.080000
   1183   1184     1   0.10969 276646.080000
   1183   1185     1   0.10969 276646.080000
   1186   1187     1   0.10969 276646.080000
   1186   1188     1   0.10969 276646.080000
   1189   1190     1   0.10969 276646.080000
   1189   1191     1   0.10969 276646.080000
   1192   1193     1   0.10969 276646.080000
   1192   1194     1   0.10969 276646.080000
   1195   1196     1   0.10969 276646.080000
   1195   1197     1   0.10969 276646.080000
   1200   1229     1   0.10304 312293.760000
   1201   1202     1   0.10910 283424.160000
   1201   1203     1   0.10910 283424.160000
   1204   1205     1   0.10910 283424.160000
   1204   1206     1   0.10910 283424.160000
   1207   1208     1   0.10910 283424.160000
   1207   1209     1   0.10910 283424.160000
   1210   1211     1   0.10969 276646.080000
   1210   1212     1   0.10969 276646.080000
   1213   1214     1   0.10969 276646.080000
   1213   1215     1   0.10969 276646.080000
   1216   1217     1   0.10969 276646.080000
   1216   1218     1   0.10969 276646.080000
   1219   1220     1   0.10969 276646.080000
   1219   1221     1   0.10969 276646.080000
   1222   1223     1   0.10969 276646.080000
   1222   1224     1   0.10969 276646.080000
   1225   1226     1   0.10969 276646.080000
   1225   1227     1   0.10969 276646.080000
   1230   1259     1   0.10304 312293.760000
   1231   1232     1   0.10910 283424.160000
   1231   1233     1   0.10910 283424.160000
   1234   1235     1   0.10910 283424.160000
   1234   1236     1   0.10910 283424.160000
   1237   1238     1   0.10910 283424.160000
   1237   1239     1   0.10910 283424.160000
   1240   1241     1   0.10969 276646.080000
   1240   1242     1   0.10969 276646.080000
   1243   1244     1   0.10969 276646.080000
   1243   1245     1   0.10969 276646.080000
   1246   1247     1   0.10969 276646.080000
   1246   1248     1   0.10969 276646.080000
   1249   1250     1   0.10969 276646.080000
   1249   1251     1   0.10969 276646.080000
   1252   1253     1   0.10969 276646.080000
   1252   1254     1   0.10969 276646.080000
   1255   1256     1   0.10969 276646.080000
   1255   1257     1   0.10969 276646.080000
   1260   1289     1   0.10304 312293.760000
   1261   1262     1   0.10910 283424.160000
   1261   1263     1   0.10910 283424.160000
   1264   1265     1   0.10910 283424.160000
   1264   1266     1   0.10910 283424.160000
   1267   1268     1   0.10910 283424.160000
   1267   1269     1   0.10910 283424.160000
   1270   1271     1   0.10969 276646.080000
   1270   1272     1   0.10969 276646.080000
   1273   1274     1   0.10969 276646.080000
   1273   1275     1   0.10969 276646.080000
   1276   1277     1   0.10969 276646.080000
   1276   1278     1   0.10969 276646.080000
   1279   1280     1   0.10969 276646.080000
   1279   1281     1   0.10969 276646.080000
   1282   1283     1   0.10969 276646.080000
   1282   1284     1   0.10969 276646.080000
   1285   1286     1   0.10969 276646.080000
   1285   1287     1   0.10969 276646.080000
   1290   1319     1   0.10304 312293.760000
   1291   1292     1   0.10910 283424.160000
   1291   1293     1   0.10910 283424.160000
   1294   1295     1   0.10910 283424.160000
   1294   1296     1   0.10910 283424.160000
   1297   1298     1   0.10910 283424.160000
   1297   1299     1   0.10910 283424.160000
   1300   1301     1   0.10969 276646.080000
   1300   1302     1   0.10969 276646.080000
   1303   1304     1   0.10969 276646.080000
   1303   1305     1   0.10969 276646.080000
   1306   1307     1   0.10969 276646.080000
   1306   1308     1   0.10969 276646.080000
   1309   1310     1   0.10969 276646.080000
   1309   1311     1   0.10969 276646.080000
   1312   1313     1   0.10969 276646.080000
   1312   1314     1   0.10969 276646.080000
   1315   1316     1   0.10969 276646.080000
   1315   1317     1   0.10969 276646.080000
   1320   1349     1   0.10304 312293.760000
   1321   1322     1   0.10910 283424.160000
   1321   1323     1   0.10910 283424.160000
   1324   1325     1   0.10910 283424.160000
   1324   1326     1   0.10910 283424.160000
   1327   1328     1   0.10910 283424.160000
   1327   1329     1   0.10910 283424.160000
   1330   1331     1   0.10969 276646.080000
   1330   1332     1   0.10969 276646.080000
   1333   1334     1   0.10969 276646.080000
   1333   1335     1   0.10969 276646.080000
   1336   1337     1   0.10969 276646.080000
   1336   1338     1   0.10969 276646.080000
   1339   1340     1   0.10969 276646.080000
   1339   1341     1   0.10969 276646.080000
   1342   1343     1   0.10969 276646.080000
   1342   1344     1   0.10969 276646.080000
   1345   1346     1   0.10969 276646.080000
   1345   1347     1   0.10969 276646.080000
   1350   1379     1   0.10304 312293.760000
   1351   1352     1   0.10910 283424.160000
   1351   1353     1   0.10910 283424.160000
   1354   1355     1   0.10910 283424.160000
   1354   1356     1   0.10910 283424.160000
   1357   1358     1   0.10910 283424.160000
   1357   1359     1   0.10910 283424.160000
   1360   1361     1   0.10969 276646.080000
   1360   1362     1   0.10969 276646.080000
   1363   1364     1   0.10969 276646.080000
   1363   1365     1   0.10969 276646.080000
   1366   1367     1   0.10969 276646.080000
   1366   1368     1   0.10969 276646.080000
   1369   1370     1   0.10969 276646.080000
   1369   1371     1   0.10969 276646.080000
   1372   1373     1   0.10969 276646.080000
   1372   1374     1   0.10969 276646.080000
   1375   1376     1   0.10969 276646.080000
   1375   1377     1   0.10969 276646.080000
   1380   1409     1   0.10304 312293.760000
   1381   1382     1   0.10910 283424.160000
   1381   1383     1   0.10910 283424.160000
   1384   1385     1   0.10910 283424.160000
   1384   1386     1   0.10910 283424.160000
   1387   1388     1   0.10910 283424.160000
   1387   1389     1   0.10910 283424.160000
   1390   1391     1   0.10969 276646.080000
   1390   1392     1   0.10969 276646.080000
   1393   1394     1   0.10969 276646.080000
   1393   1395     1   0.10969 276646.080000
   1396   1397     1   0.10969 276646.080000
   1396   1398     1   0.10969 276646.080000
   1399   1400     1   0.10969 276646.080000
   1399   1401     1   0.10969 276646.080000
   1402   1403     1   0.10969 276646.080000
   1402   1404     1   0.10969 276646.080000
   1405   1406     1   0.10969 276646.080000
   1405   1407     1   0.10969 276646.080000
   1410   1439     1   0.10304 312293.760000
   1411   1412     1   0.10910 283424.160000
   1411   1413     1   0.10910 283424.160000
   1414   1415     1   0.10910 283424.160000
   1414   1416     1   0.10910 283424.160000
   1417   1418     1   0.10910 283424.160000
   1417   1419     1   0.10910 283424.160000
   1420   1421     1   0.10969 276646.080000
   1420   1422     1   0.10969 276646.080000
   1423   1424     1   0.10969 276646.080000
   1423   1425     1   0.10969 276646.080000
   1426   1427     1   0.10969 276646.080000
   1426   1428     1   0.10969 276646.080000
   1429   1430     1   0.10969 276646.080000
   1429   1431     1   0.10969 276646.080000
   1432   1433     1   0.10969 276646.080000
   1432   1434     1   0.10969 276646.080000
   1435   1436     1   0.10969 276646.080000
   1435   1437     1   0.10969 276646.080000
   1440   1469     1   0.10304 312293.760000
   1441   1442     1   0.10910 283424.160000
   1441   1443     1   0.10910 283424.160000
   1444   1445     1   0.10910 283424.160000
   1444   1446     1   0.10910 283424.160000
   1447   1448     1   0.10910 283424.160000
   1447   1449     1   0.10910 283424.160000
   1450   1451     1   0.10969 276646.080000
   1450   1452     1   0.10969 276646.080000
   1453   1454     1   0.10969 276646.080000
   1453   1455     1   0.10969 276646.080000
   1456   1457     1   0.10969 276646.080000
   1456   1458     1   0.10969 276646.080000
   1459   1460     1   0.10969 276646.080000
   1459   1461     1   0.10969 276646.080000
   1462   1463     1   0.10969 276646.080000
   1462   1464     1   0.10969 276646.080000
   1465   1466     1   0.10969 276646.080000
   1465   1467     1   0.10969 276646.080000
   1470   1499     1   0.10304 312293.760000
   1471   1472     1   0.10910 283424.160000
   1471   1473     1   0.10910 283424.160000
   1474   1475     1   0.10910 283424.160000
   1474   1476     1   0.10910 283424.160000
   1477   1478     1   0.10910 283424.160000
   1477   1479     1   0.10910 283424.160000
   1480   1481     1   0.10969 276646.080000
   1480   1482     1   0.10969 276646.080000
   1483   1484     1   0.10969 276646.080000
   1483   1485     1   0.10969 276646.080000
   1486   1487     1   0.10969 276646.080000
   1486   1488     1   0.10969 276646.080000
   1489   1490     1   0.10969 276646.080000
   1489   1491     1   0.10969 276646.080000
   1492   1493     1   0.10969 276646.080000
   1492   1494     1   0.10969 276646.080000
   1495   1496     1   0.10969 276646.080000
   1495   1497     1   0.10969 276646.080000
   1500   1529     1   0.10304 312293.760000
   1501   1502     1   0.10910 283424.160000
   1501   1503     1   0.10910 283424.160000
   1504   1505     1   0.10910 283424.160000
   1504   1506     1   0.10910 283424.160000
   1507   1508     1   0.10910 283424.160000
   1507   1509     1   0.10910 283424.160000
   1510   1511     1   0.10969 276646.080000
   1510   1512     1   0.10969 276646.080000
   1513   1514     1   0.10969 276646.080000
   1513   1515     1   0.10969 276646.080000
   1516   1517     1   0.10969 276646.080000
   1516   1518     1   0.10969 276646.080000
   1519   1520     1   0.10969 276646.080000
   1519   1521     1   0.10969 276646.080000
   1522   1523     1   0.10969 276646.080000
   1522   1524     1   0.10969 276646.080000
   1525   1526     1   0.10969 276646.080000
   1525   1527     1   0.10969 276646.080000
   1530   1559     1   0.10304 312293.760000
   1531   1532     1   0.10910 283424.160000
   1531   1533     1   0.10910 283424.160000
   1534   1535     1   0.10910 283424.160000
   1534   1536     1   0.10910 283424.160000
   1537   1538     1   0.10910 283424.160000
   1537   1539     1   0.10910 283424.160000
   1540   1541     1   0.10969 276646.080000
   1540   1542     1   0.10969 276646.080000
   1543   1544     1   0.10969 276646.080000
   1543   1545     1   0.10969 276646.080000
   1546   1547     1   0.10969 276646.080000
   1546   1548     1   0.10969 276646.080000
   1549   1550     1   0.10969 276646.080000
   1549   1551     1   0.10969 276646.080000
   1552   1553     1   0.10969 276646.080000
   1552   1554     1   0.10969 276646.080000
   1555   1556     1   0.10969 276646.080000
   1555   1557     1   0.10969 276646.080000
   1560   1589     1   0.10304 312293.760000
   1561   1562     1   0.10910 283424.160000
   1561   1563     1   0.10910 283424.160000
   1564   1565     1   0.10910 283424.160000
   1564   1566     1   0.10910 283424.160000
   1567   1568     1   0.10910 283424.160000
   1567   1569     1   0.10910 283424.160000
   1570   1571     1   0.10969 276646.080000
   1570   1572     1   0.10969 276646.080000
   1573   1574     1   0.10969 276646.080000
   1573   1575     1   0.10969 276646.080000
   1576   1577     1   0.10969 276646.080000
   1576   1578     1   0.10969 276646.080000
   1579   1580     1   0.10969 276646.080000
   1579   1581     1   0.10969 276646.080000
   1582   1583     1   0.10969 276646.080000
   1582   1584     1   0.10969 276646.080000
   1585   1586     1   0.10969 276646.080000
   1585   1587     1   0.10969 276646.080000
   1590   1619     1   0.10304 312293.760000
   1591   1592     1   0.10910 283424.160000
   1591   1593     1   0.10910 283424.160000
   1594   1595     1   0.10910 283424.160000
   1594   1596     1   0.10910 283424.160000
   1597   1598     1   0.10910 283424.160000
   1597   1599     1   0.10910 283424.160000
   1600   1601     1   0.10969 276646.080000
   1600   1602     1   0.10969 276646.080000
   1603   1604     1   0.10969 276646.080000
   1603   1605     1   0.10969 276646.080000
   1606   1607     1   0.10969 276646.080000
   1606   1608     1   0.10969 276646.080000
   1609   1610     1   0.10969 276646.080000
   1609   1611     1   0.10969 276646.080000
   1612   1613     1   0.10969 276646.080000
   1612   1614     1   0.10969 276646.080000
   1615   1616     1   0.10969 276646.080000
   1615   1617     1   0.10969 276646.080000
   1620   1649     1   0.10304 312293.760000
   1621   1622     1   0.10910 283424.160000
   1621   1623     1   0.10910 283424.160000
   1624   1625     1   0.10910 283424.160000
   1624   1626     1   0.10910 283424.160000
   1627   1628     1   0.10910 283424.160000
   1627   1629     1   0.10910 283424.160000
   1630   1631     1   0.10969 276646.080000
   1630   1632     1   0.10969 276646.080000
   1633   1634     1   0.10969 276646.080000
   1633   1635     1   0.10969 276646.080000
   1636   1637     1   0.10969 276646.080000
   1636   1638     1   0.10969 276646.080000
   1639   1640     1   0.10969 276646.080000
   1639   1641     1   0.10969 276646.080000
   1642   1643     1   0.10969 276646.080000
   1642   1644     1   0.10969 276646.080000
   1645   1646     1   0.10969 276646.080000
   1645   1647     1   0.10969 276646.080000
   1650   1679     1   0.10304 312293.760000
   1651   1652     1   0.10910 283424.160000
   1651   1653     1   0.10910 283424.160000
   1654   1655     1   0.10910 283424.160000
   1654   1656     1   0.10910 283424.160000
   1657   1658     1   0.10910 283424.160000
   1657   1659     1   0.10910 283424.160000
   1660   1661     1   0.10969 276646.080000
   1660   1662     1   0.10969 276646.080000
   1663   1664     1   0.10969 276646.080000
   1663   1665     1   0.10969 276646.080000
   1666   1667     1   0.10969 276646.080000
   1666   1668     1   0.10969 276646.080000
   1669   1670     1   0.10969 276646.080000
   1669   1671     1   0.10969 276646.080000
   1672   1673     1   0.10969 276646.080000
   1672   1674     1   0.10969 276646.080000
   1675   1676     1   0.10969 276646.080000
   1675   1677     1   0.10969 276646.080000
   1680   1709     1   0.10304 312293.760000
   1681   1682     1   0.10910 283424.160000
   1681   1683     1   0.10910 283424.160000
   1684   1685     1   0.10910 283424.160000
   1684   1686     1   0.10910 283424.160000
   1687   1688     1   0.10910 283424.160000
   1687   1689     1   0.10910 283424.160000
   1690   1691     1   0.10969 276646.080000
   1690   1692     1   0.10969 276646.080000
   1693   1694     1   0.10969 276646.080000
   1693   1695     1   0.10969 276646.080000
   1696   1697     1   0.10969 276646.080000
   1696   1698     1   0.10969 276646.080000
   1699   1700     1   0.10969 276646.080000
   1699   1701     1   0.10969 276646.080000
   1702   1703     1   0.10969 276646.080000
   1702   1704     1   0.10969 276646.080000
   1705   1706     1   0.10969 276646.080000
   1705   1707     1   0.10969 276646.080000
   1710   1739     1   0.10304 312293.760000
   1711   1712     1   0.10910 283424.160000
   1711   1713     1   0.10910 283424.160000
   1714   1715     1   0.10910 283424.160000
   1714   1716     1   0.10910 283424.160000
   1717   1718     1   0.10910 283424.160000
   1717   1719     1   0.10910 283424.160000
   1720   1721     1   0.10969 276646.080000
   1720   1722     1   0.10969 276646.080000
   1723   1724     1   0.10969 276646.080000
   1723   1725     1   0.10969 276646.080000
   1726   1727     1   0.10969 276646.080000
   1726   1728     1   0.10969 276646.080000
   1729   1730     1   0.10969 276646.080000
   1729   1731     1   0.10969 276646.080000
   1732   1733     1   0.10969 276646.080000
   1732   1734     1   0.10969 276646.080000
   1735   1736     1   0.10969 276646.080000
   1735   1737     1   0.10969 276646.080000
   1740   1769     1   0.10304 312293.760000
   1741   1742     1   0.10910 283424.160000
   1741   1743     1   0.10910 283424.160000
   1744   1745     1   0.10910 283424.160000
   1744   1746     1   0.10910 283424.160000
   1747   1748     1   0.10910 283424.160000
   1747   1749     1   0.10910 283424.160000
   1750   1751     1   0.10969 276646.080000
   1750   1752     1   0.10969 276646.080000
   1753   1754     1   0.10969 276646.080000
   1753   1755     1   0.10969 276646.080000
   1756   1757     1   0.10969 276646.080000
   1756   1758     1   0.10969 276646.080000
   1759   1760     1   0.10969 276646.080000
   1759   1761     1   0.10969 276646.080000
   1762   1763     1   0.10969 276646.080000
   1762   1764     1   0.10969 276646.080000
   1765   1766     1   0.10969 276646.080000
   1765   1767     1   0.10969 276646.080000
   1770   1799     1   0.10304 312293.760000
   1771   1772     1   0.10910 283424.160000
   1771   1773     1   0.10910 283424.160000
   1774   1775     1   0.10910 283424.160000
   1774   1776     1   0.10910 283424.160000
   1777   1778     1   0.10910 283424.160000
   1777   1779     1   0.10910 283424.160000
   1780   1781     1   0.10969 276646.080000
   1780   1782     1   0.10969 276646.080000
   1783   1784     1   0.10969 276646.080000
   1783   1785     1   0.10969 276646.080000
   1786   1787     1   0.10969 276646.080000
   1786   1788     1   0.10969 276646.080000
   1789   1790     1   0.10969 276646.080000
   1789   1791     1   0.10969 276646.080000
   1792   1793     1   0.10969 276646.080000
   1792   1794     1   0.10969 276646.080000
   1795   1796     1   0.10969 276646.080000
   1795   1797     1   0.10969 276646.080000
   1800   1829     1   0.10304 312293.760000
   1801   1802     1   0.10910 283424.160000
   1801   1803     1   0.10910 283424.160000
   1804   1805     1   0.10910 283424.160000
   1804   1806     1   0.10910 283424.160000
   1807   1808     1   0.10910 283424.160000
   1807   1809     1   0.10910 283424.160000
   1810   1811     1   0.10969 276646.080000
   1810   1812     1   0.10969 276646.080000
   1813   1814     1   0.10969 276646.080000
   1813   1815     1   0.10969 276646.080000
   1816   1817     1   0.10969 276646.080000
   1816   1818     1   0.10969 276646.080000
   1819   1820     1   0.10969 276646.080000
   1819   1821     1   0.10969 276646.080000
   1822   1823     1   0.10969 276646.080000
   1822   1824     1   0.10969 276646.080000
   1825   1826     1   0.10969 276646.080000
   1825   1827     1   0.10969 276646.080000
   1830   1859     1   0.10304 312293.760000
   1831   1832     1   0.10910 283424.160000
   1831   1833     1   0.10910 283424.160000
   1834   1835     1   0.10910 283424.160000
   1834   1836     1   0.10910 283424.160000
   1837   1838     1   0.10910 283424.160000
   1837   1839     1   0.10910 283424.160000
   1840   1841     1   0.10969 276646.080000
   1840   1842     1   0.10969 276646.080000
   1843   1844     1   0.10969 276646.080000
   1843   1845     1   0.10969 276646.080000
   1846   1847     1   0.10969 276646.080000
   1846   1848     1   0.10969 276646.080000
   1849   1850     1   0.10969 276646.080000
   1849   1851     1   0.10969 276646.080000
   1852   1853     1   0.10969 276646.080000
   1852   1854     1   0.10969 276646.080000
   1855   1856     1   0.10969 276646.080000
   1855   1857     1   0.10969 276646.080000
   1860   1889     1   0.10304 312293.760000
   1861   1862     1   0.10910 283424.160000
   1861   1863     1   0.10910 283424.160000
   1864   1865     1   0.10910 283424.160000
   1864   1866     1   0.10910 283424.160000
   1867   1868     1   0.10910 283424.160000
   1867   1869     1   0.10910 283424.160000
   1870   1871     1   0.10969 276646.080000
   1870   1872     1   0.10969 276646.080000
   1873   1874     1   0.10969 276646.080000
   1873   1875     1   0.10969 276646.080000
   1876   1877     1   0.10969 276646.080000
   1876   1878     1   0.10969 276646.080000
   1879   1880     1   0.10969 276646.080000
   1879   1881     1   0.10969 276646.080000
   1882   1883     1   0.10969 276646.080000
   1882   1884     1   0.10969 276646.080000
   1885   1886     1   0.10969 276646.080000
   1885   1887     1   0.10969 276646.080000
   1890   1919     1   0.10304 312293.760000
   1891   1892     1   0.10910 283424.160000
   1891   1893     1   0.10910 283424.160000
   1894   1895     1   0.10910 283424.160000
   1894   1896     1   0.10910 283424.160000
   1897   1898     1   0.10910 283424.160000
   1897   1899     1   0.10910 283424.160000
   1900   1901     1   0.10969 276646.080000
   1900   1902     1   0.10969 276646.080000
   1903   1904     1   0.10969 276646.080000
   1903   1905     1   0.10969 276646.080000
   1906   1907     1   0.10969 276646.080000
   1906   1908     1   0.10969 276646.080000
   1909   1910     1   0.10969 276646.080000
   1909   1911     1   0.10969 276646.080000
   1912   1913     1   0.10969 276646.080000
   1912   1914     1   0.10969 276646.080000
   1915   1916     1   0.10969 276646.080000
   1915   1917     1   0.10969 276646.080000
   1920   1949     1   0.10304 312293.760000
   1921   1922     1   0.10910 283424.160000
   1921   1923     1   0.10910 283424.160000
   1924   1925     1   0.10910 283424.160000
   1924   1926     1   0.10910 283424.160000
   1927   1928     1   0.10910 283424.160000
   1927   1929     1   0.10910 283424.160000
   1930   1931     1   0.10969 276646.080000
   1930   1932     1   0.10969 276646.080000
   1933   1934     1   0.10969 276646.080000
   1933   1935     1   0.10969 276646.080000
   1936   1937     1   0.10969 276646.080000
   1936   1938     1   0.10969 276646.080000
   1939   1940     1   0.10969 276646.080000
   1939   1941     1   0.10969 276646.080000
   1942   1943     1   0.10969 276646.080000
   1942   1944     1   0.10969 276646.080000
   1945   1946     1   0.10969 276646.080000
   1945   1947     1   0.10969 276646.080000
   1950   1979     1   0.10304 312293.760000
   1951   1952     1   0.10910 283424.160000
   1951   1953     1   0.10910 283424.160000
   1954   1955     1   0.10910 283424.160000
   1954   1956     1   0.10910 283424.160000
   1957   1958     1   0.10910 283424.160000
   1957   1959     1   0.10910 283424.160000
   1960   1961     1   0.10969 276646.080000
   1960   1962     1   0.10969 276646.080000
   1963   1964     1   0.10969 276646.080000
   1963   1965     1   0.10969 276646.080000
   1966   1967     1   0.10969 276646.080000
   1966   1968     1   0.10969 276646.080000
   1969   1970     1   0.10969 276646.080000
   1969   1971     1   0.10969 276646.080000
   1972   1973     1   0.10969 276646.080000
   1972   1974     1   0.10969 276646.080000
   1975   1976     1   0.10969 276646.080000
   1975   1977     1   0.10969 276646.080000
   1980   2009     1   0.10304 312293.760000
   1981   1982     1   0.10910 283424.160000
   1981   1983     1   0.10910 283424.160000
   1984   1985     1   0.10910 283424.160000
   1984   1986     1   0.10910 283424.160000
   1987   1988     1   0.10910 283424.160000
   1987   1989     1   0.10910 283424.160000
   1990   1991     1   0.10969 276646.080000
   1990   1992     1   0.10969 276646.080000
   1993   1994     1   0.10969 276646.080000
   1993   1995     1   0.10969 276646.080000
   1996   1997     1   0.10969 276646.080000
   1996   1998     1   0.10969 276646.080000
   1999   2000     1   0.10969 276646.080000
   1999   2001     1   0.10969 276646.080000
   2002   2003     1   0.10969 276646.080000
   2002   2004     1   0.10969 276646.080000
   2005   2006     1   0.10969 276646.080000
   2005   2007     1   0.10969 276646.080000
   2010   2039     1   0.10304 312293.760000
   2011   2012     1   0.10910 283424.160000
   2011   2013     1   0.10910 283424.160000
   2014   2015     1   0.10910 283424.160000
   2014   2016     1   0.10910 283424.160000
   2017   2018     1   0.10910 283424.160000
   2017   2019     1   0.10910 283424.160000
   2020   2021     1   0.10969 276646.080000
   2020   2022     1   0.10969 276646.080000
   2023   2024     1   0.10969 276646.080000
   2023   2025     1   0.10969 276646.080000
   2026   2027     1   0.10969 276646.080000
   2026   2028     1   0.10969 276646.080000
   2029   2030     1   0.10969 276646.080000
   2029   2031     1   0.10969 276646.080000
   2032   2033     1   0.10969 276646.080000
   2032   2034     1   0.10969 276646.080000
   2035   2036     1   0.10969 276646.080000
   2035   2037     1   0.10969 276646.080000
   2040   2069     1   0.10304 312293.760000
   2041   2042     1   0.10910 283424.160000
   2041   2043     1   0.10910 283424.160000
   2044   2045     1   0.10910 283424.160000
   2044   2046     1   0.10910 283424.160000
   2047   2048     1   0.10910 283424.160000
   2047   2049     1   0.10910 283424.160000
   2050   2051     1   0.10969 276646.080000
   2050   2052     1   0.10969 276646.080000
   2053   2054     1   0.10969 276646.080000
   2053   2055     1   0.10969 276646.080000
   2056   2057     1   0.10969 276646.080000
   2056   2058     1   0.10969 276646.080000
   2059   2060     1   0.10969 276646.080000
   2059   2061     1   0.10969 276646.080000
   2062   2063     1   0.10969 276646.080000
   2062   2064     1   0.10969 276646.080000
   2065   2066     1   0.10969 276646.080000
   2065   2067     1   0.10969 276646.080000
   2070   2099     1   0.10304 312293.760000
   2071   2072     1   0.10910 283424.160000
   2071   2073     1   0.10910 283424.160000
   2074   2075     1   0.10910 283424.160000
   2074   2076     1   0.10910 283424.160000
   2077   2078     1   0.10910 283424.160000
   2077   2079     1   0.10910 283424.160000
   2080   2081     1   0.10969 276646.080000
   2080   2082     1   0.10969 276646.080000
   2083   2084     1   0.10969 276646.080000
   2083   2085     1   0.10969 276646.080000
   2086   2087     1   0.10969 276646.080000
   2086   2088     1   0.10969 276646.080000
   2089   2090     1   0.10969 276646.080000
   2089   2091     1   0.10969 276646.080000
   2092   2093     1   0.10969 276646.080000
   2092   2094     1   0.10969 276646.080000
   2095   2096     1   0.10969 276646.080000
   2095   2097     1   0.10969 276646.080000
   2100   2129     1   0.10304 312293.760000
   2101   2102     1   0.10910 283424.160000
   2101   2103     1   0.10910 283424.160000
   2104   2105     1   0.10910 283424.160000
   2104   2106     1   0.10910 283424.160000
   2107   2108     1   0.10910 283424.160000
   2107   2109     1   0.10910 283424.160000
   2110   2111     1   0.10969 276646.080000
   2110   2112     1   0.10969 276646.080000
   2113   2114     1   0.10969 276646.080000
   2113   2115     1   0.10969 276646.080000
   2116   2117     1   0.10969 276646.080000
   2116   2118     1   0.10969 276646.080000
   2119   2120     1   0.10969 276646.080000
   2119   2121     1   0.10969 276646.080000
   2122   2123     1   0.10969 276646.080000
   2122   2124     1   0.10969 276646.080000
   2125   2126     1   0.10969 276646.080000
   2125   2127     1   0.10969 276646.080000
   2130   2159     1   0.10304 312293.760000
   2131   2132     1   0.10910 283424.160000
   2131   2133     1   0.10910 283424.160000
   2134   2135     1   0.10910 283424.160000
   2134   2136     1   0.10910 283424.160000
   2137   2138     1   0.10910 283424.160000
   2137   2139     1   0.10910 283424.160000
   2140   2141     1   0.10969 276646.080000
   2140   2142     1   0.10969 276646.080000
   2143   2144     1   0.10969 276646.080000
   2143   2145     1   0.10969 276646.080000
   2146   2147     1   0.10969 276646.080000
   2146   2148     1   0.10969 276646.080000
   2149   2150     1   0.10969 276646.080000
   2149   2151     1   0.10969 276646.080000
   2152   2153     1   0.10969 276646.080000
   2152   2154     1   0.10969 276646.080000
   2155   2156     1   0.10969 276646.080000
   2155   2157     1   0.10969 276646.080000
   2160   2189     1   0.10304 312293.760000
   2161   2162     1   0.10910 283424.160000
   2161   2163     1   0.10910 283424.160000
   2164   2165     1   0.10910 283424.160000
   2164   2166     1   0.10910 283424.160000
   2167   2168     1   0.10910 283424.160000
   2167   2169     1   0.10910 283424.160000
   2170   2171     1   0.10969 276646.080000
   2170   2172     1   0.10969 276646.080000
   2173   2174     1   0.10969 276646.080000
   2173   2175     1   0.10969 276646.080000
   2176   2177     1   0.10969 276646.080000
   2176   2178     1   0.10969 276646.080000
   2179   2180     1   0.10969 276646.080000
   2179   2181     1   0.10969 276646.080000
   2182   2183     1   0.10969 276646.080000
   2182   2184     1   0.10969 276646.080000
   2185   2186     1   0.10969 276646.080000
   2185   2187     1   0.10969 276646.080000
   2190   2219     1   0.10304 312293.760000
   2191   2192     1   0.10910 283424.160000
   2191   2193     1   0.10910 283424.160000
   2194   2195     1   0.10910 283424.160000
   2194   2196     1   0.10910 283424.160000
   2197   2198     1   0.10910 283424.160000
   2197   2199     1   0.10910 283424.160000
   2200   2201     1   0.10969 276646.080000
   2200   2202     1   0.10969 276646.080000
   2203   2204     1   0.10969 276646.080000
   2203   2205     1   0.10969 276646.080000
   2206   2207     1   0.10969 276646.080000
   2206   2208     1   0.10969 276646.080000
   2209   2210     1   0.10969 276646.080000
   2209   2211     1   0.10969 276646.080000
   2212   2213     1   0.10969 276646.080000
   2212   2214     1   0.10969 276646.080000
   2215   2216     1   0.10969 276646.080000
   2215   2217     1   0.10969 276646.080000
   2220   2249     1   0.10304 312293.760000
   2221   2222     1   0.10910 283424.160000
   2221   2223     1   0.10910 283424.160000
   2224   2225     1   0.10910 283424.160000
   2224   2226     1   0.10910 283424.160000
   2227   2228     1   0.10910 283424.160000
   2227   2229     1   0.10910 283424.160000
   2230   2231     1   0.10969 276646.080000
   2230   2232     1   0.10969 276646.080000
   2233   2234     1   0.10969 276646.080000
   2233   2235     1   0.10969 276646.080000
   2236   2237     1   0.10969 276646.080000
   2236   2238     1   0.10969 276646.080000
   2239   2240     1   0.10969 276646.080000
   2239   2241     1   0.10969 276646.080000
   2242   2243     1   0.10969 276646.080000
   2242   2244     1   0.10969 276646.080000
   2245   2246     1   0.10969 276646.080000
   2245   2247     1   0.10969 276646.080000
   2250   2279     1   0.10304 312293.760000
   2251   2252     1   0.10910 283424.160000
   2251   2253     1   0.10910 283424.160000
   2254   2255     1   0.10910 283424.160000
   2254   2256     1   0.10910 283424.160000
   2257   2258     1   0.10910 283424.160000
   2257   2259     1   0.10910 283424.160000
   2260   2261     1   0.10969 276646.080000
   2260   2262     1   0.10969 276646.080000
   2263   2264     1   0.10969 276646.080000
   2263   2265     1   0.10969 276646.080000
   2266   2267     1   0.10969 276646.080000
   2266   2268     1   0.10969 276646.080000
   2269   2270     1   0.10969 276646.080000
   2269   2271     1   0.10969 276646.080000
   2272   2273     1   0.10969 276646.080000
   2272   2274     1   0.10969 276646.080000
   2275   2276     1   0.10969 276646.080000
   2275   2277     1   0.10969 276646.080000
   2280   2309     1   0.10304 312293.760000
   2281   2282     1   0.10910 283424.160000
   2281   2283     1   0.10910 283424.160000
   2284   2285     1   0.10910 283424.160000
   2284   2286     1   0.10910 283424.160000
   2287   2288     1   0.10910 283424.160000
   2287   2289     1   0.10910 283424.160000
   2290   2291     1   0.10969 276646.080000
   2290   2292     1   0.10969 276646.080000
   2293   2294     1   0.10969 276646.080000
   2293   2295     1   0.10969 276646.080000
   2296   2297     1   0.10969 276646.080000
   2296   2298     1   0.10969 276646.080000
   2299   2300     1   0.10969 276646.080000
   2299   2301     1   0.10969 276646.080000
   2302   2303     1   0.10969 276646.080000
   2302   2304     1   0.10969 276646.080000
   2305   2306     1   0.10969 276646.080000
   2305   2307     1   0.10969 276646.080000
   2310   2339     1   0.10304 312293.760000
   2311   2312     1   0.10910 283424.160000
   2311   2313     1   0.10910 283424.160000
   2314   2315     1   0.10910 283424.160000
   2314   2316     1   0.10910 283424.160000
   2317   2318     1   0.10910 283424.160000
   2317   2319     1   0.10910 283424.160000
   2320   2321     1   0.10969 276646.080000
   2320   2322     1   0.10969 276646.080000
   2323   2324     1   0.10969 276646.080000
   2323   2325     1   0.10969 276646.080000
   2326   2327     1   0.10969 276646.080000
   2326   2328     1   0.10969 276646.080000
   2329   2330     1   0.10969 276646.080000
   2329   2331     1   0.10969 276646.080000
   2332   2333     1   0.10969 276646.080000
   2332   2334     1   0.10969 276646.080000
   2335   2336     1   0.10969 276646.080000
   2335   2337     1   0.10969 276646.080000
   2340   2369     1   0.10304 312293.760000
   2341   2342     1   0.10910 283424.160000
   2341   2343     1   0.10910 283424.160000
   2344   2345     1   0.10910 283424.160000
   2344   2346     1   0.10910 283424.160000
   2347   2348     1   0.10910 283424.160000
   2347   2349     1   0.10910 283424.160000
   2350   2351     1   0.10969 276646.080000
   2350   2352     1   0.10969 276646.080000
   2353   2354     1   0.10969 276646.080000
   2353   2355     1   0.10969 276646.080000
   2356   2357     1   0.10969 276646.080000
   2356   2358     1   0.10969 276646.080000
   2359   2360     1   0.10969 276646.080000
   2359   2361     1   0.10969 276646.080000
   2362   2363     1   0.10969 276646.080000
   2362   2364     1   0.10969 276646.080000
   2365   2366     1   0.10969 276646.080000
   2365   2367     1   0.10969 276646.080000
   2370   2399     1   0.10304 312293.760000
   2371   2372     1   0.10910 283424.160000
   2371   2373     1   0.10910 283424.160000
   2374   2375     1   0.10910 283424.160000
   2374   2376     1   0.10910 283424.160000
   2377   2378     1   0.10910 283424.160000
   2377   2379     1   0.10910 283424.160000
   2380   2381     1   0.10969 276646.080000
   2380   2382     1   0.10969 276646.080000
   2383   2384     1   0.10969 276646.080000
   2383   2385     1   0.10969 276646.080000
   2386   2387     1   0.10969 276646.080000
   2386   2388     1   0.10969 276646.080000
   2389   2390     1   0.10969 276646.080000
   2389   2391     1   0.10969 276646.080000
   2392   2393     1   0.10969 276646.080000
   2392   2394     1   0.10969 276646.080000
   2395   2396     1   0.10969 276646.080000
   2395   2397     1   0.10969 276646.080000
   2400   2429     1   0.10304 312293.760000
   2401   2402     1   0.10910 283424.160000
   2401   2403     1   0.10910 283424.160000
   2404   2405     1   0.10910 283424.160000
   2404   2406     1   0.10910 283424.160000
   2407   2408     1   0.10910 283424.160000
   2407   2409     1   0.10910 283424.160000
   2410   2411     1   0.10969 276646.080000
   2410   2412     1   0.10969 276646.080000
   2413   2414     1   0.10969 276646.080000
   2413   2415     1   0.10969 276646.080000
   2416   2417     1   0.10969 276646.080000
   2416   2418     1   0.10969 276646.080000
   2419   2420     1   0.10969 276646.080000
   2419   2421     1   0.10969 276646.080000
   2422   2423     1   0.10969 276646.080000
   2422   2424     1   0.10969 276646.080000
   2425   2426     1   0.10969 276646.080000
   2425   2427     1   0.10969 276646.080000
   2430   2459     1   0.10304 312293.760000
   2431   2432     1   0.10910 283424.160000
   2431   2433     1   0.10910 283424.160000
   2434   2435     1   0.10910 283424.160000
   2434   2436     1   0.10910 283424.160000
   2437   2438     1   0.10910 283424.160000
   2437   2439     1   0.10910 283424.160000
   2440   2441     1   0.10969 276646.080000
   2440   2442     1   0.10969 276646.080000
   2443   2444     1   0.10969 276646.080000
   2443   2445     1   0.10969 276646.080000
   2446   2447     1   0.10969 276646.080000
   2446   2448     1   0.10969 276646.080000
   2449   2450     1   0.10969 276646.080000
   2449   2451     1   0.10969 276646.080000
   2452   2453     1   0.10969 276646.080000
   2452   2454     1   0.10969 276646.080000
   2455   2456     1   0.10969 276646.080000
   2455   2457     1   0.10969 276646.080000
   2460   2489     1   0.10304 312293.760000
   2461   2462     1   0.10910 283424.160000
   2461   2463     1   0.10910 283424.160000
   2464   2465     1   0.10910 283424.160000
   2464   2466     1   0.10910 283424.160000
   2467   2468     1   0.10910 283424.160000
   2467   2469     1   0.10910 283424.160000
   2470   2471     1   0.10969 276646.080000
   2470   2472     1   0.10969 276646.080000
   2473   2474     1   0.10969 276646.080000
   2473   2475     1   0.10969 276646.080000
   2476   2477     1   0.10969 276646.080000
   2476   2478     1   0.10969 276646.080000
   2479   2480     1   0.10969 276646.080000
   2479   2481     1   0.10969 276646.080000
   2482   2483     1   0.10969 276646.080000
   2482   2484     1   0.10969 276646.080000
   2485   2486     1   0.10969 276646.080000
   2485   2487     1   0.10969 276646.080000
   2490   2519     1   0.10304 312293.760000
   2491   2492     1   0.10910 283424.160000
   2491   2493     1   0.10910 283424.160000
   2494   2495     1   0.10910 283424.160000
   2494   2496     1   0.10910 283424.160000
   2497   2498     1   0.10910 283424.160000
   2497   2499     1   0.10910 283424.160000
   2500   2501     1   0.10969 276646.080000
   2500   2502     1   0.10969 276646.080000
   2503   2504     1   0.10969 276646.080000
   2503   2505     1   0.10969 276646.080000
   2506   2507     1   0.10969 276646.080000
   2506   2508     1   0.10969 276646.080000
   2509   2510     1   0.10969 276646.080000
   2509   2511     1   0.10969 276646.080000
   2512   2513     1   0.10969 276646.080000
   2512   2514     1   0.10969 276646.080000
   2515   2516     1   0.10969 276646.080000
   2515   2517     1   0.10969 276646.080000
   2520   2549     1   0.10304 312293.760000
   2521   2522     1   0.10910 283424.160000
   2521   2523     1   0.10910 283424.160000
   2524   2525     1   0.10910 283424.160000
   2524   2526     1   0.10910 283424.160000
   2527   2528     1   0.10910 283424.160000
   2527   2529     1   0.10910 283424.160000
   2530   2531     1   0.10969 276646.080000
   2530   2532     1   0.10969 276646.080000
   2533   2534     1   0.10969 276646.080000
   2533   2535     1   0.10969 276646.080000
   2536   2537     1   0.10969 276646.080000
   2536   2538     1   0.10969 276646.080000
   2539   2540     1   0.10969 276646.080000
   2539   2541     1   0.10969 276646.080000
   2542   2543     1   0.10969 276646.080000
   2542   2544     1   0.10969 276646.080000
   2545   2546     1   0.10969 276646.080000
   2545   2547     1   0.10969 276646.080000
   2550   2579     1   0.10304 312293.760000
   2551   2552     1   0.10910 283424.160000
   2551   2553     1   0.10910 283424.160000
   2554   2555     1   0.10910 283424.160000
   2554   2556     1   0.10910 283424.160000
   2557   2558     1   0.10910 283424.160000
   2557   2559     1   0.10910 283424.160000
   2560   2561     1   0.10969 276646.080000
   2560   2562     1   0.10969 276646.080000
   2563   2564     1   0.10969 276646.080000
   2563   2565     1   0.10969 276646.080000
   2566   2567     1   0.10969 276646.080000
   2566   2568     1   0.10969 276646.080000
   2569   2570     1   0.10969 276646.080000
   2569   2571     1   0.10969 276646.080000
   2572   2573     1   0.10969 276646.080000
   2572   2574     1   0.10969 276646.080000
   2575   2576     1   0.10969 276646.080000
   2575   2577     1   0.10969 276646.080000
   2580   2609     1   0.10304 312293.760000
   2581   2582     1   0.10910 283424.160000
   2581   2583     1   0.10910 283424.160000
   2584   2585     1   0.10910 283424.160000
   2584   2586     1   0.10910 283424.160000
   2587   2588     1   0.10910 283424.160000
   2587   2589     1   0.10910 283424.160000
   2590   2591     1   0.10969 276646.080000
   2590   2592     1   0.10969 276646.080000
   2593   2594     1   0.10969 276646.080000
   2593   2595     1   0.10969 276646.080000
   2596   2597     1   0.10969 276646.080000
   2596   2598     1   0.10969 276646.080000
   2599   2600     1   0.10969 276646.080000
   2599   2601     1   0.10969 276646.080000
   2602   2603     1   0.10969 276646.080000
   2602   2604     1   0.10969 276646.080000
   2605   2606     1   0.10969 276646.080000
   2605   2607     1   0.10969 276646.080000
   2610   2639     1   0.10304 312293.760000
   2611   2612     1   0.10910 283424.160000
   2611   2613     1   0.10910 283424.160000
   2614   2615     1   0.10910 283424.160000
   2614   2616     1   0.10910 283424.160000
   2617   2618     1   0.10910 283424.160000
   2617   2619     1   0.10910 283424.160000
   2620   2621     1   0.10969 276646.080000
   2620   2622     1   0.10969 276646.080000
   2623   2624     1   0.10969 276646.080000
   2623   2625     1   0.10969 276646.080000
   2626   2627     1   0.10969 276646.080000
   2626   2628     1   0.10969 276646.080000
   2629   2630     1   0.10969 276646.080000
   2629   2631     1   0.10969 276646.080000
   2632   2633     1   0.10969 276646.080000
   2632   2634     1   0.10969 276646.080000
   2635   2636     1   0.10969 276646.080000
   2635   2637     1   0.10969 276646.080000
   2640   2669     1   0.10304 312293.760000
   2641   2642     1   0.10910 283424.160000
   2641   2643     1   0.10910 283424.160000
   2644   2645     1   0.10910 283424.160000
   2644   2646     1   0.10910 283424.160000
   2647   2648     1   0.10910 283424.160000
   2647   2649     1   0.10910 283424.160000
   2650   2651     1   0.10969 276646.080000
   2650   2652     1   0.10969 276646.080000
   2653   2654     1   0.10969 276646.080000
   2653   2655     1   0.10969 276646.080000
   2656   2657     1   0.10969 276646.080000
   2656   2658     1   0.10969 276646.080000
   2659   2660     1   0.10969 276646.080000
   2659   2661     1   0.10969 276646.080000
   2662   2663     1   0.10969 276646.080000
   2662   2664     1   0.10969 276646.080000
   2665   2666     1   0.10969 276646.080000
   2665   2667     1   0.10969 276646.080000
   2670   2699     1   0.10304 312293.760000
   2671   2672     1   0.10910 283424.160000
   2671   2673     1   0.10910 283424.160000
   2674   2675     1   0.10910 283424.160000
   2674   2676     1   0.10910 283424.160000
   2677   2678     1   0.10910 283424.160000
   2677   2679     1   0.10910 283424.160000
   2680   2681     1   0.10969 276646.080000
   2680   2682     1   0.10969 276646.080000
   2683   2684     1   0.10969 276646.080000
   2683   2685     1   0.10969 276646.080000
   2686   2687     1   0.10969 276646.080000
   2686   2688     1   0.10969 276646.080000
   2689   2690     1   0.10969 276646.080000
   2689   2691     1   0.10969 276646.080000
   2692   2693     1   0.10969 276646.080000
   2692   2694     1   0.10969 276646.080000
   2695   2696     1   0.10969 276646.080000
   2695   2697     1   0.10969 276646.080000
   2700   2729     1   0.10304 312293.760000
   2701   2702     1   0.10910 283424.160000
   2701   2703     1   0.10910 283424.160000
   2704   2705     1   0.10910 283424.160000
   2704   2706     1   0.10910 283424.160000
   2707   2708     1   0.10910 283424.160000
   2707   2709     1   0.10910 283424.160000
   2710   2711     1   0.10969 276646.080000
   2710   2712     1   0.10969 276646.080000
   2713   2714     1   0.10969 276646.080000
   2713   2715     1   0.10969 276646.080000
   2716   2717     1   0.10969 276646.080000
   2716   2718     1   0.10969 276646.080000
   2719   2720     1   0.10969 276646.080000
   2719   2721     1   0.10969 276646.080000
   2722   2723     1   0.10969 276646.080000
   2722   2724     1   0.10969 276646.080000
   2725   2726     1   0.10969 276646.080000
   2725   2727     1   0.10969 276646.080000
   2730   2759     1   0.10304 312293.760000
   2731   2732     1   0.10910 283424.160000
   2731   2733     1   0.10910 283424.160000
   2734   2735     1   0.10910 283424.160000
   2734   2736     1   0.10910 283424.160000
   2737   2738     1   0.10910 283424.160000
   2737   2739     1   0.10910 283424.160000
   2740   2741     1   0.10969 276646.080000
   2740   2742     1   0.10969 276646.080000
   2743   2744     1   0.10969 276646.080000
   2743   2745     1   0.10969 276646.080000
   2746   2747     1   0.10969 276646.080000
   2746   2748     1   0.10969 276646.080000
   2749   2750     1   0.10969 276646.080000
   2749   2751     1   0.10969 276646.080000
   2752   2753     1   0.10969 276646.080000
   2752   2754     1   0.10969 276646.080000
   2755   2756     1   0.10969 276646.080000
   2755   2757     1   0.10969 276646.080000
   2760   2789     1   0.10304 312293.760000
   2761   2762     1   0.10910 283424.160000
   2761   2763     1   0.10910 283424.160000
   2764   2765     1   0.10910 283424.160000
   2764   2766     1   0.10910 283424.160000
   2767   2768     1   0.10910 283424.160000
   2767   2769     1   0.10910 283424.160000
   2770   2771     1   0.10969 276646.080000
   2770   2772     1   0.10969 276646.080000
   2773   2774     1   0.10969 276646.080000
   2773   2775     1   0.10969 276646.080000
   2776   2777     1   0.10969 276646.080000
   2776   2778     1   0.10969 276646.080000
   2779   2780     1   0.10969 276646.080000
   2779   2781     1   0.10969 276646.080000
   2782   2783     1   0.10969 276646.080000
   2782   2784     1   0.10969 276646.080000
   2785   2786     1   0.10969 276646.080000
   2785   2787     1   0.10969 276646.080000
   2790   2819     1   0.10304 312293.760000
   2791   2792     1   0.10910 283424.160000
   2791   2793     1   0.10910 283424.160000
   2794   2795     1   0.10910 283424.160000
   2794   2796     1   0.10910 283424.160000
   2797   2798     1   0.10910 283424.160000
   2797   2799     1   0.10910 283424.160000
   2800   2801     1   0.10969 276646.080000
   2800   2802     1   0.10969 276646.080000
   2803   2804     1   0.10969 276646.080000
   2803   2805     1   0.10969 276646.080000
   2806   2807     1   0.10969 276646.080000
   2806   2808     1   0.10969 276646.080000
   2809   2810     1   0.10969 276646.080000
   2809   2811     1   0.10969 276646.080000
   2812   2813     1   0.10969 276646.080000
   2812   2814     1   0.10969 276646.080000
   2815   2816     1   0.10969 276646.080000
   2815   2817     1   0.10969 276646.080000
   2820   2849     1   0.10304 312293.760000
   2821   2822     1   0.10910 283424.160000
   2821   2823     1   0.10910 283424.160000
   2824   2825     1   0.10910 283424.160000
   2824   2826     1   0.10910 283424.160000
   2827   2828     1   0.10910 283424.160000
   2827   2829     1   0.10910 283424.160000
   2830   2831     1   0.10969 276646.080000
   2830   2832     1   0.10969 276646.080000
   2833   2834     1   0.10969 276646.080000
   2833   2835     1   0.10969 276646.080000
   2836   2837     1   0.10969 276646.080000
   2836   2838     1   0.10969 276646.080000
   2839   2840     1   0.10969 276646.080000
   2839   2841     1   0.10969 276646.080000
   2842   2843     1   0.10969 276646.080000
   2842   2844     1   0.10969 276646.080000
   2845   2846     1   0.10969 276646.080000
   2845   2847     1   0.10969 276646.080000
   2850   2879     1   0.10304 312293.760000
   2851   2852     1   0.10910 283424.160000
   2851   2853     1   0.10910 283424.160000
   2854   2855     1   0.10910 283424.160000
   2854   2856     1   0.10910 283424.160000
   2857   2858     1   0.10910 283424.160000
   2857   2859     1   0.10910 283424.160000
   2860   2861     1   0.10969 276646.080000
   2860   2862     1   0.10969 276646.080000
   2863   2864     1   0.10969 276646.080000
   2863   2865     1   0.10969 276646.080000
   2866   2867     1   0.10969 276646.080000
   2866   2868     1   0.10969 276646.080000
   2869   2870     1   0.10969 276646.080000
   2869   2871     1   0.10969 276646.080000
   2872   2873     1   0.10969 276646.080000
   2872   2874     1   0.10969 276646.080000
   2875   2876     1   0.10969 276646.080000
   2875   2877     1   0.10969 276646.080000
   2880   2909     1   0.10304 312293.760000
   2881   2882     1   0.10910 283424.160000
   2881   2883     1   0.10910 283424.160000
   2884   2885     1   0.10910 283424.160000
   2884   2886     1   0.10910 283424.160000
   2887   2888     1   0.10910 283424.160000
   2887   2889     1   0.10910 283424.160000
   2890   2891     1   0.10969 276646.080000
   2890   2892     1   0.10969 276646.080000
   2893   2894     1   0.10969 276646.080000
   2893   2895     1   0.10969 276646.080000
   2896   2897     1   0.10969 276646.080000
   2896   2898     1   0.10969 276646.080000
   2899   2900     1   0.10969 276646.080000
   2899   2901     1   0.10969 276646.080000
   2902   2903     1   0.10969 276646.080000
   2902   2904     1   0.10969 276646.080000
   2905   2906     1   0.10969 276646.080000
   2905   2907     1   0.10969 276646.080000
   2910   2939     1   0.10304 312293.760000
   2911   2912     1   0.10910 283424.160000
   2911   2913     1   0.10910 283424.160000
   2914   2915     1   0.10910 283424.160000
   2914   2916     1   0.10910 283424.160000
   2917   2918     1   0.10910 283424.160000
   2917   2919     1   0.10910 283424.160000
   2920   2921     1   0.10969 276646.080000
   2920   2922     1   0.10969 276646.080000
   2923   2924     1   0.10969 276646.080000
   2923   2925     1   0.10969 276646.080000
   2926   2927     1   0.10969 276646.080000
   2926   2928     1   0.10969 276646.080000
   2929   2930     1   0.10969 276646.080000
   2929   2931     1   0.10969 276646.080000
   2932   2933     1   0.10969 276646.080000
   2932   2934     1   0.10969 276646.080000
   2935   2936     1   0.10969 276646.080000
   2935   2937     1   0.10969 276646.080000
   2940   2969     1   0.10304 312293.760000
   2941   2942     1   0.10910 283424.160000
   2941   2943     1   0.10910 283424.160000
   2944   2945     1   0.10910 283424.160000
   2944   2946     1   0.10910 283424.160000
   2947   2948     1   0.10910 283424.160000
   2947   2949     1   0.10910 283424.160000
   2950   2951     1   0.10969 276646.080000
   2950   2952     1   0.10969 276646.080000
   2953   2954     1   0.10969 276646.080000
   2953   2955     1   0.10969 276646.080000
   2956   2957     1   0.10969 276646.080000
   2956   2958     1   0.10969 276646.080000
   2959   2960     1   0.10969 276646.080000
   2959   2961     1   0.10969 276646.080000
   2962   2963     1   0.10969 276646.080000
   2962   2964     1   0.10969 276646.080000
   2965   2966     1   0.10969 276646.080000
   2965   2967     1   0.10969 276646.080000
   2970   2999     1   0.10304 312293.760000
   2971   2972     1   0.10910 283424.160000
   2971   2973     1   0.10910 283424.160000
   2974   2975     1   0.10910 283424.160000
   2974   2976     1   0.10910 283424.160000
   2977   2978     1   0.10910 283424.160000
   2977   2979     1   0.10910 283424.160000
   2980   2981     1   0.10969 276646.080000
   2980   2982     1   0.10969 276646.080000
   2983   2984     1   0.10969 276646.080000
   2983   2985     1   0.10969 276646.080000
   2986   2987     1   0.10969 276646.080000
   2986   2988     1   0.10969 276646.080000
   2989   2990     1   0.10969 276646.080000
   2989   2991     1   0.10969 276646.080000
   2992   2993     1   0.10969 276646.080000
   2992   2994     1   0.10969 276646.080000
   2995   2996     1   0.10969 276646.080000
   2995   2997     1   0.10969 276646.080000
   3000   3029     1   0.10304 312293.760000
   3001   3002     1   0.10910 283424.160000
   3001   3003     1   0.10910 283424.160000
   3004   3005     1   0.10910 283424.160000
   3004   3006     1   0.10910 283424.160000
   3007   3008     1   0.10910 283424.160000
   3007   3009     1   0.10910 283424.160000
   3010   3011     1   0.10969 276646.080000
   3010   3012     1   0.10969 276646.080000
   3013   3014     1   0.10969 276646.080000
   3013   3015     1   0.10969 276646.080000
   3016   3017     1   0.10969 276646.080000
   3016   3018     1   0.10969 276646.080000
   3019   3020     1   0.10969 276646.080000
   3019   3021     1   0.10969 276646.080000
   3022   3023     1   0.10969 276646.080000
   3022   3024     1   0.10969 276646.080000
   3025   3026     1   0.10969 276646.080000
   3025   3027     1   0.10969 276646.080000
   3030   3059     1   0.10304 312293.760000
   3031   3032     1   0.10910 283424.160000
   3031   3033     1   0.10910 283424.160000
   3034   3035     1   0.10910 283424.160000
   3034   3036     1   0.10910 283424.160000
   3037   3038     1   0.10910 283424.160000
   3037   3039     1   0.10910 283424.160000
   3040   3041     1   0.10969 276646.080000
   3040   3042     1   0.10969 276646.080000
   3043   3044     1   0.10969 276646.080000
   3043   3045     1   0.10969 276646.080000
   3046   3047     1   0.10969 276646.080000
   3046   3048     1   0.10969 276646.080000
   3049   3050     1   0.10969 276646.080000
   3049   3051     1   0.10969 276646.080000
   3052   3053     1   0.10969 276646.080000
   3052   3054     1   0.10969 276646.080000
   3055   3056     1   0.10969 276646.080000
   3055   3057     1   0.10969 276646.080000
   3060   3089     1   0.10304 312293.760000
   3061   3062     1   0.10910 283424.160000
   3061   3063     1   0.10910 283424.160000
   3064   3065     1   0.10910 283424.160000
   3064   3066     1   0.10910 283424.160000
   3067   3068     1   0.10910 283424.160000
   3067   3069     1   0.10910 283424.160000
   3070   3071     1   0.10969 276646.080000
   3070   3072     1   0.10969 276646.080000
   3073   3074     1   0.10969 276646.080000
   3073   3075     1   0.10969 276646.080000
   3076   3077     1   0.10969 276646.080000
   3076   3078     1   0.10969 276646.080000
   3079   3080     1   0.10969 276646.080000
   3079   3081     1   0.10969 276646.080000
   3082   3083     1   0.10969 276646.080000
   3082   3084     1   0.10969 276646.080000
   3085   3086     1   0.10969 276646.080000
   3085   3087     1   0.10969 276646.080000
   3090   3119     1   0.10304 312293.760000
   3091   3092     1   0.10910 283424.160000
   3091   3093     1   0.10910 283424.160000
   3094   3095     1   0.10910 283424.160000
   3094   3096     1   0.10910 283424.160000
   3097   3098     1   0.10910 283424.160000
   3097   3099     1   0.10910 283424.160000
   3100   3101     1   0.10969 276646.080000
   3100   3102     1   0.10969 276646.080000
   3103   3104     1   0.10969 276646.080000
   3103   3105     1   0.10969 276646.080000
   3106   3107     1   0.10969 276646.080000
   3106   3108     1   0.10969 276646.080000
   3109   3110     1   0.10969 276646.080000
   3109   3111     1   0.10969 276646.080000
   3112   3113     1   0.10969 276646.080000
   3112   3114     1   0.10969 276646.080000
   3115   3116     1   0.10969 276646.080000
   3115   3117     1   0.10969 276646.080000
   3120   3149     1   0.10304 312293.760000
   3121   3122     1   0.10910 283424.160000
   3121   3123     1   0.10910 283424.160000
   3124   3125     1   0.10910 283424.160000
   3124   3126     1   0.10910 283424.160000
   3127   3128     1   0.10910 283424.160000
   3127   3129     1   0.10910 283424.160000
   3130   3131     1   0.10969 276646.080000
   3130   3132     1   0.10969 276646.080000
   3133   3134     1   0.10969 276646.080000
   3133   3135     1   0.10969 276646.080000
   3136   3137     1   0.10969 276646.080000
   3136   3138     1   0.10969 276646.080000
   3139   3140     1   0.10969 276646.080000
   3139   3141     1   0.10969 276646.080000
   3142   3143     1   0.10969 276646.080000
   3142   3144     1   0.10969 276646.080000
   3145   3146     1   0.10969 276646.080000
   3145   3147     1   0.10969 276646.080000
   3150   3179     1   0.10304 312293.760000
   3151   3152     1   0.10910 283424.160000
   3151   3153     1   0.10910 283424.160000
   3154   3155     1   0.10910 283424.160000
   3154   3156     1   0.10910 283424.160000
   3157   3158     1   0.10910 283424.160000
   3157   3159     1   0.10910 283424.160000
   3160   3161     1   0.10969 276646.080000
   3160   3162     1   0.10969 276646.080000
   3163   3164     1   0.10969 276646.080000
   3163   3165     1   0.10969 276646.080000
   3166   3167     1   0.10969 276646.080000
   3166   3168     1   0.10969 276646.080000
   3169   3170     1   0.10969 276646.080000
   3169   3171     1   0.10969 276646.080000
   3172   3173     1   0.10969 276646.080000
   3172   3174     1   0.10969 276646.080000
   3175   3176     1   0.10969 276646.080000
   3175   3177     1   0.10969 276646.080000
   3180   3209     1   0.10304 312293.760000
   3181   3182     1   0.10910 283424.160000
   3181   3183     1   0.10910 283424.160000
   3184   3185     1   0.10910 283424.160000
   3184   3186     1   0.10910 283424.160000
   3187   3188     1   0.10910 283424.160000
   3187   3189     1   0.10910 283424.160000
   3190   3191     1   0.10969 276646.080000
   3190   3192     1   0.10969 276646.080000
   3193   3194     1   0.10969 276646.080000
   3193   3195     1   0.10969 276646.080000
   3196   3197     1   0.10969 276646.080000
   3196   3198     1   0.10969 276646.080000
   3199   3200     1   0.10969 276646.080000
   3199   3201     1   0.10969 276646.080000
   3202   3203     1   0.10969 276646.080000
   3202   3204     1   0.10969 276646.080000
   3205   3206     1   0.10969 276646.080000
   3205   3207     1   0.10969 276646.080000
   3210   3239     1   0.10304 312293.760000
   3211   3212     1   0.10910 283424.160000
   3211   3213     1   0.10910 283424.160000
   3214   3215     1   0.10910 283424.160000
   3214   3216     1   0.10910 283424.160000
   3217   3218     1   0.10910 283424.160000
   3217   3219     1   0.10910 283424.160000
   3220   3221     1   0.10969 276646.080000
   3220   3222     1   0.10969 276646.080000
   3223   3224     1   0.10969 276646.080000
   3223   3225     1   0.10969 276646.080000
   3226   3227     1   0.10969 276646.080000
   3226   3228     1   0.10969 276646.080000
   3229   3230     1   0.10969 276646.080000
   3229   3231     1   0.10969 276646.080000
   3232   3233     1   0.10969 276646.080000
   3232   3234     1   0.10969 276646.080000
   3235   3236     1   0.10969 276646.080000
   3235   3237     1   0.10969 276646.080000
   3240   3269     1   0.10304 312293.760000
   3241   3242     1   0.10910 283424.160000
   3241   3243     1   0.10910 283424.160000
   3244   3245     1   0.10910 283424.160000
   3244   3246     1   0.10910 283424.160000
   3247   3248     1   0.10910 283424.160000
   3247   3249     1   0.10910 283424.160000
   3250   3251     1   0.10969 276646.080000
   3250   3252     1   0.10969 276646.080000
   3253   3254     1   0.10969 276646.080000
   3253   3255     1   0.10969 276646.080000
   3256   3257     1   0.10969 276646.080000
   3256   3258     1   0.10969 276646.080000
   3259   3260     1   0.10969 276646.080000
   3259   3261     1   0.10969 276646.080000
   3262   3263     1   0.10969 276646.080000
   3262   3264     1   0.10969 276646.080000
   3265   3266     1   0.10969 276646.080000
   3265   3267     1   0.10969 276646.080000
   3270   3299     1   0.10304 312293.760000
   3271   3272     1   0.10910 283424.160000
   3271   3273     1   0.10910 283424.160000
   3274   3275     1   0.10910 283424.160000
   3274   3276     1   0.10910 283424.160000
   3277   3278     1   0.10910 283424.160000
   3277   3279     1   0.10910 283424.160000
   3280   3281     1   0.10969 276646.080000
   3280   3282     1   0.10969 276646.080000
   3283   3284     1   0.10969 276646.080000
   3283   3285     1   0.10969 276646.080000
   3286   3287     1   0.10969 276646.080000
   3286   3288     1   0.10969 276646.080000
   3289   3290     1   0.10969 276646.080000
   3289   3291     1   0.10969 276646.080000
   3292   3293     1   0.10969 276646.080000
   3292   3294     1   0.10969 276646.080000
   3295   3296     1   0.10969 276646.080000
   3295   3297     1   0.10969 276646.080000
   3300   3329     1   0.10304 312293.760000
   3301   3302     1   0.10910 283424.160000
   3301   3303     1   0.10910 283424.160000
   3304   3305     1   0.10910 283424.160000
   3304   3306     1   0.10910 283424.160000
   3307   3308     1   0.10910 283424.160000
   3307   3309     1   0.10910 283424.160000
   3310   3311     1   0.10969 276646.080000
   3310   3312     1   0.10969 276646.080000
   3313   3314     1   0.10969 276646.080000
   3313   3315     1   0.10969 276646.080000
   3316   3317     1   0.10969 276646.080000
   3316   3318     1   0.10969 276646.080000
   3319   3320     1   0.10969 276646.080000
   3319   3321     1   0.10969 276646.080000
   3322   3323     1   0.10969 276646.080000
   3322   3324     1   0.10969 276646.080000
   3325   3326     1   0.10969 276646.080000
   3325   3327     1   0.10969 276646.080000
   3330   3359     1   0.10304 312293.760000
   3331   3332     1   0.10910 283424.160000
   3331   3333     1   0.10910 283424.160000
   3334   3335     1   0.10910 283424.160000
   3334   3336     1   0.10910 283424.160000
   3337   3338     1   0.10910 283424.160000
   3337   3339     1   0.10910 283424.160000
   3340   3341     1   0.10969 276646.080000
   3340   3342     1   0.10969 276646.080000
   3343   3344     1   0.10969 276646.080000
   3343   3345     1   0.10969 276646.080000
   3346   3347     1   0.10969 276646.080000
   3346   3348     1   0.10969 276646.080000
   3349   3350     1   0.10969 276646.080000
   3349   3351     1   0.10969 276646.080000
   3352   3353     1   0.10969 276646.080000
   3352   3354     1   0.10969 276646.080000
   3355   3356     1   0.10969 276646.080000
   3355   3357     1   0.10969 276646.080000
   3360   3389     1   0.10304 312293.760000
   3361   3362     1   0.10910 283424.160000
   3361   3363     1   0.10910 283424.160000
   3364   3365     1   0.10910 283424.160000
   3364   3366     1   0.10910 283424.160000
   3367   3368     1   0.10910 283424.160000
   3367   3369     1   0.10910 283424.160000
   3370   3371     1   0.10969 276646.080000
   3370   3372     1   0.10969 276646.080000
   3373   3374     1   0.10969 276646.080000
   3373   3375     1   0.10969 276646.080000
   3376   3377     1   0.10969 276646.080000
   3376   3378     1   0.10969 276646.080000
   3379   3380     1   0.10969 276646.080000
   3379   3381     1   0.10969 276646.080000
   3382   3383     1   0.10969 276646.080000
   3382   3384     1   0.10969 276646.080000
   3385   3386     1   0.10969 276646.080000
   3385   3387     1   0.10969 276646.080000
   3390   3419     1   0.10304 312293.760000
   3391   3392     1   0.10910 283424.160000
   3391   3393     1   0.10910 283424.160000
   3394   3395     1   0.10910 283424.160000
   3394   3396     1   0.10910 283424.160000
   3397   3398     1   0.10910 283424.160000
   3397   3399     1   0.10910 283424.160000
   3400   3401     1   0.10969 276646.080000
   3400   3402     1   0.10969 276646.080000
   3403   3404     1   0.10969 276646.080000
   3403   3405     1   0.10969 276646.080000
   3406   3407     1   0.10969 276646.080000
   3406   3408     1   0.10969 276646.080000
   3409   3410     1   0.10969 276646.080000
   3409   3411     1   0.10969 276646.080000
   3412   3413     1   0.10969 276646.080000
   3412   3414     1   0.10969 276646.080000
   3415   3416     1   0.10969 276646.080000
   3415   3417     1   0.10969 276646.080000
   3420   3449     1   0.10304 312293.760000
   3421   3422     1   0.10910 283424.160000
   3421   3423     1   0.10910 283424.160000
   3424   3425     1   0.10910 283424.160000
   3424   3426     1   0.10910 283424.160000
   3427   3428     1   0.10910 283424.160000
   3427   3429     1   0.10910 283424.160000
   3430   3431     1   0.10969 276646.080000
   3430   3432     1   0.10969 276646.080000
   3433   3434     1   0.10969 276646.080000
   3433   3435     1   0.10969 276646.080000
   3436   3437     1   0.10969 276646.080000
   3436   3438     1   0.10969 276646.080000
   3439   3440     1   0.10969 276646.080000
   3439   3441     1   0.10969 276646.080000
   3442   3443     1   0.10969 276646.080000
   3442   3444     1   0.10969 276646.080000
   3445   3446     1   0.10969 276646.080000
   3445   3447     1   0.10969 276646.080000
   3450   3479     1   0.10304 312293.760000
   3451   3452     1   0.10910 283424.160000
   3451   3453     1   0.10910 283424.160000
   3454   3455     1   0.10910 283424.160000
   3454   3456     1   0.10910 283424.160000
   3457   3458     1   0.10910 283424.160000
   3457   3459     1   0.10910 283424.160000
   3460   3461     1   0.10969 276646.080000
   3460   3462     1   0.10969 276646.080000
   3463   3464     1   0.10969 276646.080000
   3463   3465     1   0.10969 276646.080000
   3466   3467     1   0.10969 276646.080000
   3466   3468     1   0.10969 276646.080000
   3469   3470     1   0.10969 276646.080000
   3469   3471     1   0.10969 276646.080000
   3472   3473     1   0.10969 276646.080000
   3472   3474     1   0.10969 276646.080000
   3475   3476     1   0.10969 276646.080000
   3475   3477     1   0.10969 276646.080000
   3480   3509     1   0.10304 312293.760000
   3481   3482     1   0.10910 283424.160000
   3481   3483     1   0.10910 283424.160000
   3484   3485     1   0.10910 283424.160000
   3484   3486     1   0.10910 283424.160000
   3487   3488     1   0.10910 283424.160000
   3487   3489     1   0.10910 283424.160000
   3490   3491     1   0.10969 276646.080000
   3490   3492     1   0.10969 276646.080000
   3493   3494     1   0.10969 276646.080000
   3493   3495     1   0.10969 276646.080000
   3496   3497     1   0.10969 276646.080000
   3496   3498     1   0.10969 276646.080000
   3499   3500     1   0.10969 276646.080000
   3499   3501     1   0.10969 276646.080000
   3502   3503     1   0.10969 276646.080000
   3502   3504     1   0.10969 276646.080000
   3505   3506     1   0.10969 276646.080000
   3505   3507     1   0.10969 276646.080000
   3510   3539     1   0.10304 312293.760000
   3511   3512     1   0.10910 283424.160000
   3511   3513     1   0.10910 283424.160000
   3514   3515     1   0.10910 283424.160000
   3514   3516     1   0.10910 283424.160000
   3517   3518     1   0.10910 283424.160000
   3517   3519     1   0.10910 283424.160000
   3520   3521     1   0.10969 276646.080000
   3520   3522     1   0.10969 276646.080000
   3523   3524     1   0.10969 276646.080000
   3523   3525     1   0.10969 276646.080000
   3526   3527     1   0.10969 276646.080000
   3526   3528     1   0.10969 276646.080000
   3529   3530     1   0.10969 276646.080000
   3529   3531     1   0.10969 276646.080000
   3532   3533     1   0.10969 276646.080000
   3532   3534     1   0.10969 276646.080000
   3535   3536     1   0.10969 276646.080000
   3535   3537     1   0.10969 276646.080000
   3540   3569     1   0.10304 312293.760000
   3541   3542     1   0.10910 283424.160000
   3541   3543     1   0.10910 283424.160000
   3544   3545     1   0.10910 283424.160000
   3544   3546     1   0.10910 283424.160000
   3547   3548     1   0.10910 283424.160000
   3547   3549     1   0.10910 283424.160000
   3550   3551     1   0.10969 276646.080000
   3550   3552     1   0.10969 276646.080000
   3553   3554     1   0.10969 276646.080000
   3553   3555     1   0.10969 276646.080000
   3556   3557     1   0.10969 276646.080000
   3556   3558     1   0.10969 276646.080000
   3559   3560     1   0.10969 276646.080000
   3559   3561     1   0.10969 276646.080000
   3562   3563     1   0.10969 276646.080000
   3562   3564     1   0.10969 276646.080000
   3565   3566     1   0.10969 276646.080000
   3565   3567     1   0.10969 276646.080000
   3570   3599     1   0.10304 312293.760000
   3571   3572     1   0.10910 283424.160000
   3571   3573     1   0.10910 283424.160000
   3574   3575     1   0.10910 283424.160000
   3574   3576     1   0.10910 283424.160000
   3577   3578     1   0.10910 283424.160000
   3577   3579     1   0.10910 283424.160000
   3580   3581     1   0.10969 276646.080000
   3580   3582     1   0.10969 276646.080000
   3583   3584     1   0.10969 276646.080000
   3583   3585     1   0.10969 276646.080000
   3586   3587     1   0.10969 276646.080000
   3586   3588     1   0.10969 276646.080000
   3589   3590     1   0.10969 276646.080000
   3589   3591     1   0.10969 276646.080000
   3592   3593     1   0.10969 276646.080000
   3592   3594     1   0.10969 276646.080000
   3595   3596     1   0.10969 276646.080000
   3595   3597     1   0.10969 276646.080000
   3600   3629     1   0.10304 312293.760000
   3601   3602     1   0.10910 283424.160000
   3601   3603     1   0.10910 283424.160000
   3604   3605     1   0.10910 283424.160000
   3604   3606     1   0.10910 283424.160000
   3607   3608     1   0.10910 283424.160000
   3607   3609     1   0.10910 283424.160000
   3610   3611     1   0.10969 276646.080000
   3610   3612     1   0.10969 276646.080000
   3613   3614     1   0.10969 276646.080000
   3613   3615     1   0.10969 276646.080000
   3616   3617     1   0.10969 276646.080000
   3616   3618     1   0.10969 276646.080000
   3619   3620     1   0.10969 276646.080000
   3619   3621     1   0.10969 276646.080000
   3622   3623     1   0.10969 276646.080000
   3622   3624     1   0.10969 276646.080000
   3625   3626     1   0.10969 276646.080000
   3625   3627     1   0.10969 276646.080000
   3630   3659     1   0.10304 312293.760000
   3631   3632     1   0.10910 283424.160000
   3631   3633     1   0.10910 283424.160000
   3634   3635     1   0.10910 283424.160000
   3634   3636     1   0.10910 283424.160000
   3637   3638     1   0.10910 283424.160000
   3637   3639     1   0.10910 283424.160000
   3640   3641     1   0.10969 276646.080000
   3640   3642     1   0.10969 276646.080000
   3643   3644     1   0.10969 276646.080000
   3643   3645     1   0.10969 276646.080000
   3646   3647     1   0.10969 276646.080000
   3646   3648     1   0.10969 276646.080000
   3649   3650     1   0.10969 276646.080000
   3649   3651     1   0.10969 276646.080000
   3652   3653     1   0.10969 276646.080000
   3652   3654     1   0.10969 276646.080000
   3655   3656     1   0.10969 276646.080000
   3655   3657     1   0.10969 276646.080000
   3660   3689     1   0.10304 312293.760000
   3661   3662     1   0.10910 283424.160000
   3661   3663     1   0.10910 283424.160000
   3664   3665     1   0.10910 283424.160000
   3664   3666     1   0.10910 283424.160000
   3667   3668     1   0.10910 283424.160000
   3667   3669     1   0.10910 283424.160000
   3670   3671     1   0.10969 276646.080000
   3670   3672     1   0.10969 276646.080000
   3673   3674     1   0.10969 276646.080000
   3673   3675     1   0.10969 276646.080000
   3676   3677     1   0.10969 276646.080000
   3676   3678     1   0.10969 276646.080000
   3679   3680     1   0.10969 276646.080000
   3679   3681     1   0.10969 276646.080000
   3682   3683     1   0.10969 276646.080000
   3682   3684     1   0.10969 276646.080000
   3685   3686     1   0.10969 276646.080000
   3685   3687     1   0.10969 276646.080000
   3690   3719     1   0.10304 312293.760000
   3691   3692     1   0.10910 283424.160000
   3691   3693     1   0.10910 283424.160000
   3694   3695     1   0.10910 283424.160000
   3694   3696     1   0.10910 283424.160000
   3697   3698     1   0.10910 283424.160000
   3697   3699     1   0.10910 283424.160000
   3700   3701     1   0.10969 276646.080000
   3700   3702     1   0.10969 276646.080000
   3703   3704     1   0.10969 276646.080000
   3703   3705     1   0.10969 276646.080000
   3706   3707     1   0.10969 276646.080000
   3706   3708     1   0.10969 276646.080000
   3709   3710     1   0.10969 276646.080000
   3709   3711     1   0.10969 276646.080000
   3712   3713     1   0.10969 276646.080000
   3712   3714     1   0.10969 276646.080000
   3715   3716     1   0.10969 276646.080000
   3715   3717     1   0.10969 276646.080000
   3720   3749     1   0.10304 312293.760000
   3721   3722     1   0.10910 283424.160000
   3721   3723     1   0.10910 283424.160000
   3724   3725     1   0.10910 283424.160000
   3724   3726     1   0.10910 283424.160000
   3727   3728     1   0.10910 283424.160000
   3727   3729     1   0.10910 283424.160000
   3730   3731     1   0.10969 276646.080000
   3730   3732     1   0.10969 276646.080000
   3733   3734     1   0.10969 276646.080000
   3733   3735     1   0.10969 276646.080000
   3736   3737     1   0.10969 276646.080000
   3736   3738     1   0.10969 276646.080000
   3739   3740     1   0.10969 276646.080000
   3739   3741     1   0.10969 276646.080000
   3742   3743     1   0.10969 276646.080000
   3742   3744     1   0.10969 276646.080000
   3745   3746     1   0.10969 276646.080000
   3745   3747     1   0.10969 276646.080000
   3750   3779     1   0.10304 312293.760000
   3751   3752     1   0.10910 283424.160000
   3751   3753     1   0.10910 283424.160000
   3754   3755     1   0.10910 283424.160000
   3754   3756     1   0.10910 283424.160000
   3757   3758     1   0.10910 283424.160000
   3757   3759     1   0.10910 283424.160000
   3760   3761     1   0.10969 276646.080000
   3760   3762     1   0.10969 276646.080000
   3763   3764     1   0.10969 276646.080000
   3763   3765     1   0.10969 276646.080000
   3766   3767     1   0.10969 276646.080000
   3766   3768     1   0.10969 276646.080000
   3769   3770     1   0.10969 276646.080000
   3769   3771     1   0.10969 276646.080000
   3772   3773     1   0.10969 276646.080000
   3772   3774     1   0.10969 276646.080000
   3775   3776     1   0.10969 276646.080000
   3775   3777     1   0.10969 276646.080000
   3780   3781     1   0.10910 283424.160000
   3780   3782     1   0.10910 283424.160000
   3783   3784     1   0.10969 276646.080000
   3783   3785     1   0.10969 276646.080000
   3786   3787     1   0.10969 276646.080000
   3786   3788     1   0.10969 276646.080000
   3789   3790     1   0.10304 312293.760000
   3789   3791     1   0.10304 312293.760000
   3789   3793     1   0.10304 312293.760000
   3794   3795     1   0.10910 283424.160000
   3794   3796     1   0.10910 283424.160000
   3797   3798     1   0.10969 276646.080000
   3797   3799     1   0.10969 276646.080000
   3800   3801     1   0.10969 276646.080000
   3800   3802     1   0.10969 276646.080000
   3803   3804     1   0.10304 312293.760000
   3803   3805     1   0.10304 312293.760000
   3803   3807     1   0.10304 312293.760000
   3808   3809     1   0.10910 283424.160000
   3808   3810     1   0.10910 283424.160000
   3811   3812     1   0.10969 276646.080000
   3811   3813     1   0.10969 276646.080000
   3814   3815     1   0.10969 276646.080000
   3814   3816     1   0.10969 276646.080000
   3817   3818     1   0.10304 312293.760000
   3817   3819     1   0.10304 312293.760000
   3817   3821     1   0.10304 312293.760000
   3822   3823     1   0.10910 283424.160000
   3822   3824     1   0.10910 283424.160000
   3825   3826     1   0.10969 276646.080000
   3825   3827     1   0.10969 276646.080000
   3828   3829     1   0.10969 276646.080000
   3828   3830     1   0.10969 276646.080000
   3831   3832     1   0.10304 312293.760000
   3831   3833     1   0.10304 312293.760000
   3831   3835     1   0.10304 312293.760000
   3836   3837     1   0.10910 283424.160000
   3836   3838     1   0.10910 283424.160000
   3839   3840     1   0.10969 276646.080000
   3839   3841     1   0.10969 276646.080000
   3842   3843     1   0.10969 276646.080000
   3842   3844     1   0.10969 276646.080000
   3845   3846     1   0.10304 312293.760000
   3845   3847     1   0.10304 312293.760000
   3845   3849     1   0.10304 312293.760000
   3850   3851     1   0.10910 283424.160000
   3850   3852     1   0.10910 283424.160000
   3853   3854     1   0.10969 276646.080000
   3853   3855     1   0.10969 276646.080000
   3856   3857     1   0.10969 276646.080000
   3856   3858     1   0.10969 276646.080000
   3859   3860     1   0.10304 312293.760000
   3859   3861     1   0.10304 312293.760000
   3859   3863     1   0.10304 312293.760000
   3864   3865     1   0.10910 283424.160000
   3864   3866     1   0.10910 283424.160000
   3867   3868     1   0.10969 276646.080000
   3867   3869     1   0.10969 276646.080000
   3870   3871     1   0.10969 276646.080000
   3870   3872     1   0.10969 276646.080000
   3873   3874     1   0.10304 312293.760000
   3873   3875     1   0.10304 312293.760000
   3873   3877     1   0.10304 312293.760000
   3878   3879     1   0.10910 283424.160000
   3878   3880     1   0.10910 283424.160000
   3881   3882     1   0.10969 276646.080000
   3881   3883     1   0.10969 276646.080000
   3884   3885     1   0.10969 276646.080000
   3884   3886     1   0.10969 276646.080000
   3887   3888     1   0.10304 312293.760000
   3887   3889     1   0.10304 312293.760000
   3887   3891     1   0.10304 312293.760000
   3892   3893     1   0.10910 283424.160000
   3892   3894     1   0.10910 283424.160000
   3895   3896     1   0.10969 276646.080000
   3895   3897     1   0.10969 276646.080000
   3898   3899     1   0.10969 276646.080000
   3898   3900     1   0.10969 276646.080000
   3901   3902     1   0.10304 312293.760000
   3901   3903     1   0.10304 312293.760000
   3901   3905     1   0.10304 312293.760000
   3906   3907     1   0.10910 283424.160000
   3906   3908     1   0.10910 283424.160000
   3909   3910     1   0.10969 276646.080000
   3909   3911     1   0.10969 276646.080000
   3912   3913     1   0.10969 276646.080000
   3912   3914     1   0.10969 276646.080000
   3915   3916     1   0.10304 312293.760000
   3915   3917     1   0.10304 312293.760000
   3915   3919     1   0.10304 312293.760000
   3920   3921     1   0.10910 283424.160000
   3920   3922     1   0.10910 283424.160000
   3923   3924     1   0.10969 276646.080000
   3923   3925     1   0.10969 276646.080000
   3926   3927     1   0.10969 276646.080000
   3926   3928     1   0.10969 276646.080000
   3929   3930     1   0.10304 312293.760000
   3929   3931     1   0.10304 312293.760000
   3929   3933     1   0.10304 312293.760000
   3934   3935     1   0.10910 283424.160000
   3934   3936     1   0.10910 283424.160000
   3937   3938     1   0.10969 276646.080000
   3937   3939     1   0.10969 276646.080000
   3940   3941     1   0.10969 276646.080000
   3940   3942     1   0.10969 276646.080000
   3943   3944     1   0.10304 312293.760000
   3943   3945     1   0.10304 312293.760000
   3943   3947     1   0.10304 312293.760000
   3948   3949     1   0.10910 283424.160000
   3948   3950     1   0.10910 283424.160000
   3951   3952     1   0.10969 276646.080000
   3951   3953     1   0.10969 276646.080000
   3954   3955     1   0.10969 276646.080000
   3954   3956     1   0.10969 276646.080000
   3957   3958     1   0.10304 312293.760000
   3957   3959     1   0.10304 312293.760000
   3957   3961     1   0.10304 312293.760000
   3962   3963     1   0.10910 283424.160000
   3962   3964     1   0.10910 283424.160000
   3965   3966     1   0.10969 276646.080000
   3965   3967     1   0.10969 276646.080000
   3968   3969     1   0.10969 276646.080000
   3968   3970     1   0.10969 276646.080000
   3971   3972     1   0.10304 312293.760000
   3971   3973     1   0.10304 312293.760000
   3971   3975     1   0.10304 312293.760000
   3976   3977     1   0.10910 283424.160000
   3976   3978     1   0.10910 283424.160000
   3979   3980     1   0.10969 276646.080000
   3979   3981     1   0.10969 276646.080000
   3982   3983     1   0.10969 276646.080000
   3982   3984     1   0.10969 276646.080000
   3985   3986     1   0.10304 312293.760000
   3985   3987     1   0.10304 312293.760000
   3985   3989     1   0.10304 312293.760000
   3990   3991     1   0.10910 283424.160000
   3990   3992     1   0.10910 283424.160000
   3993   3994     1   0.10969 276646.080000
   3993   3995     1   0.10969 276646.080000
   3996   3997     1   0.10969 276646.080000
   3996   3998     1   0.10969 276646.080000
   3999   4000     1   0.10304 312293.760000
   3999   4001     1   0.10304 312293.760000
   3999   4003     1   0.10304 312293.760000
   4004   4005     1   0.10910 283424.160000
   4004   4006     1   0.10910 283424.160000
   4007   4008     1   0.10969 276646.080000
   4007   4009     1   0.10969 276646.080000
   4010   4011     1   0.10969 276646.080000
   4010   4012     1   0.10969 276646.080000
   4013   4014     1   0.10304 312293.760000
   4013   4015     1   0.10304 312293.760000
   4013   4017     1   0.10304 312293.760000
   4018   4019     1   0.10910 283424.160000
   4018   4020     1   0.10910 283424.160000
   4021   4022     1   0.10969 276646.080000
   4021   4023     1   0.10969 276646.080000
   4024   4025     1   0.10969 276646.080000
   4024   4026     1   0.10969 276646.080000
   4027   4028     1   0.10304 312293.760000
   4027   4029     1   0.10304 312293.760000
   4027   4031     1   0.10304 312293.760000
   4032   4033     1   0.10910 283424.160000
   4032   4034     1   0.10910 283424.160000
   4035   4036     1   0.10969 276646.080000
   4035   4037     1   0.10969 276646.080000
   4038   4039     1   0.10969 276646.080000
   4038   4040     1   0.10969 276646.080000
   4041   4042     1   0.10304 312293.760000
   4041   4043     1   0.10304 312293.760000
   4041   4045     1   0.10304 312293.760000
   4046   4047     1   0.10910 283424.160000
   4046   4048     1   0.10910 283424.160000
   4049   4050     1   0.10969 276646.080000
   4049   4051     1   0.10969 276646.080000
   4052   4053     1   0.10969 276646.080000
   4052   4054     1   0.10969 276646.080000
   4055   4056     1   0.10304 312293.760000
   4055   4057     1   0.10304 312293.760000
   4055   4059     1   0.10304 312293.760000
   4060   4061     1   0.10910 283424.160000
   4060   4062     1   0.10910 283424.160000
   4063   4064     1   0.10969 276646.080000
   4063   4065     1   0.10969 276646.080000
   4066   4067     1   0.10969 276646.080000
   4066   4068     1   0.10969 276646.080000
   4069   4070     1   0.10304 312293.760000
   4069   4071     1   0.10304 312293.760000
   4069   4073     1   0.10304 312293.760000
   4074   4075     1   0.10910 283424.160000
   4074   4076     1   0.10910 283424.160000
   4077   4078     1   0.10969 276646.080000
   4077   4079     1   0.10969 276646.080000
   4080   4081     1   0.10969 276646.080000
   4080   4082     1   0.10969 276646.080000
   4083   4084     1   0.10304 312293.760000
   4083   4085     1   0.10304 312293.760000
   4083   4087     1   0.10304 312293.760000
   4088   4089     1   0.10910 283424.160000
   4088   4090     1   0.10910 283424.160000
   4091   4092     1   0.10969 276646.080000
   4091   4093     1   0.10969 276646.080000
   4094   4095     1   0.10969 276646.080000
   4094   4096     1   0.10969 276646.080000
   4097   4098     1   0.10304 312293.760000
   4097   4099     1   0.10304 312293.760000
   4097   4101     1   0.10304 312293.760000
   4102   4103     1   0.10910 283424.160000
   4102   4104     1   0.10910 283424.160000
   4105   4106     1   0.10969 276646.080000
   4105   4107     1   0.10969 276646.080000
   4108   4109     1   0.10969 276646.080000
   4108   4110     1   0.10969 276646.080000
   4111   4112     1   0.10304 312293.760000
   4111   4113     1   0.10304 312293.760000
   4111   4115     1   0.10304 312293.760000
   4116   4117     1   0.10910 283424.160000
   4116   4118     1   0.10910 283424.160000
   4119   4120     1   0.10969 276646.080000
   4119   4121     1   0.10969 276646.080000
   4122   4123     1   0.10969 276646.080000
   4122   4124     1   0.10969 276646.080000
   4125   4126     1   0.10304 312293.760000
   4125   4127     1   0.10304 312293.760000
   4125   4129     1   0.10304 312293.760000
   4130   4131     1   0.10910 283424.160000
   4130   4132     1   0.10910 283424.160000
   4133   4134     1   0.10969 276646.080000
   4133   4135     1   0.10969 276646.080000
   4136   4137     1   0.10969 276646.080000
   4136   4138     1   0.10969 276646.080000
   4139   4140     1   0.10304 312293.760000
   4139   4141     1   0.10304 312293.760000
   4139   4143     1   0.10304 312293.760000
   4144   4145     1   0.10910 283424.160000
   4144   4146     1   0.10910 283424.160000
   4147   4148     1   0.10969 276646.080000
   4147   4149     1   0.10969 276646.080000
   4150   4151     1   0.10969 276646.080000
   4150   4152     1   0.10969 276646.080000
   4153   4154     1   0.10304 312293.760000
   4153   4155     1   0.10304 312293.760000
   4153   4157     1   0.10304 312293.760000
   4158   4159     1   0.10910 283424.160000
   4158   4160     1   0.10910 283424.160000
   4161   4162     1   0.10969 276646.080000
   4161   4163     1   0.10969 276646.080000
   4164   4165     1   0.10969 276646.080000
   4164   4166     1   0.10969 276646.080000
   4167   4168     1   0.10304 312293.760000
   4167   4169     1   0.10304 312293.760000
   4167   4171     1   0.10304 312293.760000
   4172   4173     1   0.10910 283424.160000
   4172   4174     1   0.10910 283424.160000
   4175   4176     1   0.10969 276646.080000
   4175   4177     1   0.10969 276646.080000
   4178   4179     1   0.10969 276646.080000
   4178   4180     1   0.10969 276646.080000
   4181   4182     1   0.10304 312293.760000
   4181   4183     1   0.10304 312293.760000
   4181   4185     1   0.10304 312293.760000
   4186   4187     1   0.10910 283424.160000
   4186   4188     1   0.10910 283424.160000
   4189   4190     1   0.10969 276646.080000
   4189   4191     1   0.10969 276646.080000
   4192   4193     1   0.10969 276646.080000
   4192   4194     1   0.10969 276646.080000
   4195   4196     1   0.10304 312293.760000
   4195   4197     1   0.10304 312293.760000
   4195   4199     1   0.10304 312293.760000
   4200   4201     1   0.10910 283424.160000
   4200   4202     1   0.10910 283424.160000
   4203   4204     1   0.10969 276646.080000
   4203   4205     1   0.10969 276646.080000
   4206   4207     1   0.10969 276646.080000
   4206   4208     1   0.10969 276646.080000
   4209   4210     1   0.10304 312293.760000
   4209   4211     1   0.10304 312293.760000
   4209   4213     1   0.10304 312293.760000
   4214   4215     1   0.10910 283424.160000
   4214   4216     1   0.10910 283424.160000
   4217   4218     1   0.10969 276646.080000
   4217   4219     1   0.10969 276646.080000
   4220   4221     1   0.10969 276646.080000
   4220   4222     1   0.10969 276646.080000
   4223   4224     1   0.10304 312293.760000
   4223   4225     1   0.10304 312293.760000
   4223   4227     1   0.10304 312293.760000
   4228   4229     1   0.10910 283424.160000
   4228   4230     1   0.10910 283424.160000
   4231   4232     1   0.10969 276646.080000
   4231   4233     1   0.10969 276646.080000
   4234   4235     1   0.10969 276646.080000
   4234   4236     1   0.10969 276646.080000
   4237   4238     1   0.10304 312293.760000
   4237   4239     1   0.10304 312293.760000
   4237   4241     1   0.10304 312293.760000
   4242   4243     1   0.10910 283424.160000
   4242   4244     1   0.10910 283424.160000
   4245   4246     1   0.10969 276646.080000
   4245   4247     1   0.10969 276646.080000
   4248   4249     1   0.10969 276646.080000
   4248   4250     1   0.10969 276646.080000
   4251   4252     1   0.10304 312293.760000
   4251   4253     1   0.10304 312293.760000
   4251   4255     1   0.10304 312293.760000
   4256   4257     1   0.10910 283424.160000
   4256   4258     1   0.10910 283424.160000
   4259   4260     1   0.10969 276646.080000
   4259   4261     1   0.10969 276646.080000
   4262   4263     1   0.10969 276646.080000
   4262   4264     1   0.10969 276646.080000
   4265   4266     1   0.10304 312293.760000
   4265   4267     1   0.10304 312293.760000
   4265   4269     1   0.10304 312293.760000
   4270   4271     1   0.10910 283424.160000
   4270   4272     1   0.10910 283424.160000
   4273   4274     1   0.10969 276646.080000
   4273   4275     1   0.10969 276646.080000
   4276   4277     1   0.10969 276646.080000
   4276   4278     1   0.10969 276646.080000
   4279   4280     1   0.10304 312293.760000
   4279   4281     1   0.10304 312293.760000
   4279   4283     1   0.10304 312293.760000
   4284   4285     1   0.10910 283424.160000
   4284   4286     1   0.10910 283424.160000
   4287   4288     1   0.10969 276646.080000
   4287   4289     1   0.10969 276646.080000
   4290   4291     1   0.10969 276646.080000
   4290   4292     1   0.10969 276646.080000
   4293   4294     1   0.10304 312293.760000
   4293   4295     1   0.10304 312293.760000
   4293   4297     1   0.10304 312293.760000
   4298   4299     1   0.10910 283424.160000
   4298   4300     1   0.10910 283424.160000
   4301   4302     1   0.10969 276646.080000
   4301   4303     1   0.10969 276646.080000
   4304   4305     1   0.10969 276646.080000
   4304   4306     1   0.10969 276646.080000
   4307   4308     1   0.10304 312293.760000
   4307   4309     1   0.10304 312293.760000
   4307   4311     1   0.10304 312293.760000
   4312   4313     1   0.10910 283424.160000
   4312   4314     1   0.10910 283424.160000
   4315   4316     1   0.10969 276646.080000
   4315   4317     1   0.10969 276646.080000
   4318   4319     1   0.10969 276646.080000
   4318   4320     1   0.10969 276646.080000
   4321   4322     1   0.10304 312293.760000
   4321   4323     1   0.10304 312293.760000
   4321   4325     1   0.10304 312293.760000
   4326   4327     1   0.10910 283424.160000
   4326   4328     1   0.10910 283424.160000
   4329   4330     1   0.10969 276646.080000
   4329   4331     1   0.10969 276646.080000
   4332   4333     1   0.10969 276646.080000
   4332   4334     1   0.10969 276646.080000
   4335   4336     1   0.10304 312293.760000
   4335   4337     1   0.10304 312293.760000
   4335   4339     1   0.10304 312293.760000
   4340   4341     1   0.10910 283424.160000
   4340   4342     1   0.10910 283424.160000
   4343   4344     1   0.10969 276646.080000
   4343   4345     1   0.10969 276646.080000
   4346   4347     1   0.10969 276646.080000
   4346   4348     1   0.10969 276646.080000
   4349   4350     1   0.10304 312293.760000
   4349   4351     1   0.10304 312293.760000
   4349   4353     1   0.10304 312293.760000
   4354   4355     1   0.10910 283424.160000
   4354   4356     1   0.10910 283424.160000
   4357   4358     1   0.10969 276646.080000
   4357   4359     1   0.10969 276646.080000
   4360   4361     1   0.10969 276646.080000
   4360   4362     1   0.10969 276646.080000
   4363   4364     1   0.10304 312293.760000
   4363   4365     1   0.10304 312293.760000
   4363   4367     1   0.10304 312293.760000
   4368   4369     1   0.10910 283424.160000
   4368   4370     1   0.10910 283424.160000
   4371   4372     1   0.10969 276646.080000
   4371   4373     1   0.10969 276646.080000
   4374   4375     1   0.10969 276646.080000
   4374   4376     1   0.10969 276646.080000
   4377   4378     1   0.10304 312293.760000
   4377   4379     1   0.10304 312293.760000
   4377   4381     1   0.10304 312293.760000
   4382   4383     1   0.10910 283424.160000
   4382   4384     1   0.10910 283424.160000
   4385   4386     1   0.10969 276646.080000
   4385   4387     1   0.10969 276646.080000
   4388   4389     1   0.10969 276646.080000
   4388   4390     1   0.10969 276646.080000
   4391   4392     1   0.10304 312293.760000
   4391   4393     1   0.10304 312293.760000
   4391   4395     1   0.10304 312293.760000
   4396   4397     1   0.10910 283424.160000
   4396   4398     1   0.10910 283424.160000
   4399   4400     1   0.10969 276646.080000
   4399   4401     1   0.10969 276646.080000
   4402   4403     1   0.10969 276646.080000
   4402   4404     1   0.10969 276646.080000
   4405   4406     1   0.10304 312293.760000
   4405   4407     1   0.10304 312293.760000
   4405   4409     1   0.10304 312293.760000
   4410   4411     1   0.10910 283424.160000
   4410   4412     1   0.10910 283424.160000
   4413   4414     1   0.10969 276646.080000
   4413   4415     1   0.10969 276646.080000
   4416   4417     1   0.10969 276646.080000
   4416   4418     1   0.10969 276646.080000
   4419   4420     1   0.10304 312293.760000
   4419   4421     1   0.10304 312293.760000
   4419   4423     1   0.10304 312293.760000
   4424   4425     1   0.10910 283424.160000
   4424   4426     1   0.10910 283424.160000
   4427   4428     1   0.10969 276646.080000
   4427   4429     1   0.10969 276646.080000
   4430   4431     1   0.10969 276646.080000
   4430   4432     1   0.10969 276646.080000
   4433   4434     1   0.10304 312293.760000
   4433   4435     1   0.10304 312293.760000
   4433   4437     1   0.10304 312293.760000
   4438   4439     1   0.10910 283424.160000
   4438   4440     1   0.10910 283424.160000
   4441   4442     1   0.10969 276646.080000
   4441   4443     1   0.10969 276646.080000
   4444   4445     1   0.10969 276646.080000
   4444   4446     1   0.10969 276646.080000
   4447   4448     1   0.10304 312293.760000
   4447   4449     1   0.10304 312293.760000
   4447   4451     1   0.10304 312293.760000
   4452   4453     1   0.10910 283424.160000
   4452   4454     1   0.10910 283424.160000
   4455   4456     1   0.10969 276646.080000
   4455   4457     1   0.10969 276646.080000
   4458   4459     1   0.10969 276646.080000
   4458   4460     1   0.10969 276646.080000
   4461   4462     1   0.10304 312293.760000
   4461   4463     1   0.10304 312293.760000
   4461   4465     1   0.10304 312293.760000
   4466   4467     1   0.10910 283424.160000
   4466   4468     1   0.10910 283424.160000
   4469   4470     1   0.10969 276646.080000
   4469   4471     1   0.10969 276646.080000
   4472   4473     1   0.10969 276646.080000
   4472   4474     1   0.10969 276646.080000
   4475   4476     1   0.10304 312293.760000
   4475   4477     1   0.10304 312293.760000
   4475   4479     1   0.10304 312293.760000
   4480   4481     1   0.10910 283424.160000
   4480   4482     1   0.10910 283424.160000
   4483   4484     1   0.10969 276646.080000
   4483   4485     1   0.10969 276646.080000
   4486   4487     1   0.10969 276646.080000
   4486   4488     1   0.10969 276646.080000
   4489   4490     1   0.10304 312293.760000
   4489   4491     1   0.10304 312293.760000
   4489   4493     1   0.10304 312293.760000
   4494   4495     1   0.10910 283424.160000
   4494   4496     1   0.10910 283424.160000
   4497   4498     1   0.10969 276646.080000
   4497   4499     1   0.10969 276646.080000
   4500   4501     1   0.10969 276646.080000
   4500   4502     1   0.10969 276646.080000
   4503   4504     1   0.10304 312293.760000
   4503   4505     1   0.10304 312293.760000
   4503   4507     1   0.10304 312293.760000
   4508   4509     1   0.10910 283424.160000
   4508   4510     1   0.10910 283424.160000
   4511   4512     1   0.10969 276646.080000
   4511   4513     1   0.10969 276646.080000
   4514   4515     1   0.10969 276646.080000
   4514   4516     1   0.10969 276646.080000
   4517   4518     1   0.10304 312293.760000
   4517   4519     1   0.10304 312293.760000
   4517   4521     1   0.10304 312293.760000
   4522   4523     1   0.10910 283424.160000
   4522   4524     1   0.10910 283424.160000
   4525   4526     1   0.10969 276646.080000
   4525   4527     1   0.10969 276646.080000
   4528   4529     1   0.10969 276646.080000
   4528   4530     1   0.10969 276646.080000
   4531   4532     1   0.10304 312293.760000
   4531   4533     1   0.10304 312293.760000
   4531   4535     1   0.10304 312293.760000
   4536   4537     1   0.10910 283424.160000
   4536   4538     1   0.10910 283424.160000
   4539   4540     1   0.10969 276646.080000
   4539   4541     1   0.10969 276646.080000
   4542   4543     1   0.10969 276646.080000
   4542   4544     1   0.10969 276646.080000
   4545   4546     1   0.10304 312293.760000
   4545   4547     1   0.10304 312293.760000
   4545   4549     1   0.10304 312293.760000
   4550   4551     1   0.10910 283424.160000
   4550   4552     1   0.10910 283424.160000
   4553   4554     1   0.10969 276646.080000
   4553   4555     1   0.10969 276646.080000
   4556   4557     1   0.10969 276646.080000
   4556   4558     1   0.10969 276646.080000
   4559   4560     1   0.10304 312293.760000
   4559   4561     1   0.10304 312293.760000
   4559   4563     1   0.10304 312293.760000
   4564   4565     1   0.10910 283424.160000
   4564   4566     1   0.10910 283424.160000
   4567   4568     1   0.10969 276646.080000
   4567   4569     1   0.10969 276646.080000
   4570   4571     1   0.10969 276646.080000
   4570   4572     1   0.10969 276646.080000
   4573   4574     1   0.10304 312293.760000
   4573   4575     1   0.10304 312293.760000
   4573   4577     1   0.10304 312293.760000
   4578   4579     1   0.10910 283424.160000
   4578   4580     1   0.10910 283424.160000
   4581   4582     1   0.10969 276646.080000
   4581   4583     1   0.10969 276646.080000
   4584   4585     1   0.10969 276646.080000
   4584   4586     1   0.10969 276646.080000
   4587   4588     1   0.10304 312293.760000
   4587   4589     1   0.10304 312293.760000
   4587   4591     1   0.10304 312293.760000
   4592   4593     1   0.10910 283424.160000
   4592   4594     1   0.10910 283424.160000
   4595   4596     1   0.10969 276646.080000
   4595   4597     1   0.10969 276646.080000
   4598   4599     1   0.10969 276646.080000
   4598   4600     1   0.10969 276646.080000
   4601   4602     1   0.10304 312293.760000
   4601   4603     1   0.10304 312293.760000
   4601   4605     1   0.10304 312293.760000
   4606   4607     1   0.10910 283424.160000
   4606   4608     1   0.10910 283424.160000
   4609   4610     1   0.10969 276646.080000
   4609   4611     1   0.10969 276646.080000
   4612   4613     1   0.10969 276646.080000
   4612   4614     1   0.10969 276646.080000
   4615   4616     1   0.10304 312293.760000
   4615   4617     1   0.10304 312293.760000
   4615   4619     1   0.10304 312293.760000
   4620   4621     1   0.10910 283424.160000
   4620   4622     1   0.10910 283424.160000
   4623   4624     1   0.10969 276646.080000
   4623   4625     1   0.10969 276646.080000
   4626   4627     1   0.10969 276646.080000
   4626   4628     1   0.10969 276646.080000
   4629   4630     1   0.10304 312293.760000
   4629   4631     1   0.10304 312293.760000
   4629   4633     1   0.10304 312293.760000
   4634   4635     1   0.10910 283424.160000
   4634   4636     1   0.10910 283424.160000
   4637   4638     1   0.10969 276646.080000
   4637   4639     1   0.10969 276646.080000
   4640   4641     1   0.10969 276646.080000
   4640   4642     1   0.10969 276646.080000
   4643   4644     1   0.10304 312293.760000
   4643   4645     1   0.10304 312293.760000
   4643   4647     1   0.10304 312293.760000
   4648   4649     1   0.10910 283424.160000
   4648   4650     1   0.10910 283424.160000
   4651   4652     1   0.10969 276646.080000
   4651   4653     1   0.10969 276646.080000
   4654   4655     1   0.10969 276646.080000
   4654   4656     1   0.10969 276646.080000
   4657   4658     1   0.10304 312293.760000
   4657   4659     1   0.10304 312293.760000
   4657   4661     1   0.10304 312293.760000
   4662   4663     1   0.10910 283424.160000
   4662   4664     1   0.10910 283424.160000
   4665   4666     1   0.10969 276646.080000
   4665   4667     1   0.10969 276646.080000
   4668   4669     1   0.10969 276646.080000
   4668   4670     1   0.10969 276646.080000
   4671   4672     1   0.10304 312293.760000
   4671   4673     1   0.10304 312293.760000
   4671   4675     1   0.10304 312293.760000
   4676   4677     1   0.10910 283424.160000
   4676   4678     1   0.10910 283424.160000
   4679   4680     1   0.10969 276646.080000
   4679   4681     1   0.10969 276646.080000
   4682   4683     1   0.10969 276646.080000
   4682   4684     1   0.10969 276646.080000
   4685   4686     1   0.10304 312293.760000
   4685   4687     1   0.10304 312293.760000
   4685   4689     1   0.10304 312293.760000
   4690   4691     1   0.10910 283424.160000
   4690   4692     1   0.10910 283424.160000
   4693   4694     1   0.10969 276646.080000
   4693   4695     1   0.10969 276646.080000
   4696   4697     1   0.10969 276646.080000
   4696   4698     1   0.10969 276646.080000
   4699   4700     1   0.10304 312293.760000
   4699   4701     1   0.10304 312293.760000
   4699   4703     1   0.10304 312293.760000
   4704   4705     1   0.10910 283424.160000
   4704   4706     1   0.10910 283424.160000
   4707   4708     1   0.10969 276646.080000
   4707   4709     1   0.10969 276646.080000
   4710   4711     1   0.10969 276646.080000
   4710   4712     1   0.10969 276646.080000
   4713   4714     1   0.10304 312293.760000
   4713   4715     1   0.10304 312293.760000
   4713   4717     1   0.10304 312293.760000
   4718   4719     1   0.10910 283424.160000
   4718   4720     1   0.10910 283424.160000
   4721   4722     1   0.10969 276646.080000
   4721   4723     1   0.10969 276646.080000
   4724   4725     1   0.10969 276646.080000
   4724   4726     1   0.10969 276646.080000
   4727   4728     1   0.10304 312293.760000
   4727   4729     1   0.10304 312293.760000
   4727   4731     1   0.10304 312293.760000
   4732   4733     1   0.10910 283424.160000
   4732   4734     1   0.10910 283424.160000
   4735   4736     1   0.10969 276646.080000
   4735   4737     1   0.10969 276646.080000
   4738   4739     1   0.10969 276646.080000
   4738   4740     1   0.10969 276646.080000
   4741   4742     1   0.10304 312293.760000
   4741   4743     1   0.10304 312293.760000
   4741   4745     1   0.10304 312293.760000
   4746   4747     1   0.10910 283424.160000
   4746   4748     1   0.10910 283424.160000
   4749   4750     1   0.10969 276646.080000
   4749   4751     1   0.10969 276646.080000
   4752   4753     1   0.10969 276646.080000
   4752   4754     1   0.10969 276646.080000
   4755   4756     1   0.10304 312293.760000
   4755   4757     1   0.10304 312293.760000
   4755   4759     1   0.10304 312293.760000
   4760   4761     1   0.10910 283424.160000
   4760   4762     1   0.10910 283424.160000
   4763   4764     1   0.10969 276646.080000
   4763   4765     1   0.10969 276646.080000
   4766   4767     1   0.10969 276646.080000
   4766   4768     1   0.10969 276646.080000
   4769   4770     1   0.10304 312293.760000
   4769   4771     1   0.10304 312293.760000
   4769   4773     1   0.10304 312293.760000
   4774   4775     1   0.10910 283424.160000
   4774   4776     1   0.10910 283424.160000
   4777   4778     1   0.10969 276646.080000
   4777   4779     1   0.10969 276646.080000
   4780   4781     1   0.10969 276646.080000
   4780   4782     1   0.10969 276646.080000
   4783   4784     1   0.10304 312293.760000
   4783   4785     1   0.10304 312293.760000
   4783   4787     1   0.10304 312293.760000
   4788   4789     1   0.10910 283424.160000
   4788   4790     1   0.10910 283424.160000
   4791   4792     1   0.10969 276646.080000
   4791   4793     1   0.10969 276646.080000
   4794   4795     1   0.10969 276646.080000
   4794   4796     1   0.10969 276646.080000
   4797   4798     1   0.10304 312293.760000
   4797   4799     1   0.10304 312293.760000
   4797   4801     1   0.10304 312293.760000
   4802   4803     1   0.10910 283424.160000
   4802   4804     1   0.10910 283424.160000
   4805   4806     1   0.10969 276646.080000
   4805   4807     1   0.10969 276646.080000
   4808   4809     1   0.10969 276646.080000
   4808   4810     1   0.10969 276646.080000
   4811   4812     1   0.10304 312293.760000
   4811   4813     1   0.10304 312293.760000
   4811   4815     1   0.10304 312293.760000
   4816   4817     1   0.10910 283424.160000
   4816   4818     1   0.10910 283424.160000
   4819   4820     1   0.10969 276646.080000
   4819   4821     1   0.10969 276646.080000
   4822   4823     1   0.10969 276646.080000
   4822   4824     1   0.10969 276646.080000
   4825   4826     1   0.10304 312293.760000
   4825   4827     1   0.10304 312293.760000
   4825   4829     1   0.10304 312293.760000
   4830   4831     1   0.10910 283424.160000
   4830   4832     1   0.10910 283424.160000
   4833   4834     1   0.10969 276646.080000
   4833   4835     1   0.10969 276646.080000
   4836   4837     1   0.10969 276646.080000
   4836   4838     1   0.10969 276646.080000
   4839   4840     1   0.10304 312293.760000
   4839   4841     1   0.10304 312293.760000
   4839   4843     1   0.10304 312293.760000
   4844   4845     1   0.10910 283424.160000
   4844   4846     1   0.10910 283424.160000
   4847   4848     1   0.10969 276646.080000
   4847   4849     1   0.10969 276646.080000
   4850   4851     1   0.10969 276646.080000
   4850   4852     1   0.10969 276646.080000
   4853   4854     1   0.10304 312293.760000
   4853   4855     1   0.10304 312293.760000
   4853   4857     1   0.10304 312293.760000
   4858   4859     1   0.10910 283424.160000
   4858   4860     1   0.10910 283424.160000
   4861   4862     1   0.10969 276646.080000
   4861   4863     1   0.10969 276646.080000
   4864   4865     1   0.10969 276646.080000
   4864   4866     1   0.10969 276646.080000
   4867   4868     1   0.10304 312293.760000
   4867   4869     1   0.10304 312293.760000
   4867   4871     1   0.10304 312293.760000
   4872   4873     1   0.10910 283424.160000
   4872   4874     1   0.10910 283424.160000
   4875   4876     1   0.10969 276646.080000
   4875   4877     1   0.10969 276646.080000
   4878   4879     1   0.10969 276646.080000
   4878   4880     1   0.10969 276646.080000
   4881   4882     1   0.10304 312293.760000
   4881   4883     1   0.10304 312293.760000
   4881   4885     1   0.10304 312293.760000
   4886   4887     1   0.10910 283424.160000
   4886   4888     1   0.10910 283424.160000
   4889   4890     1   0.10969 276646.080000
   4889   4891     1   0.10969 276646.080000
   4892   4893     1   0.10969 276646.080000
   4892   4894     1   0.10969 276646.080000
   4895   4896     1   0.10304 312293.760000
   4895   4897     1   0.10304 312293.760000
   4895   4899     1   0.10304 312293.760000
   4900   4901     1   0.10910 283424.160000
   4900   4902     1   0.10910 283424.160000
   4903   4904     1   0.10969 276646.080000
   4903   4905     1   0.10969 276646.080000
   4906   4907     1   0.10969 276646.080000
   4906   4908     1   0.10969 276646.080000
   4909   4910     1   0.10304 312293.760000
   4909   4911     1   0.10304 312293.760000
   4909   4913     1   0.10304 312293.760000
   4914   4915     1   0.10910 283424.160000
   4914   4916     1   0.10910 283424.160000
   4917   4918     1   0.10969 276646.080000
   4917   4919     1   0.10969 276646.080000
   4920   4921     1   0.10969 276646.080000
   4920   4922     1   0.10969 276646.080000
   4923   4924     1   0.10304 312293.760000
   4923   4925     1   0.10304 312293.760000
   4923   4927     1   0.10304 312293.760000
   4928   4929     1   0.10910 283424.160000
   4928   4930     1   0.10910 283424.160000
   4931   4932     1   0.10969 276646.080000
   4931   4933     1   0.10969 276646.080000
   4934   4935     1   0.10969 276646.080000
   4934   4936     1   0.10969 276646.080000
   4937   4938     1   0.10304 312293.760000
   4937   4939     1   0.10304 312293.760000
   4937   4941     1   0.10304 312293.760000
   4942   4943     1   0.10910 283424.160000
   4942   4944     1   0.10910 283424.160000
   4945   4946     1   0.10969 276646.080000
   4945   4947     1   0.10969 276646.080000
   4948   4949     1   0.10969 276646.080000
   4948   4950     1   0.10969 276646.080000
   4951   4952     1   0.10304 312293.760000
   4951   4953     1   0.10304 312293.760000
   4951   4955     1   0.10304 312293.760000
   4956   4957     1   0.10910 283424.160000
   4956   4958     1   0.10910 283424.160000
   4959   4960     1   0.10969 276646.080000
   4959   4961     1   0.10969 276646.080000
   4962   4963     1   0.10969 276646.080000
   4962   4964     1   0.10969 276646.080000
   4965   4966     1   0.10304 312293.760000
   4965   4967     1   0.10304 312293.760000
   4965   4969     1   0.10304 312293.760000
   4970   4971     1   0.10910 283424.160000
   4970   4972     1   0.10910 283424.160000
   4973   4974     1   0.10969 276646.080000
   4973   4975     1   0.10969 276646.080000
   4976   4977     1   0.10969 276646.080000
   4976   4978     1   0.10969 276646.080000
   4979   4980     1   0.10304 312293.760000
   4979   4981     1   0.10304 312293.760000
   4979   4983     1   0.10304 312293.760000
   4984   4985     1   0.10910 283424.160000
   4984   4986     1   0.10910 283424.160000
   4987   4988     1   0.10969 276646.080000
   4987   4989     1   0.10969 276646.080000
   4990   4991     1   0.10969 276646.080000
   4990   4992     1   0.10969 276646.080000
   4993   4994     1   0.10304 312293.760000
   4993   4995     1   0.10304 312293.760000
   4993   4997     1   0.10304 312293.760000
   4998   4999     1   0.10910 283424.160000
   4998   5000     1   0.10910 283424.160000
   5001   5002     1   0.10969 276646.080000
   5001   5003     1   0.10969 276646.080000
   5004   5005     1   0.10969 276646.080000
   5004   5006     1   0.10969 276646.080000
   5007   5008     1   0.10304 312293.760000
   5007   5009     1   0.10304 312293.760000
   5007   5011     1   0.10304 312293.760000
   5012   5013     1   0.10910 283424.160000
   5012   5014     1   0.10910 283424.160000
   5015   5016     1   0.10969 276646.080000
   5015   5017     1   0.10969 276646.080000
   5018   5019     1   0.10969 276646.080000
   5018   5020     1   0.10969 276646.080000
   5021   5022     1   0.10304 312293.760000
   5021   5023     1   0.10304 312293.760000
   5021   5025     1   0.10304 312293.760000
   5026   5027     1   0.10910 283424.160000
   5026   5028     1   0.10910 283424.160000
   5029   5030     1   0.10969 276646.080000
   5029   5031     1   0.10969 276646.080000
   5032   5033     1   0.10969 276646.080000
   5032   5034     1   0.10969 276646.080000
   5035   5036     1   0.10304 312293.760000
   5035   5037     1   0.10304 312293.760000
   5035   5039     1   0.10304 312293.760000
   5040   5041     1   0.10910 283424.160000
   5040   5042     1   0.10910 283424.160000
   5043   5044     1   0.10969 276646.080000
   5043   5045     1   0.10969 276646.080000
   5046   5047     1   0.10969 276646.080000
   5046   5048     1   0.10969 276646.080000
   5049   5050     1   0.10304 312293.760000
   5049   5051     1   0.10304 312293.760000
   5049   5053     1   0.10304 312293.760000
   5054   5055     1   0.10910 283424.160000
   5054   5056     1   0.10910 283424.160000
   5057   5058     1   0.10969 276646.080000
   5057   5059     1   0.10969 276646.080000
   5060   5061     1   0.10969 276646.080000
   5060   5062     1   0.10969 276646.080000
   5063   5064     1   0.10304 312293.760000
   5063   5065     1   0.10304 312293.760000
   5063   5067     1   0.10304 312293.760000
   5068   5069     1   0.10910 283424.160000
   5068   5070     1   0.10910 283424.160000
   5071   5072     1   0.10969 276646.080000
   5071   5073     1   0.10969 276646.080000
   5074   5075     1   0.10969 276646.080000
   5074   5076     1   0.10969 276646.080000
   5077   5078     1   0.10304 312293.760000
   5077   5079     1   0.10304 312293.760000
   5077   5081     1   0.10304 312293.760000
   5082   5083     1   0.10910 283424.160000
   5082   5084     1   0.10910 283424.160000
   5085   5086     1   0.10969 276646.080000
   5085   5087     1   0.10969 276646.080000
   5088   5089     1   0.10969 276646.080000
   5088   5090     1   0.10969 276646.080000
   5091   5092     1   0.10304 312293.760000
   5091   5093     1   0.10304 312293.760000
   5091   5095     1   0.10304 312293.760000
   5096   5097     1   0.10910 283424.160000
   5096   5098     1   0.10910 283424.160000
   5099   5100     1   0.10969 276646.080000
   5099   5101     1   0.10969 276646.080000
   5102   5103     1   0.10969 276646.080000
   5102   5104     1   0.10969 276646.080000
   5105   5106     1   0.10304 312293.760000
   5105   5107     1   0.10304 312293.760000
   5105   5109     1   0.10304 312293.760000
   5110   5111     1   0.10910 283424.160000
   5110   5112     1   0.10910 283424.160000
   5113   5114     1   0.10969 276646.080000
   5113   5115     1   0.10969 276646.080000
   5116   5117     1   0.10969 276646.080000
   5116   5118     1   0.10969 276646.080000
   5119   5120     1   0.10304 312293.760000
   5119   5121     1   0.10304 312293.760000
   5119   5123     1   0.10304 312293.760000
   5124   5125     1   0.10910 283424.160000
   5124   5126     1   0.10910 283424.160000
   5127   5128     1   0.10969 276646.080000
   5127   5129     1   0.10969 276646.080000
   5130   5131     1   0.10969 276646.080000
   5130   5132     1   0.10969 276646.080000
   5133   5134     1   0.10304 312293.760000
   5133   5135     1   0.10304 312293.760000
   5133   5137     1   0.10304 312293.760000
   5138   5139     1   0.10910 283424.160000
   5138   5140     1   0.10910 283424.160000
   5141   5142     1   0.10969 276646.080000
   5141   5143     1   0.10969 276646.080000
   5144   5145     1   0.10969 276646.080000
   5144   5146     1   0.10969 276646.080000
   5147   5148     1   0.10304 312293.760000
   5147   5149     1   0.10304 312293.760000
   5147   5151     1   0.10304 312293.760000
   5152   5153     1   0.10910 283424.160000
   5152   5154     1   0.10910 283424.160000
   5155   5156     1   0.10969 276646.080000
   5155   5157     1   0.10969 276646.080000
   5158   5159     1   0.10969 276646.080000
   5158   5160     1   0.10969 276646.080000
   5161   5162     1   0.10304 312293.760000
   5161   5163     1   0.10304 312293.760000
   5161   5165     1   0.10304 312293.760000
   5166   5167     1   0.10910 283424.160000
   5166   5168     1   0.10910 283424.160000
   5169   5170     1   0.10969 276646.080000
   5169   5171     1   0.10969 276646.080000
   5172   5173     1   0.10969 276646.080000
   5172   5174     1   0.10969 276646.080000
   5175   5176     1   0.10304 312293.760000
   5175   5177     1   0.10304 312293.760000
   5175   5179     1   0.10304 312293.760000
   5180   5181     1   0.10910 283424.160000
   5180   5182     1   0.10910 283424.160000
   5183   5184     1   0.10969 276646.080000
   5183   5185     1   0.10969 276646.080000
   5186   5187     1   0.10969 276646.080000
   5186   5188     1   0.10969 276646.080000
   5189   5190     1   0.10304 312293.760000
   5189   5191     1   0.10304 312293.760000
   5189   5193     1   0.10304 312293.760000
   5194   5195     1   0.10910 283424.160000
   5194   5196     1   0.10910 283424.160000
   5197   5198     1   0.10969 276646.080000
   5197   5199     1   0.10969 276646.080000
   5200   5201     1   0.10969 276646.080000
   5200   5202     1   0.10969 276646.080000
   5203   5204     1   0.10304 312293.760000
   5203   5205     1   0.10304 312293.760000
   5203   5207     1   0.10304 312293.760000
   5208   5209     1   0.10910 283424.160000
   5208   5210     1   0.10910 283424.160000
   5211   5212     1   0.10969 276646.080000
   5211   5213     1   0.10969 276646.080000
   5214   5215     1   0.10969 276646.080000
   5214   5216     1   0.10969 276646.080000
   5217   5218     1   0.10304 312293.760000
   5217   5219     1   0.10304 312293.760000
   5217   5221     1   0.10304 312293.760000
   5222   5223     1   0.10910 283424.160000
   5222   5224     1   0.10910 283424.160000
   5225   5226     1   0.10969 276646.080000
   5225   5227     1   0.10969 276646.080000
   5228   5229     1   0.10969 276646.080000
   5228   5230     1   0.10969 276646.080000
   5231   5232     1   0.10304 312293.760000
   5231   5233     1   0.10304 312293.760000
   5231   5235     1   0.10304 312293.760000
   5236   5237     1   0.10910 283424.160000
   5236   5238     1   0.10910 283424.160000
   5239   5240     1   0.10969 276646.080000
   5239   5241     1   0.10969 276646.080000
   5242   5243     1   0.10969 276646.080000
   5242   5244     1   0.10969 276646.080000
   5245   5246     1   0.10304 312293.760000
   5245   5247     1   0.10304 312293.760000
   5245   5249     1   0.10304 312293.760000
   5250   5251     1   0.10910 283424.160000
   5250   5252     1   0.10910 283424.160000
   5253   5254     1   0.10969 276646.080000
   5253   5255     1   0.10969 276646.080000
   5256   5257     1   0.10969 276646.080000
   5256   5258     1   0.10969 276646.080000
   5259   5260     1   0.10304 312293.760000
   5259   5261     1   0.10304 312293.760000
   5259   5263     1   0.10304 312293.760000
   5264   5265     1   0.10910 283424.160000
   5264   5266     1   0.10910 283424.160000
   5267   5268     1   0.10969 276646.080000
   5267   5269     1   0.10969 276646.080000
   5270   5271     1   0.10969 276646.080000
   5270   5272     1   0.10969 276646.080000
   5273   5274     1   0.10304 312293.760000
   5273   5275     1   0.10304 312293.760000
   5273   5277     1   0.10304 312293.760000
   5278   5279     1   0.10910 283424.160000
   5278   5280     1   0.10910 283424.160000
   5281   5282     1   0.10969 276646.080000
   5281   5283     1   0.10969 276646.080000
   5284   5285     1   0.10969 276646.080000
   5284   5286     1   0.10969 276646.080000
   5287   5288     1   0.10304 312293.760000
   5287   5289     1   0.10304 312293.760000
   5287   5291     1   0.10304 312293.760000
   5292   5293     1   0.10910 283424.160000
   5292   5294     1   0.10910 283424.160000
   5295   5296     1   0.10969 276646.080000
   5295   5297     1   0.10969 276646.080000
   5298   5299     1   0.10969 276646.080000
   5298   5300     1   0.10969 276646.080000
   5301   5302     1   0.10304 312293.760000
   5301   5303     1   0.10304 312293.760000
   5301   5305     1   0.10304 312293.760000
   5306   5307     1   0.10910 283424.160000
   5306   5308     1   0.10910 283424.160000
   5309   5310     1   0.10969 276646.080000
   5309   5311     1   0.10969 276646.080000
   5312   5313     1   0.10969 276646.080000
   5312   5314     1   0.10969 276646.080000
   5315   5316     1   0.10304 312293.760000
   5315   5317     1   0.10304 312293.760000
   5315   5319     1   0.10304 312293.760000
   5320   5321     1   0.10910 283424.160000
   5320   5322     1   0.10910 283424.160000
   5323   5324     1   0.10969 276646.080000
   5323   5325     1   0.10969 276646.080000
   5326   5327     1   0.10969 276646.080000
   5326   5328     1   0.10969 276646.080000
   5329   5330     1   0.10304 312293.760000
   5329   5331     1   0.10304 312293.760000
   5329   5333     1   0.10304 312293.760000
   5334   5335     1   0.10910 283424.160000
   5334   5336     1   0.10910 283424.160000
   5337   5338     1   0.10969 276646.080000
   5337   5339     1   0.10969 276646.080000
   5340   5341     1   0.10969 276646.080000
   5340   5342     1   0.10969 276646.080000
   5343   5344     1   0.10304 312293.760000
   5343   5345     1   0.10304 312293.760000
   5343   5347     1   0.10304 312293.760000
   5348   5349     1   0.10910 283424.160000
   5348   5350     1   0.10910 283424.160000
   5351   5352     1   0.10969 276646.080000
   5351   5353     1   0.10969 276646.080000
   5354   5355     1   0.10969 276646.080000
   5354   5356     1   0.10969 276646.080000
   5357   5358     1   0.10304 312293.760000
   5357   5359     1   0.10304 312293.760000
   5357   5361     1   0.10304 312293.760000
   5362   5363     1   0.10910 283424.160000
   5362   5364     1   0.10910 283424.160000
   5365   5366     1   0.10969 276646.080000
   5365   5367     1   0.10969 276646.080000
   5368   5369     1   0.10969 276646.080000
   5368   5370     1   0.10969 276646.080000
   5371   5372     1   0.10304 312293.760000
   5371   5373     1   0.10304 312293.760000
   5371   5375     1   0.10304 312293.760000
   5376   5377     1   0.10910 283424.160000
   5376   5378     1   0.10910 283424.160000
   5379   5380     1   0.10969 276646.080000
   5379   5381     1   0.10969 276646.080000
   5382   5383     1   0.10969 276646.080000
   5382   5384     1   0.10969 276646.080000
   5385   5386     1   0.10304 312293.760000
   5385   5387     1   0.10304 312293.760000
   5385   5389     1   0.10304 312293.760000
   5390   5391     1   0.10910 283424.160000
   5390   5392     1   0.10910 283424.160000
   5393   5394     1   0.10969 276646.080000
   5393   5395     1   0.10969 276646.080000
   5396   5397     1   0.10969 276646.080000
   5396   5398     1   0.10969 276646.080000
   5399   5400     1   0.10304 312293.760000
   5399   5401     1   0.10304 312293.760000
   5399   5403     1   0.10304 312293.760000
   5404   5405     1   0.10910 283424.160000
   5404   5406     1   0.10910 283424.160000
   5407   5408     1   0.10969 276646.080000
   5407   5409     1   0.10969 276646.080000
   5410   5411     1   0.10969 276646.080000
   5410   5412     1   0.10969 276646.080000
   5413   5414     1   0.10304 312293.760000
   5413   5415     1   0.10304 312293.760000
   5413   5417     1   0.10304 312293.760000
   5418   5419     1   0.10910 283424.160000
   5418   5420     1   0.10910 283424.160000
   5421   5422     1   0.10969 276646.080000
   5421   5423     1   0.10969 276646.080000
   5424   5425     1   0.10969 276646.080000
   5424   5426     1   0.10969 276646.080000
   5427   5428     1   0.10304 312293.760000
   5427   5429     1   0.10304 312293.760000
   5427   5431     1   0.10304 312293.760000
   5432   5433     1   0.10910 283424.160000
   5432   5434     1   0.10910 283424.160000
   5435   5436     1   0.10969 276646.080000
   5435   5437     1   0.10969 276646.080000
   5438   5439     1   0.10969 276646.080000
   5438   5440     1   0.10969 276646.080000
   5441   5442     1   0.10304 312293.760000
   5441   5443     1   0.10304 312293.760000
   5441   5445     1   0.10304 312293.760000
   5446   5447     1   0.10910 283424.160000
   5446   5448     1   0.10910 283424.160000
   5449   5450     1   0.10969 276646.080000
   5449   5451     1   0.10969 276646.080000
   5452   5453     1   0.10969 276646.080000
   5452   5454     1   0.10969 276646.080000
   5455   5456     1   0.10304 312293.760000
   5455   5457     1   0.10304 312293.760000
   5455   5459     1   0.10304 312293.760000
   5460   5461     1   0.10910 283424.160000
   5460   5462     1   0.10910 283424.160000
   5463   5464     1   0.10969 276646.080000
   5463   5465     1   0.10969 276646.080000
   5466   5467     1   0.10969 276646.080000
   5466   5468     1   0.10969 276646.080000
   5469   5470     1   0.10304 312293.760000
   5469   5471     1   0.10304 312293.760000
   5469   5473     1   0.10304 312293.760000
   5474   5475     1   0.10910 283424.160000
   5474   5476     1   0.10910 283424.160000
   5477   5478     1   0.10969 276646.080000
   5477   5479     1   0.10969 276646.080000
   5480   5481     1   0.10969 276646.080000
   5480   5482     1   0.10969 276646.080000
   5483   5484     1   0.10304 312293.760000
   5483   5485     1   0.10304 312293.760000
   5483   5487     1   0.10304 312293.760000
   5488   5489     1   0.10910 283424.160000
   5488   5490     1   0.10910 283424.160000
   5491   5492     1   0.10969 276646.080000
   5491   5493     1   0.10969 276646.080000
   5494   5495     1   0.10969 276646.080000
   5494   5496     1   0.10969 276646.080000
   5497   5498     1   0.10304 312293.760000
   5497   5499     1   0.10304 312293.760000
   5497   5501     1   0.10304 312293.760000
   5502   5503     1   0.10910 283424.160000
   5502   5504     1   0.10910 283424.160000
   5505   5506     1   0.10969 276646.080000
   5505   5507     1   0.10969 276646.080000
   5508   5509     1   0.10969 276646.080000
   5508   5510     1   0.10969 276646.080000
   5511   5512     1   0.10304 312293.760000
   5511   5513     1   0.10304 312293.760000
   5511   5515     1   0.10304 312293.760000
   5516   5517     1   0.10910 283424.160000
   5516   5518     1   0.10910 283424.160000
   5519   5520     1   0.10969 276646.080000
   5519   5521     1   0.10969 276646.080000
   5522   5523     1   0.10969 276646.080000
   5522   5524     1   0.10969 276646.080000
   5525   5526     1   0.10304 312293.760000
   5525   5527     1   0.10304 312293.760000
   5525   5529     1   0.10304 312293.760000
   5530   5531     1   0.10910 283424.160000
   5530   5532     1   0.10910 283424.160000
   5533   5534     1   0.10969 276646.080000
   5533   5535     1   0.10969 276646.080000
   5536   5537     1   0.10969 276646.080000
   5536   5538     1   0.10969 276646.080000
   5539   5540     1   0.10304 312293.760000
   5539   5541     1   0.10304 312293.760000
   5539   5543     1   0.10304 312293.760000
   5544   5545     1   0.10910 283424.160000
   5544   5546     1   0.10910 283424.160000
   5547   5548     1   0.10969 276646.080000
   5547   5549     1   0.10969 276646.080000
   5550   5551     1   0.10969 276646.080000
   5550   5552     1   0.10969 276646.080000
   5553   5554     1   0.10304 312293.760000
   5553   5555     1   0.10304 312293.760000
   5553   5557     1   0.10304 312293.760000
   5558   5559     1   0.10910 283424.160000
   5558   5560     1   0.10910 283424.160000
   5561   5562     1   0.10969 276646.080000
   5561   5563     1   0.10969 276646.080000
   5564   5565     1   0.10969 276646.080000
   5564   5566     1   0.10969 276646.080000
   5567   5568     1   0.10304 312293.760000
   5567   5569     1   0.10304 312293.760000
   5567   5571     1   0.10304 312293.760000

[ pairs ]
;    ai     aj funct         c0         c1         c2         c3
      1     14     1
      1     17     1
      2     11     1
      2     20     1
      5      8     1
      5     21     1
      8     28     1
      8     31     1
     11     22     1
     11     25     1
     14     40     1
     14     43     1
     17     34     1
     17     37     1
     20     49     1
     20     46     1
     21     55     1
     21     52     1
     22     37     1
     22    178     1
     25     34     1
     25    148     1
     28     43     1
     28    118     1
     31     40     1
     31     88     1
     34    169     1
     37    139     1
     40    109     1
     43     79     1
     46     70     1
     49    100     1
     52    130     1
     55    160     1
     60     85     1
     60     82     1
     60     79     1
     61     76     1
     61     70     1
     61    238     1
     64     73     1
     64     70     1
     64    208     1
     67     73     1
     67     76     1
     67     88     1
     73    229     1
     76    199     1
     82    190     1
     85    220     1
     90    115     1
     90    112     1
     90    109     1
     91    106     1
     91    100     1
     91    298     1
     94    103     1
     94    100     1
     94    268     1
     97    103     1
     97    106     1
     97    118     1
    103    289     1
    106    259     1
    112    250     1
    115    280     1
    120    145     1
    120    142     1
    120    139     1
    121    136     1
    121    130     1
    121    358     1
    124    133     1
    124    130     1
    124    328     1
    127    133     1
    127    136     1
    127    148     1
    133    349     1
    136    319     1
    142    310     1
    145    340     1
    150    175     1
    150    172     1
    150    169     1
    151    166     1
    151    160     1
    151    418     1
    154    163     1
    154    160     1
    154    388     1
    157    163     1
    157    166     1
    157    178     1
    163    409     1
    166    379     1
    172    370     1
    175    400     1
    180    205     1
    180    202     1
    180    199     1
    181    196     1
    181    190     1
    181    478     1
    184    193     1
    184    190     1
    184    448     1
    187    193     1
    187    196     1
    187    208     1
    193    469     1
    196    439     1
    202    430     1
    205    460     1
    210    235     1
    210    232     1
    210    229     1
    211    226     1
    211    220     1
    211    538     1
    214    223     1
    214    220     1
    214    508     1
    217    223     1
    217    226     1
    217    238     1
    223    529     1
    226    499     1
    232    490     1
    235    520     1
    240    265     1
    240    262     1
    240    259     1
    241    256     1
    241    250     1
    241    598     1
    244    253     1
    244    250     1
    244    568     1
    247    253     1
    247    256     1
    247    268     1
    253    589     1
    256    559     1
    262    550     1
    265    580     1
    270    295     1
    270    292     1
    270    289     1
    271    286     1
    271    280     1
    271    658     1
    274    283     1
    274    280     1
    274    628     1
    277    283     1
    277    286     1
    277    298     1
    283    649     1
    286    619     1
    292    610     1
    295    640     1
    300    325     1
    300    322     1
    300    319     1
    301    316     1
    301    310     1
    301    718     1
    304    313     1
    304    310     1
    304    688     1
    307    313     1
    307    316     1
    307    328     1
    313    709     1
    316    679     1
    322    670     1
    325    700     1
    330    355     1
    330    352     1
    330    349     1
    331    346     1
    331    340     1
    331    778     1
    334    343     1
    334    340     1
    334    748     1
    337    343     1
    337    346     1
    337    358     1
    343    769     1
    346    739     1
    352    730     1
    355    760     1
    360    385     1
    360    382     1
    360    379     1
    361    376     1
    361    370     1
    361    838     1
    364    373     1
    364    370     1
    364    808     1
    367    373     1
    367    376     1
    367    388     1
    373    829     1
    376    799     1
    382    790     1
    385    820     1
    390    415     1
    390    412     1
    390    409     1
    391    406     1
    391    400     1
    391    898     1
    394    403     1
    394    400     1
    394    868     1
    397    403     1
    397    406     1
    397    418     1
    403    889     1
    406    859     1
    412    850     1
    415    880     1
    420    445     1
    420    442     1
    420    439     1
    421    436     1
    421    430     1
    421    958     1
    424    433     1
    424    430     1
    424    928     1
    427    433     1
    427    436     1
    427    448     1
    433    949     1
    436    919     1
    442    910     1
    445    940     1
    450    475     1
    450    472     1
    450    469     1
    451    466     1
    451    460     1
    451   1018     1
    454    463     1
    454    460     1
    454    988     1
    457    463     1
    457    466     1
    457    478     1
    463   1009     1
    466    979     1
    472    970     1
    475   1000     1
    480    505     1
    480    502     1
    480    499     1
    481    496     1
    481    490     1
    481   1078     1
    484    493     1
    484    490     1
    484   1048     1
    487    493     1
    487    496     1
    487    508     1
    493   1069     1
    496   1039     1
    502   1030     1
    505   1060     1
    510    535     1
    510    532     1
    510    529     1
    511    526     1
    511    520     1
    511   1138     1
    514    523     1
    514    520     1
    514   1108     1
    517    523     1
    517    526     1
    517    538     1
    523   1129     1
    526   1099     1
    532   1090     1
    535   1120     1
    540    565     1
    540    562     1
    540    559     1
    541    556     1
    541    550     1
    541   1198     1
    544    553     1
    544    550     1
    544   1168     1
    547    553     1
    547    556     1
    547    568     1
    553   1189     1
    556   1159     1
    562   1150     1
    565   1180     1
    570    595     1
    570    592     1
    570    589     1
    571    586     1
    571    580     1
    571   1258     1
    574    583     1
    574    580     1
    574   1228     1
    577    583     1
    577    586     1
    577    598     1
    583   1249     1
    586   1219     1
    592   1210     1
    595   1240     1
    600    625     1
    600    622     1
    600    619     1
    601    616     1
    601    610     1
    601   1318     1
    604    613     1
    604    610     1
    604   1288     1
    607    613     1
    607    616     1
    607    628     1
    613   1309     1
    616   1279     1
    622   1270     1
    625   1300     1
    630    655     1
    630    652     1
    630    649     1
    631    646     1
    631    640     1
    631   1378     1
    634    643     1
    634    640     1
    634   1348     1
    637    643     1
    637    646     1
    637    658     1
    643   1369     1
    646   1339     1
    652   1330     1
    655   1360     1
    660    685     1
    660    682     1
    660    679     1
    661    676     1
    661    670     1
    661   1438     1
    664    673     1
    664    670     1
    664   1408     1
    667    673     1
    667    676     1
    667    688     1
    673   1429     1
    676   1399     1
    682   1390     1
    685   1420     1
    690    715     1
    690    712     1
    690    709     1
    691    706     1
    691    700     1
    691   1498     1
    694    703     1
    694    700     1
    694   1468     1
    697    703     1
    697    706     1
    697    718     1
    703   1489     1
    706   1459     1
    712   1450     1
    715   1480     1
    720    745     1
    720    742     1
    720    739     1
    721    736     1
    721    730     1
    721   1558     1
    724    733     1
    724    730     1
    724   1528     1
    727    733     1
    727    736     1
    727    748     1
    733   1549     1
    736   1519     1
    742   1510     1
    745   1540     1
    750    775     1
    750    772     1
    750    769     1
    751    766     1
    751    760     1
    751   1618     1
    754    763     1
    754    760     1
    754   1588     1
    757    763     1
    757    766     1
    757    778     1
    763   1609     1
    766   1579     1
    772   1570     1
    775   1600     1
    780    805     1
    780    802     1
    780    799     1
    781    796     1
    781    790     1
    781   1678     1
    784    793     1
    784    790     1
    784   1648     1
    787    793     1
    787    796     1
    787    808     1
    793   1669     1
    796   1639     1
    802   1630     1
    805   1660     1
    810    835     1
    810    832     1
    810    829     1
    811    826     1
    811    820     1
    811   1738     1
    814    823     1
    814    820     1
    814   1708     1
    817    823     1
    817    826     1
    817    838     1
    823   1729     1
    826   1699     1
    832   1690     1
    835   1720     1
    840    865     1
    840    862     1
    840    859     1
    841    856     1
    841    850     1
    841   1798     1
    844    853     1
    844    850     1
    844   1768     1
    847    853     1
    847    856     1
    847    868     1
    853   1789     1
    856   1759     1
    862   1750     1
    865   1780     1
    870    895     1
    870    892     1
    870    889     1
    871    886     1
    871    880     1
    871   1858     1
    874    883     1
    874    880     1
    874   1828     1
    877    883     1
    877    886     1
    877    898     1
    883   1849     1
    886   1819     1
    892   1810     1
    895   1840     1
    900    925     1
    900    922     1
    900    919     1
    901    916     1
    901    910     1
    901   1918     1
    904    913     1
    904    910     1
    904   1888     1
    907    913     1
    907    916     1
    907    928     1
    913   1909     1
    916   1879     1
    922   1870     1
    925   1900     1
    930    955     1
    930    952     1
    930    949     1
    931    946     1
    931    940     1
    931   1978     1
    934    943     1
    934    940     1
    934   1948     1
    937    943     1
    937    946     1
    937    958     1
    943   1969     1
    946   1939     1
    952   1930     1
    955   1960     1
    960    985     1
    960    982     1
    960    979     1
    961    976     1
    961    970     1
    961   2038     1
    964    973     1
    964    970     1
    964   2008     1
    967    973     1
    967    976     1
    967    988     1
    973   2029     1
    976   1999     1
    982   1990     1
    985   2020     1
    990   1015     1
    990   1012     1
    990   1009     1
    991   1006     1
    991   1000     1
    991   2098     1
    994   1003     1
    994   1000     1
    994   2068     1
    997   1003     1
    997   1006     1
    997   1018     1
   1003   2089     1
   1006   2059     1
   1012   2050     1
   1015   2080     1
   1020   1045     1
   1020   1042     1
   1020   1039     1
   1021   1036     1
   1021   1030     1
   1021   2158     1
   1024   1033     1
   1024   1030     1
   1024   2128     1
   1027   1033     1
   1027   1036     1
   1027   1048     1
   1033   2149     1
   1036   2119     1
   1042   2110     1
   1045   2140     1
   1050   1075     1
   1050   1072     1
   1050   1069     1
   1051   1066     1
   1051   1060     1
   1051   2218     1
   1054   1063     1
   1054   1060     1
   1054   2188     1
   1057   1063     1
   1057   1066     1
   1057   1078     1
   1063   2209     1
   1066   2179     1
   1072   2170     1
   1075   2200     1
   1080   1105     1
   1080   1102     1
   1080   1099     1
   1081   1096     1
   1081   1090     1
   1081   2278     1
   1084   1093     1
   1084   1090     1
   1084   2248     1
   1087   1093     1
   1087   1096     1
   1087   1108     1
   1093   2269     1
   1096   2239     1
   1102   2230     1
   1105   2260     1
   1110   1135     1
   1110   1132     1
   1110   1129     1
   1111   1126     1
   1111   1120     1
   1111   2338     1
   1114   1123     1
   1114   1120     1
   1114   2308     1
   1117   1123     1
   1117   1126     1
   1117   1138     1
   1123   2329     1
   1126   2299     1
   1132   2290     1
   1135   2320     1
   1140   1165     1
   1140   1162     1
   1140   1159     1
   1141   1156     1
   1141   1150     1
   1141   2398     1
   1144   1153     1
   1144   1150     1
   1144   2368     1
   1147   1153     1
   1147   1156     1
   1147   1168     1
   1153   2389     1
   1156   2359     1
   1162   2350     1
   1165   2380     1
   1170   1195     1
   1170   1192     1
   1170   1189     1
   1171   1186     1
   1171   1180     1
   1171   2458     1
   1174   1183     1
   1174   1180     1
   1174   2428     1
   1177   1183     1
   1177   1186     1
   1177   1198     1
   1183   2449     1
   1186   2419     1
   1192   2410     1
   1195   2440     1
   1200   1225     1
   1200   1222     1
   1200   1219     1
   1201   1216     1
   1201   1210     1
   1201   2518     1
   1204   1213     1
   1204   1210     1
   1204   2488     1
   1207   1213     1
   1207   1216     1
   1207   1228     1
   1213   2509     1
   1216   2479     1
   1222   2470     1
   1225   2500     1
   1230   1255     1
   1230   1252     1
   1230   1249     1
   1231   1246     1
   1231   1240     1
   1231   2578     1
   1234   1243     1
   1234   1240     1
   1234   2548     1
   1237   1243     1
   1237   1246     1
   1237   1258     1
   1243   2569     1
   1246   2539     1
   1252   2530     1
   1255   2560     1
   1260   1285     1
   1260   1282     1
   1260   1279     1
   1261   1276     1
   1261   1270     1
   1261   2638     1
   1264   1273     1
   1264   1270     1
   1264   2608     1
   1267   1273     1
   1267   1276     1
   1267   1288     1
   1273   2629     1
   1276   2599     1
   1282   2590     1
   1285   2620     1
   1290   1315     1
   1290   1312     1
   1290   1309     1
   1291   1306     1
   1291   1300     1
   1291   2698     1
   1294   1303     1
   1294   1300     1
   1294   2668     1
   1297   1303     1
   1297   1306     1
   1297   1318     1
   1303   2689     1
   1306   2659     1
   1312   2650     1
   1315   2680     1
   1320   1345     1
   1320   1342     1
   1320   1339     1
   1321   1336     1
   1321   1330     1
   1321   2758     1
   1324   1333     1
   1324   1330     1
   1324   2728     1
   1327   1333     1
   1327   1336     1
   1327   1348     1
   1333   2749     1
   1336   2719     1
   1342   2710     1
   1345   2740     1
   1350   1375     1
   1350   1372     1
   1350   1369     1
   1351   1366     1
   1351   1360     1
   1351   2818     1
   1354   1363     1
   1354   1360     1
   1354   2788     1
   1357   1363     1
   1357   1366     1
   1357   1378     1
   1363   2809     1
   1366   2779     1
   1372   2770     1
   1375   2800     1
   1380   1405     1
   1380   1402     1
   1380   1399     1
   1381   1396     1
   1381   1390     1
   1381   2878     1
   1384   1393     1
   1384   1390     1
   1384   2848     1
   1387   1393     1
   1387   1396     1
   1387   1408     1
   1393   2869     1
   1396   2839     1
   1402   2830     1
   1405   2860     1
   1410   1435     1
   1410   1432     1
   1410   1429     1
   1411   1426     1
   1411   1420     1
   1411   2938     1
   1414   1423     1
   1414   1420     1
   1414   2908     1
   1417   1423     1
   1417   1426     1
   1417   1438     1
   1423   2929     1
   1426   2899     1
   1432   2890     1
   1435   2920     1
   1440   1465     1
   1440   1462     1
   1440   1459     1
   1441   1456     1
   1441   1450     1
   1441   2998     1
   1444   1453     1
   1444   1450     1
   1444   2968     1
   1447   1453     1
   1447   1456     1
   1447   1468     1
   1453   2989     1
   1456   2959     1
   1462   2950     1
   1465   2980     1
   1470   1495     1
   1470   1492     1
   1470   1489     1
   1471   1486     1
   1471   1480     1
   1471   3058     1
   1474   1483     1
   1474   1480     1
   1474   3028     1
   1477   1483     1
   1477   1486     1
   1477   1498     1
   1483   3049     1
   1486   3019     1
   1492   3010     1
   1495   3040     1
   1500   1525     1
   1500   1522     1
   1500   1519     1
   1501   1516     1
   1501   1510     1
   1501   3118     1
   1504   1513     1
   1504   1510     1
   1504   3088     1
   1507   1513     1
   1507   1516     1
   1507   1528     1
   1513   3109     1
   1516   3079     1
   1522   3070     1
   1525   3100     1
   1530   1555     1
   1530   1552     1
   1530   1549     1
   1531   1546     1
   1531   1540     1
   1531   3178     1
   1534   1543     1
   1534   1540     1
   1534   3148     1
   1537   1543     1
   1537   1546     1
   1537   1558     1
   1543   3169     1
   1546   3139     1
   1552   3130     1
   1555   3160     1
   1560   1585     1
   1560   1582     1
   1560   1579     1
   1561   1576     1
   1561   1570     1
   1561   3238     1
   1564   1573     1
   1564   1570     1
   1564   3208     1
   1567   1573     1
   1567   1576     1
   1567   1588     1
   1573   3229     1
   1576   3199     1
   1582   3190     1
   1585   3220     1
   1590   1615     1
   1590   1612     1
   1590   1609     1
   1591   1606     1
   1591   1600     1
   1591   3298     1
   1594   1603     1
   1594   1600     1
   1594   3268     1
   1597   1603     1
   1597   1606     1
   1597   1618     1
   1603   3289     1
   1606   3259     1
   1612   3250     1
   1615   3280     1
   1620   1645     1
   1620   1642     1
   1620   1639     1
   1621   1636     1
   1621   1630     1
   1621   3358     1
   1624   1633     1
   1624   1630     1
   1624   3328     1
   1627   1633     1
   1627   1636     1
   1627   1648     1
   1633   3349     1
   1636   3319     1
   1642   3310     1
   1645   3340     1
   1650   1675     1
   1650   1672     1
   1650   1669     1
   1651   1666     1
   1651   1660     1
   1651   3418     1
   1654   1663     1
   1654   1660     1
   1654   3388     1
   1657   1663     1
   1657   1666     1
   1657   1678     1
   1663   3409     1
   1666   3379     1
   1672   3370     1
   1675   3400     1
   1680   1705     1
   1680   1702     1
   1680   1699     1
   1681   1696     1
   1681   1690     1
   1681   3478     1
   1684   1693     1
   1684   1690     1
   1684   3448     1
   1687   1693     1
   1687   1696     1
   1687   1708     1
   1693   3469     1
   1696   3439     1
   1702   3430     1
   1705   3460     1
   1710   1735     1
   1710   1732     1
   1710   1729     1
   1711   1726     1
   1711   1720     1
   1711   3538     1
   1714   1723     1
   1714   1720     1
   1714   3508     1
   1717   1723     1
   1717   1726     1
   1717   1738     1
   1723   3529     1
   1726   3499     1
   1732   3490     1
   1735   3520     1
   1740   1765     1
   1740   1762     1
   1740   1759     1
   1741   1756     1
   1741   1750     1
   1741   3598     1
   1744   1753     1
   1744   1750     1
   1744   3568     1
   1747   1753     1
   1747   1756     1
   1747   1768     1
   1753   3589     1
   1756   3559     1
   1762   3550     1
   1765   3580     1
   1770   1795     1
   1770   1792     1
   1770   1789     1
   1771   1786     1
   1771   1780     1
   1771   3658     1
   1774   1783     1
   1774   1780     1
   1774   3628     1
   1777   1783     1
   1777   1786     1
   1777   1798     1
   1783   3649     1
   1786   3619     1
   1792   3610     1
   1795   3640     1
   1800   1825     1
   1800   1822     1
   1800   1819     1
   1801   1816     1
   1801   1810     1
   1801   3718     1
   1804   1813     1
   1804   1810     1
   1804   3688     1
   1807   1813     1
   1807   1816     1
   1807   1828     1
   1813   3709     1
   1816   3679     1
   1822   3670     1
   1825   3700     1
   1830   1855     1
   1830   1852     1
   1830   1849     1
   1831   1846     1
   1831   1840     1
   1831   3778     1
   1834   1843     1
   1834   1840     1
   1834   3748     1
   1837   1843     1
   1837   1846     1
   1837   1858     1
   1843   3769     1
   1846   3739     1
   1852   3730     1
   1855   3760     1
   1860   1885     1
   1860   1882     1
   1860   1879     1
   1861   1876     1
   1861   1870     1
   1861   3806     1
   1864   1873     1
   1864   1870     1
   1864   3792     1
   1867   1873     1
   1867   1876     1
   1867   1888     1
   1873   3800     1
   1876   3786     1
   1882   3783     1
   1885   3797     1
   1890   1915     1
   1890   1912     1
   1890   1909     1
   1891   1906     1
   1891   1900     1
   1891   3834     1
   1894   1903     1
   1894   1900     1
   1894   3820     1
   1897   1903     1
   1897   1906     1
   1897   1918     1
   1903   3828     1
   1906   3814     1
   1912   3811     1
   1915   3825     1
   1920   1945     1
   1920   1942     1
   1920   1939     1
   1921   1936     1
   1921   1930     1
   1921   3862     1
   1924   1933     1
   1924   1930     1
   1924   3848     1
   1927   1933     1
   1927   1936     1
   1927   1948     1
   1933   3856     1
   1936   3842     1
   1942   3839     1
   1945   3853     1
   1950   1975     1
   1950   1972     1
   1950   1969     1
   1951   1966     1
   1951   1960     1
   1951   3890     1
   1954   1963     1
   1954   1960     1
   1954   3876     1
   1957   1963     1
   1957   1966     1
   1957   1978     1
   1963   3884     1
   1966   3870     1
   1972   3867     1
   1975   3881     1
   1980   2005     1
   1980   2002     1
   1980   1999     1
   1981   1996     1
   1981   1990     1
   1981   3918     1
   1984   1993     1
   1984   1990     1
   1984   3904     1
   1987   1993     1
   1987   1996     1
   1987   2008     1
   1993   3912     1
   1996   3898     1
   2002   3895     1
   2005   3909     1
   2010   2035     1
   2010   2032     1
   2010   2029     1
   2011   2026     1
   2011   2020     1
   2011   3946     1
   2014   2023     1
   2014   2020     1
   2014   3932     1
   2017   2023     1
   2017   2026     1
   2017   2038     1
   2023   3940     1
   2026   3926     1
   2032   3923     1
   2035   3937     1
   2040   2065     1
   2040   2062     1
   2040   2059     1
   2041   2056     1
   2041   2050     1
   2041   3974     1
   2044   2053     1
   2044   2050     1
   2044   3960     1
   2047   2053     1
   2047   2056     1
   2047   2068     1
   2053   3968     1
   2056   3954     1
   2062   3951     1
   2065   3965     1
   2070   2095     1
   2070   2092     1
   2070   2089     1
   2071   2086     1
   2071   2080     1
   2071   4002     1
   2074   2083     1
   2074   2080     1
   2074   3988     1
   2077   2083     1
   2077   2086     1
   2077   2098     1
   2083   3996     1
   2086   3982     1
   2092   3979     1
   2095   3993     1
   2100   2125     1
   2100   2122     1
   2100   2119     1
   2101   2116     1
   2101   2110     1
   2101   4030     1
   2104   2113     1
   2104   2110     1
   2104   4016     1
   2107   2113     1
   2107   2116     1
   2107   2128     1
   2113   4024     1
   2116   4010     1
   2122   4007     1
   2125   4021     1
   2130   2155     1
   2130   2152     1
   2130   2149     1
   2131   2146     1
   2131   2140     1
   2131   4058     1
   2134   2143     1
   2134   2140     1
   2134   4044     1
   2137   2143     1
   2137   2146     1
   2137   2158     1
   2143   4052     1
   2146   4038     1
   2152   4035     1
   2155   4049     1
   2160   2185     1
   2160   2182     1
   2160   2179     1
   2161   2176     1
   2161   2170     1
   2161   4086     1
   2164   2173     1
   2164   2170     1
   2164   4072     1
   2167   2173     1
   2167   2176     1
   2167   2188     1
   2173   4080     1
   2176   4066     1
   2182   4063     1
   2185   4077     1
   2190   2215     1
   2190   2212     1
   2190   2209     1
   2191   2206     1
   2191   2200     1
   2191   4114     1
   2194   2203     1
   2194   2200     1
   2194   4100     1
   2197   2203     1
   2197   2206     1
   2197   2218     1
   2203   4108     1
   2206   4094     1
   2212   4091     1
   2215   4105     1
   2220   2245     1
   2220   2242     1
   2220   2239     1
   2221   2236     1
   2221   2230     1
   2221   4142     1
   2224   2233     1
   2224   2230     1
   2224   4128     1
   2227   2233     1
   2227   2236     1
   2227   2248     1
   2233   4136     1
   2236   4122     1
   2242   4119     1
   2245   4133     1
   2250   2275     1
   2250   2272     1
   2250   2269     1
   2251   2266     1
   2251   2260     1
   2251   4170     1
   2254   2263     1
   2254   2260     1
   2254   4156     1
   2257   2263     1
   2257   2266     1
   2257   2278     1
   2263   4164     1
   2266   4150     1
   2272   4147     1
   2275   4161     1
   2280   2305     1
   2280   2302     1
   2280   2299     1
   2281   2296     1
   2281   2290     1
   2281   4198     1
   2284   2293     1
   2284   2290     1
   2284   4184     1
   2287   2293     1
   2287   2296     1
   2287   2308     1
   2293   4192     1
   2296   4178     1
   2302   4175     1
   2305   4189     1
   2310   2335     1
   2310   2332     1
   2310   2329     1
   2311   2326     1
   2311   2320     1
   2311   4226     1
   2314   2323     1
   2314   2320     1
   2314   4212     1
   2317   2323     1
   2317   2326     1
   2317   2338     1
   2323   4220     1
   2326   4206     1
   2332   4203     1
   2335   4217     1
   2340   2365     1
   2340   2362     1
   2340   2359     1
   2341   2356     1
   2341   2350     1
   2341   4254     1
   2344   2353     1
   2344   2350     1
   2344   4240     1
   2347   2353     1
   2347   2356     1
   2347   2368     1
   2353   4248     1
   2356   4234     1
   2362   4231     1
   2365   4245     1
   2370   2395     1
   2370   2392     1
   2370   2389     1
   2371   2386     1
   2371   2380     1
   2371   4282     1
   2374   2383     1
   2374   2380     1
   2374   4268     1
   2377   2383     1
   2377   2386     1
   2377   2398     1
   2383   4276     1
   2386   4262     1
   2392   4259     1
   2395   4273     1
   2400   2425     1
   2400   2422     1
   2400   2419     1
   2401   2416     1
   2401   2410     1
   2401   4310     1
   2404   2413     1
   2404   2410     1
   2404   4296     1
   2407   2413     1
   2407   2416     1
   2407   2428     1
   2413   4304     1
   2416   4290     1
   2422   4287     1
   2425   4301     1
   2430   2455     1
   2430   2452     1
   2430   2449     1
   2431   2446     1
   2431   2440     1
   2431   4338     1
   2434   2443     1
   2434   2440     1
   2434   4324     1
   2437   2443     1
   2437   2446     1
   2437   2458     1
   2443   4332     1
   2446   4318     1
   2452   4315     1
   2455   4329     1
   2460   2485     1
   2460   2482     1
   2460   2479     1
   2461   2476     1
   2461   2470     1
   2461   4366     1
   2464   2473     1
   2464   2470     1
   2464   4352     1
   2467   2473     1
   2467   2476     1
   2467   2488     1
   2473   4360     1
   2476   4346     1
   2482   4343     1
   2485   4357     1
   2490   2515     1
   2490   2512     1
   2490   2509     1
   2491   2506     1
   2491   2500     1
   2491   4394     1
   2494   2503     1
   2494   2500     1
   2494   4380     1
   2497   2503     1
   2497   2506     1
   2497   2518     1
   2503   4388     1
   2506   4374     1
   2512   4371     1
   2515   4385     1
   2520   2545     1
   2520   2542     1
   2520   2539     1
   2521   2536     1
   2521   2530     1
   2521   4422     1
   2524   2533     1
   2524   2530     1
   2524   4408     1
   2527   2533     1
   2527   2536     1
   2527   2548     1
   2533   4416     1
   2536   4402     1
   2542   4399     1
   2545   4413     1
   2550   2575     1
   2550   2572     1
   2550   2569     1
   2551   2566     1
   2551   2560     1
   2551   4450     1
   2554   2563     1
   2554   2560     1
   2554   4436     1
   2557   2563     1
   2557   2566     1
   2557   2578     1
   2563   4444     1
   2566   4430     1
   2572   4427     1
   2575   4441     1
   2580   2605     1
   2580   2602     1
   2580   2599     1
   2581   2596     1
   2581   2590     1
   2581   4478     1
   2584   2593     1
   2584   2590     1
   2584   4464     1
   2587   2593     1
   2587   2596     1
   2587   2608     1
   2593   4472     1
   2596   4458     1
   2602   4455     1
   2605   4469     1
   2610   2635     1
   2610   2632     1
   2610   2629     1
   2611   2626     1
   2611   2620     1
   2611   4506     1
   2614   2623     1
   2614   2620     1
   2614   4492     1
   2617   2623     1
   2617   2626     1
   2617   2638     1
   2623   4500     1
   2626   4486     1
   2632   4483     1
   2635   4497     1
   2640   2665     1
   2640   2662     1
   2640   2659     1
   2641   2656     1
   2641   2650     1
   2641   4534     1
   2644   2653     1
   2644   2650     1
   2644   4520     1
   2647   2653     1
   2647   2656     1
   2647   2668     1
   2653   4528     1
   2656   4514     1
   2662   4511     1
   2665   4525     1
   2670   2695     1
   2670   2692     1
   2670   2689     1
   2671   2686     1
   2671   2680     1
   2671   4562     1
   2674   2683     1
   2674   2680     1
   2674   4548     1
   2677   2683     1
   2677   2686     1
   2677   2698     1
   2683   4556     1
   2686   4542     1
   2692   4539     1
   2695   4553     1
   2700   2725     1
   2700   2722     1
   2700   2719     1
   2701   2716     1
   2701   2710     1
   2701   4590     1
   2704   2713     1
   2704   2710     1
   2704   4576     1
   2707   2713     1
   2707   2716     1
   2707   2728     1
   2713   4584     1
   2716   4570     1
   2722   4567     1
   2725   4581     1
   2730   2755     1
   2730   2752     1
   2730   2749     1
   2731   2746     1
   2731   2740     1
   2731   4618     1
   2734   2743     1
   2734   2740     1
   2734   4604     1
   2737   2743     1
   2737   2746     1
   2737   2758     1
   2743   4612     1
   2746   4598     1
   2752   4595     1
   2755   4609     1
   2760   2785     1
   2760   2782     1
   2760   2779     1
   2761   2776     1
   2761   2770     1
   2761   4646     1
   2764   2773     1
   2764   2770     1
   2764   4632     1
   2767   2773     1
   2767   2776     1
   2767   2788     1
   2773   4640     1
   2776   4626     1
   2782   4623     1
   2785   4637     1
   2790   2815     1
   2790   2812     1
   2790   2809     1
   2791   2806     1
   2791   2800     1
   2791   4674     1
   2794   2803     1
   2794   2800     1
   2794   4660     1
   2797   2803     1
   2797   2806     1
   2797   2818     1
   2803   4668     1
   2806   4654     1
   2812   4651     1
   2815   4665     1
   2820   2845     1
   2820   2842     1
   2820   2839     1
   2821   2836     1
   2821   2830     1
   2821   4702     1
   2824   2833     1
   2824   2830     1
   2824   4688     1
   2827   2833     1
   2827   2836     1
   2827   2848     1
   2833   4696     1
   2836   4682     1
   2842   4679     1
   2845   4693     1
   2850   2875     1
   2850   2872     1
   2850   2869     1
   2851   2866     1
   2851   2860     1
   2851   4730     1
   2854   2863     1
   2854   2860     1
   2854   4716     1
   2857   2863     1
   2857   2866     1
   2857   2878     1
   2863   4724     1
   2866   4710     1
   2872   4707     1
   2875   4721     1
   2880   2905     1
   2880   2902     1
   2880   2899     1
   2881   2896     1
   2881   2890     1
   2881   4758     1
   2884   2893     1
   2884   2890     1
   2884   4744     1
   2887   2893     1
   2887   2896     1
   2887   2908     1
   2893   4752     1
   2896   4738     1
   2902   4735     1
   2905   4749     1
   2910   2935     1
   2910   2932     1
   2910   2929     1
   2911   2926     1
   2911   2920     1
   2911   4786     1
   2914   2923     1
   2914   2920     1
   2914   4772     1
   2917   2923     1
   2917   2926     1
   2917   2938     1
   2923   4780     1
   2926   4766     1
   2932   4763     1
   2935   4777     1
   2940   2965     1
   2940   2962     1
   2940   2959     1
   2941   2956     1
   2941   2950     1
   2941   4814     1
   2944   2953     1
   2944   2950     1
   2944   4800     1
   2947   2953     1
   2947   2956     1
   2947   2968     1
   2953   4808     1
   2956   4794     1
   2962   4791     1
   2965   4805     1
   2970   2995     1
   2970   2992     1
   2970   2989     1
   2971   2986     1
   2971   2980     1
   2971   4842     1
   2974   2983     1
   2974   2980     1
   2974   4828     1
   2977   2983     1
   2977   2986     1
   2977   2998     1
   2983   4836     1
   2986   4822     1
   2992   4819     1
   2995   4833     1
   3000   3025     1
   3000   3022     1
   3000   3019     1
   3001   3016     1
   3001   3010     1
   3001   4870     1
   3004   3013     1
   3004   3010     1
   3004   4856     1
   3007   3013     1
   3007   3016     1
   3007   3028     1
   3013   4864     1
   3016   4850     1
   3022   4847     1
   3025   4861     1
   3030   3055     1
   3030   3052     1
   3030   3049     1
   3031   3046     1
   3031   3040     1
   3031   4898     1
   3034   3043     1
   3034   3040     1
   3034   4884     1
   3037   3043     1
   3037   3046     1
   3037   3058     1
   3043   4892     1
   3046   4878     1
   3052   4875     1
   3055   4889     1
   3060   3085     1
   3060   3082     1
   3060   3079     1
   3061   3076     1
   3061   3070     1
   3061   4926     1
   3064   3073     1
   3064   3070     1
   3064   4912     1
   3067   3073     1
   3067   3076     1
   3067   3088     1
   3073   4920     1
   3076   4906     1
   3082   4903     1
   3085   4917     1
   3090   3115     1
   3090   3112     1
   3090   3109     1
   3091   3106     1
   3091   3100     1
   3091   4954     1
   3094   3103     1
   3094   3100     1
   3094   4940     1
   3097   3103     1
   3097   3106     1
   3097   3118     1
   3103   4948     1
   3106   4934     1
   3112   4931     1
   3115   4945     1
   3120   3145     1
   3120   3142     1
   3120   3139     1
   3121   3136     1
   3121   3130     1
   3121   4982     1
   3124   3133     1
   3124   3130     1
   3124   4968     1
   3127   3133     1
   3127   3136     1
   3127   3148     1
   3133   4976     1
   3136   4962     1
   3142   4959     1
   3145   4973     1
   3150   3175     1
   3150   3172     1
   3150   3169     1
   3151   3166     1
   3151   3160     1
   3151   5010     1
   3154   3163     1
   3154   3160     1
   3154   4996     1
   3157   3163     1
   3157   3166     1
   3157   3178     1
   3163   5004     1
   3166   4990     1
   3172   4987     1
   3175   5001     1
   3180   3205     1
   3180   3202     1
   3180   3199     1
   3181   3196     1
   3181   3190     1
   3181   5038     1
   3184   3193     1
   3184   3190     1
   3184   5024     1
   3187   3193     1
   3187   3196     1
   3187   3208     1
   3193   5032     1
   3196   5018     1
   3202   5015     1
   3205   5029     1
   3210   3235     1
   3210   3232     1
   3210   3229     1
   3211   3226     1
   3211   3220     1
   3211   5066     1
   3214   3223     1
   3214   3220     1
   3214   5052     1
   3217   3223     1
   3217   3226     1
   3217   3238     1
   3223   5060     1
   3226   5046     1
   3232   5043     1
   3235   5057     1
   3240   3265     1
   3240   3262     1
   3240   3259     1
   3241   3256     1
   3241   3250     1
   3241   5094     1
   3244   3253     1
   3244   3250     1
   3244   5080     1
   3247   3253     1
   3247   3256     1
   3247   3268     1
   3253   5088     1
   3256   5074     1
   3262   5071     1
   3265   5085     1
   3270   3295     1
   3270   3292     1
   3270   3289     1
   3271   3286     1
   3271   3280     1
   3271   5122     1
   3274   3283     1
   3274   3280     1
   3274   5108     1
   3277   3283     1
   3277   3286     1
   3277   3298     1
   3283   5116     1
   3286   5102     1
   3292   5099     1
   3295   5113     1
   3300   3325     1
   3300   3322     1
   3300   3319     1
   3301   3316     1
   3301   3310     1
   3301   5150     1
   3304   3313     1
   3304   3310     1
   3304   5136     1
   3307   3313     1
   3307   3316     1
   3307   3328     1
   3313   5144     1
   3316   5130     1
   3322   5127     1
   3325   5141     1
   3330   3355     1
   3330   3352     1
   3330   3349     1
   3331   3346     1
   3331   3340     1
   3331   5178     1
   3334   3343     1
   3334   3340     1
   3334   5164     1
   3337   3343     1
   3337   3346     1
   3337   3358     1
   3343   5172     1
   3346   5158     1
   3352   5155     1
   3355   5169     1
   3360   3385     1
   3360   3382     1
   3360   3379     1
   3361   3376     1
   3361   3370     1
   3361   5206     1
   3364   3373     1
   3364   3370     1
   3364   5192     1
   3367   3373     1
   3367   3376     1
   3367   3388     1
   3373   5200     1
   3376   5186     1
   3382   5183     1
   3385   5197     1
   3390   3415     1
   3390   3412     1
   3390   3409     1
   3391   3406     1
   3391   3400     1
   3391   5234     1
   3394   3403     1
   3394   3400     1
   3394   5220     1
   3397   3403     1
   3397   3406     1
   3397   3418     1
   3403   5228     1
   3406   5214     1
   3412   5211     1
   3415   5225     1
   3420   3445     1
   3420   3442     1
   3420   3439     1
   3421   3436     1
   3421   3430     1
   3421   5262     1
   3424   3433     1
   3424   3430     1
   3424   5248     1
   3427   3433     1
   3427   3436     1
   3427   3448     1
   3433   5256     1
   3436   5242     1
   3442   5239     1
   3445   5253     1
   3450   3475     1
   3450   3472     1
   3450   3469     1
   3451   3466     1
   3451   3460     1
   3451   5290     1
   3454   3463     1
   3454   3460     1
   3454   5276     1
   3457   3463     1
   3457   3466     1
   3457   3478     1
   3463   5284     1
   3466   5270     1
   3472   5267     1
   3475   5281     1
   3480   3505     1
   3480   3502     1
   3480   3499     1
   3481   3496     1
   3481   3490     1
   3481   5318     1
   3484   3493     1
   3484   3490     1
   3484   5304     1
   3487   3493     1
   3487   3496     1
   3487   3508     1
   3493   5312     1
   3496   5298     1
   3502   5295     1
   3505   5309     1
   3510   3535     1
   3510   3532     1
   3510   3529     1
   3511   3526     1
   3511   3520     1
   3511   5346     1
   3514   3523     1
   3514   3520     1
   3514   5332     1
   3517   3523     1
   3517   3526     1
   3517   3538     1
   3523   5340     1
   3526   5326     1
   3532   5323     1
   3535   5337     1
   3540   3565     1
   3540   3562     1
   3540   3559     1
   3541   3556     1
   3541   3550     1
   3541   5374     1
   3544   3553     1
   3544   3550     1
   3544   5360     1
   3547   3553     1
   3547   3556     1
   3547   3568     1
   3553   5368     1
   3556   5354     1
   3562   5351     1
   3565   5365     1
   3570   3595     1
   3570   3592     1
   3570   3589     1
   3571   3586     1
   3571   3580     1
   3571   5402     1
   3574   3583     1
   3574   3580     1
   3574   5388     1
   3577   3583     1
   3577   3586     1
   3577   3598     1
   3583   5396     1
   3586   5382     1
   3592   5379     1
   3595   5393     1
   3600   3625     1
   3600   3622     1
   3600   3619     1
   3601   3616     1
   3601   3610     1
   3601   5430     1
   3604   3613     1
   3604   3610     1
   3604   5416     1
   3607   3613     1
   3607   3616     1
   3607   3628     1
   3613   5424     1
   3616   5410     1
   3622   5407     1
   3625   5421     1
   3630   3655     1
   3630   3652     1
   3630   3649     1
   3631   3646     1
   3631   3640     1
   3631   5458     1
   3634   3643     1
   3634   3640     1
   3634   5444     1
   3637   3643     1
   3637   3646     1
   3637   3658     1
   3643   5452     1
   3646   5438     1
   3652   5435     1
   3655   5449     1
   3660   3685     1
   3660   3682     1
   3660   3679     1
   3661   3676     1
   3661   3670     1
   3661   5486     1
   3664   3673     1
   3664   3670     1
   3664   5472     1
   3667   3673     1
   3667   3676     1
   3667   3688     1
   3673   5480     1
   3676   5466     1
   3682   5463     1
   3685   5477     1
   3690   3715     1
   3690   3712     1
   3690   3709     1
   3691   3706     1
   3691   3700     1
   3691   5514     1
   3694   3703     1
   3694   3700     1
   3694   5500     1
   3697   3703     1
   3697   3706     1
   3697   3718     1
   3703   5508     1
   3706   5494     1
   3712   5491     1
   3715   5505     1
   3720   3745     1
   3720   3742     1
   3720   3739     1
   3721   3736     1
   3721   3730     1
   3721   5542     1
   3724   3733     1
   3724   3730     1
   3724   5528     1
   3727   3733     1
   3727   3736     1
   3727   3748     1
   3733   5536     1
   3736   5522     1
   3742   5519     1
   3745   5533     1
   3750   3775     1
   3750   3772     1
   3750   3769     1
   3751   3766     1
   3751   3760     1
   3751   5570     1
   3754   3763     1
   3754   3760     1
   3754   5556     1
   3757   3763     1
   3757   3766     1
   3757   3778     1
   3763   5564     1
   3766   5550     1
   3772   5547     1
   3775   5561     1
   3780   3792     1
   3786   3789     1
   3794   3806     1
   3800   3803     1
   3808   3820     1
   3814   3817     1
   3822   3834     1
   3828   3831     1
   3836   3848     1
   3842   3845     1
   3850   3862     1
   3856   3859     1
   3864   3876     1
   3870   3873     1
   3878   3890     1
   3884   3887     1
   3892   3904     1
   3898   3901     1
   3906   3918     1
   3912   3915     1
   3920   3932     1
   3926   3929     1
   3934   3946     1
   3940   3943     1
   3948   3960     1
   3954   3957     1
   3962   3974     1
   3968   3971     1
   3976   3988     1
   3982   3985     1
   3990   4002     1
   3996   3999     1
   4004   4016     1
   4010   4013     1
   4018   4030     1
   4024   4027     1
   4032   4044     1
   4038   4041     1
   4046   4058     1
   4052   4055     1
   4060   4072     1
   4066   4069     1
   4074   4086     1
   4080   4083     1
   4088   4100     1
   4094   4097     1
   4102   4114     1
   4108   4111     1
   4116   4128     1
   4122   4125     1
   4130   4142     1
   4136   4139     1
   4144   4156     1
   4150   4153     1
   4158   4170     1
   4164   4167     1
   4172   4184     1
   4178   4181     1
   4186   4198     1
   4192   4195     1
   4200   4212     1
   4206   4209     1
   4214   4226     1
   4220   4223     1
   4228   4240     1
   4234   4237     1
   4242   4254     1
   4248   4251     1
   4256   4268     1
   4262   4265     1
   4270   4282     1
   4276   4279     1
   4284   4296     1
   4290   4293     1
   4298   4310     1
   4304   4307     1
   4312   4324     1
   4318   4321     1
   4326   4338     1
   4332   4335     1
   4340   4352     1
   4346   4349     1
   4354   4366     1
   4360   4363     1
   4368   4380     1
   4374   4377     1
   4382   4394     1
   4388   4391     1
   4396   4408     1
   4402   4405     1
   4410   4422     1
   4416   4419     1
   4424   4436     1
   4430   4433     1
   4438   4450     1
   4444   4447     1
   4452   4464     1
   4458   4461     1
   4466   4478     1
   4472   4475     1
   4480   4492     1
   4486   4489     1
   4494   4506     1
   4500   4503     1
   4508   4520     1
   4514   4517     1
   4522   4534     1
   4528   4531     1
   4536   4548     1
   4542   4545     1
   4550   4562     1
   4556   4559     1
   4564   4576     1
   4570   4573     1
   4578   4590     1
   4584   4587     1
   4592   4604     1
   4598   4601     1
   4606   4618     1
   4612   4615     1
   4620   4632     1
   4626   4629     1
   4634   4646     1
   4640   4643     1
   4648   4660     1
   4654   4657     1
   4662   4674     1
   4668   4671     1
   4676   4688     1
   4682   4685     1
   4690   4702     1
   4696   4699     1
   4704   4716     1
   4710   4713     1
   4718   4730     1
   4724   4727     1
   4732   4744     1
   4738   4741     1
   4746   4758     1
   4752   4755     1
   4760   4772     1
   4766   4769     1
   4774   4786     1
   4780   4783     1
   4788   4800     1
   4794   4797     1
   4802   4814     1
   4808   4811     1
   4816   4828     1
   4822   4825     1
   4830   4842     1
   4836   4839     1
   4844   4856     1
   4850   4853     1
   4858   4870     1
   4864   4867     1
   4872   4884     1
   4878   4881     1
   4886   4898     1
   4892   4895     1
   4900   4912     1
   4906   4909     1
   4914   4926     1
   4920   4923     1
   4928   4940     1
   4934   4937     1
   4942   4954     1
   4948   4951     1
   4956   4968     1
   4962   4965     1
   4970   4982     1
   4976   4979     1
   4984   4996     1
   4990   4993     1
   4998   5010     1
   5004   5007     1
   5012   5024     1
   5018   5021     1
   5026   5038     1
   5032   5035     1
   5040   5052     1
   5046   5049     1
   5054   5066     1
   5060   5063     1
   5068   5080     1
   5074   5077     1
   5082   5094     1
   5088   5091     1
   5096   5108     1
   5102   5105     1
   5110   5122     1
   5116   5119     1
   5124   5136     1
   5130   5133     1
   5138   5150     1
   5144   5147     1
   5152   5164     1
   5158   5161     1
   5166   5178     1
   5172   5175     1
   5180   5192     1
   5186   5189     1
   5194   5206     1
   5200   5203     1
   5208   5220     1
   5214   5217     1
   5222   5234     1
   5228   5231     1
   5236   5248     1
   5242   5245     1
   5250   5262     1
   5256   5259     1
   5264   5276     1
   5270   5273     1
   5278   5290     1
   5284   5287     1
   5292   5304     1
   5298   5301     1
   5306   5318     1
   5312   5315     1
   5320   5332     1
   5326   5329     1
   5334   5346     1
   5340   5343     1
   5348   5360     1
   5354   5357     1
   5362   5374     1
   5368   5371     1
   5376   5388     1
   5382   5385     1
   5390   5402     1
   5396   5399     1
   5404   5416     1
   5410   5413     1
   5418   5430     1
   5424   5427     1
   5432   5444     1
   5438   5441     1
   5446   5458     1
   5452   5455     1
   5460   5472     1
   5466   5469     1
   5474   5486     1
   5480   5483     1
   5488   5500     1
   5494   5497     1
   5502   5514     1
   5508   5511     1
   5516   5528     1
   5522   5525     1
   5530   5542     1
   5536   5539     1
   5544   5556     1
   5550   5553     1
   5558   5570     1
   5564   5567     1
      1      9     1
      1     10     1
      1     12     1
      1     13     1
      2      6     1
      2      7     1
      2     15     1
      2     16     1
      5      3     1
      3     14     1
      3      9     1
      3     10     1
      5      4     1
      4     14     1
      4      9     1
      4     10     1
      5     18     1
      5     19     1
      6     17     1
      6     12     1
      6     13     1
      7     17     1
      7     12     1
      7     13     1
      8     58     1
      9     20     1
      9     15     1
      9     16     1
     10     20     1
     10     15     1
     10     16     1
     11     59     1
     12     21     1
     12     18     1
     12     19     1
     13     21     1
     13     18     1
     13     19     1
     14     29     1
     14     30     1
     14     32     1
     14     33     1
     15     28     1
     15     31     1
     15     58     1
     16     28     1
     16     31     1
     16     58     1
     17     23     1
     17     24     1
     17     26     1
     17     27     1
     18     22     1
     18     25     1
     18     59     1
     19     22     1
     19     25     1
     19     59     1
     20     41     1
     20     42     1
     20     44     1
     20     45     1
     21     35     1
     21     36     1
     21     38     1
     21     39     1
     22     26     1
     22     27     1
     22     56     1
     22     57     1
     23     25     1
     23     59     1
     23     55     1
     23     35     1
     23     36     1
     24     25     1
     24     59     1
     24     55     1
     24     35     1
     24     36     1
     25     53     1
     25     54     1
     26     59     1
     26     52     1
     26     38     1
     26     39     1
     27     59     1
     27     52     1
     27     38     1
     27     39     1
     28     32     1
     28     33     1
     28     50     1
     28     51     1
     29     31     1
     29     58     1
     29     49     1
     29     41     1
     29     42     1
     30     31     1
     30     58     1
     30     49     1
     30     41     1
     30     42     1
     31     47     1
     31     48     1
     32     58     1
     32     46     1
     32     44     1
     32     45     1
     33     58     1
     33     46     1
     33     44     1
     33     45     1
     34     59     1
     35    178     1
     35     56     1
     35     57     1
     36    178     1
     36     56     1
     36     57     1
     37     59     1
     38    148     1
     38     53     1
     38     54     1
     39    148     1
     39     53     1
     39     54     1
     40     58     1
     41    118     1
     41     50     1
     41     51     1
     42    118     1
     42     50     1
     42     51     1
     43     58     1
     44     88     1
     44     47     1
     44     48     1
     45     88     1
     45     47     1
     45     48     1
     46     80     1
     46     81     1
     47     79     1
     48     79     1
     49    110     1
     49    111     1
     50    109     1
     51    109     1
     52    140     1
     52    141     1
     53    139     1
     54    139     1
     55    170     1
     55    171     1
     56    169     1
     57    169     1
     60     74     1
     60     75     1
     60     77     1
     60     78     1
     60     71     1
     60     72     1
     61     65     1
     61     66     1
     61     68     1
     61     69     1
     61     86     1
     61     87     1
     62     64     1
     62     67     1
     62     89     1
     62     85     1
     62     74     1
     62     75     1
     63     64     1
     63     67     1
     63     89     1
     63     85     1
     63     74     1
     63     75     1
     64     68     1
     64     69     1
     64     83     1
     64     84     1
     65     67     1
     65     89     1
     65     82     1
     65     77     1
     65     78     1
     66     67     1
     66     89     1
     66     82     1
     66     77     1
     66     78     1
     67     80     1
     67     81     1
     68     89     1
     68     79     1
     68     71     1
     68     72     1
     69     89     1
     69     79     1
     69     71     1
     69     72     1
     70     89     1
     71     88     1
     71     80     1
     71     81     1
     72     88     1
     72     80     1
     72     81     1
     73     89     1
     74    238     1
     74     86     1
     74     87     1
     75    238     1
     75     86     1
     75     87     1
     76     89     1
     77    208     1
     77     83     1
     77     84     1
     78    208     1
     78     83     1
     78     84     1
     82    200     1
     82    201     1
     83    199     1
     84    199     1
     85    230     1
     85    231     1
     86    229     1
     87    229     1
     90    104     1
     90    105     1
     90    107     1
     90    108     1
     90    101     1
     90    102     1
     91     95     1
     91     96     1
     91     98     1
     91     99     1
     91    116     1
     91    117     1
     92     94     1
     92     97     1
     92    119     1
     92    115     1
     92    104     1
     92    105     1
     93     94     1
     93     97     1
     93    119     1
     93    115     1
     93    104     1
     93    105     1
     94     98     1
     94     99     1
     94    113     1
     94    114     1
     95     97     1
     95    119     1
     95    112     1
     95    107     1
     95    108     1
     96     97     1
     96    119     1
     96    112     1
     96    107     1
     96    108     1
     97    110     1
     97    111     1
     98    119     1
     98    109     1
     98    101     1
     98    102     1
     99    119     1
     99    109     1
     99    101     1
     99    102     1
    100    119     1
    101    118     1
    101    110     1
    101    111     1
    102    118     1
    102    110     1
    102    111     1
    103    119     1
    104    298     1
    104    116     1
    104    117     1
    105    298     1
    105    116     1
    105    117     1
    106    119     1
    107    268     1
    107    113     1
    107    114     1
    108    268     1
    108    113     1
    108    114     1
    112    260     1
    112    261     1
    113    259     1
    114    259     1
    115    290     1
    115    291     1
    116    289     1
    117    289     1
    120    134     1
    120    135     1
    120    137     1
    120    138     1
    120    131     1
    120    132     1
    121    125     1
    121    126     1
    121    128     1
    121    129     1
    121    146     1
    121    147     1
    122    124     1
    122    127     1
    122    149     1
    122    145     1
    122    134     1
    122    135     1
    123    124     1
    123    127     1
    123    149     1
    123    145     1
    123    134     1
    123    135     1
    124    128     1
    124    129     1
    124    143     1
    124    144     1
    125    127     1
    125    149     1
    125    142     1
    125    137     1
    125    138     1
    126    127     1
    126    149     1
    126    142     1
    126    137     1
    126    138     1
    127    140     1
    127    141     1
    128    149     1
    128    139     1
    128    131     1
    128    132     1
    129    149     1
    129    139     1
    129    131     1
    129    132     1
    130    149     1
    131    148     1
    131    140     1
    131    141     1
    132    148     1
    132    140     1
    132    141     1
    133    149     1
    134    358     1
    134    146     1
    134    147     1
    135    358     1
    135    146     1
    135    147     1
    136    149     1
    137    328     1
    137    143     1
    137    144     1
    138    328     1
    138    143     1
    138    144     1
    142    320     1
    142    321     1
    143    319     1
    144    319     1
    145    350     1
    145    351     1
    146    349     1
    147    349     1
    150    164     1
    150    165     1
    150    167     1
    150    168     1
    150    161     1
    150    162     1
    151    155     1
    151    156     1
    151    158     1
    151    159     1
    151    176     1
    151    177     1
    152    154     1
    152    157     1
    152    179     1
    152    175     1
    152    164     1
    152    165     1
    153    154     1
    153    157     1
    153    179     1
    153    175     1
    153    164     1
    153    165     1
    154    158     1
    154    159     1
    154    173     1
    154    174     1
    155    157     1
    155    179     1
    155    172     1
    155    167     1
    155    168     1
    156    157     1
    156    179     1
    156    172     1
    156    167     1
    156    168     1
    157    170     1
    157    171     1
    158    179     1
    158    169     1
    158    161     1
    158    162     1
    159    179     1
    159    169     1
    159    161     1
    159    162     1
    160    179     1
    161    178     1
    161    170     1
    161    171     1
    162    178     1
    162    170     1
    162    171     1
    163    179     1
    164    418     1
    164    176     1
    164    177     1
    165    418     1
    165    176     1
    165    177     1
    166    179     1
    167    388     1
    167    173     1
    167    174     1
    168    388     1
    168    173     1
    168    174     1
    172    380     1
    172    381     1
    173    379     1
    174    379     1
    175    410     1
    175    411     1
    176    409     1
    177    409     1
    180    194     1
    180    195     1
    180    197     1
    180    198     1
    180    191     1
    180    192     1
    181    185     1
    181    186     1
    181    188     1
    181    189     1
    181    206     1
    181    207     1
    182    184     1
    182    187     1
    182    209     1
    182    205     1
    182    194     1
    182    195     1
    183    184     1
    183    187     1
    183    209     1
    183    205     1
    183    194     1
    183    195     1
    184    188     1
    184    189     1
    184    203     1
    184    204     1
    185    187     1
    185    209     1
    185    202     1
    185    197     1
    185    198     1
    186    187     1
    186    209     1
    186    202     1
    186    197     1
    186    198     1
    187    200     1
    187    201     1
    188    209     1
    188    199     1
    188    191     1
    188    192     1
    189    209     1
    189    199     1
    189    191     1
    189    192     1
    190    209     1
    191    208     1
    191    200     1
    191    201     1
    192    208     1
    192    200     1
    192    201     1
    193    209     1
    194    478     1
    194    206     1
    194    207     1
    195    478     1
    195    206     1
    195    207     1
    196    209     1
    197    448     1
    197    203     1
    197    204     1
    198    448     1
    198    203     1
    198    204     1
    202    440     1
    202    441     1
    203    439     1
    204    439     1
    205    470     1
    205    471     1
    206    469     1
    207    469     1
    210    224     1
    210    225     1
    210    227     1
    210    228     1
    210    221     1
    210    222     1
    211    215     1
    211    216     1
    211    218     1
    211    219     1
    211    236     1
    211    237     1
    212    214     1
    212    217     1
    212    239     1
    212    235     1
    212    224     1
    212    225     1
    213    214     1
    213    217     1
    213    239     1
    213    235     1
    213    224     1
    213    225     1
    214    218     1
    214    219     1
    214    233     1
    214    234     1
    215    217     1
    215    239     1
    215    232     1
    215    227     1
    215    228     1
    216    217     1
    216    239     1
    216    232     1
    216    227     1
    216    228     1
    217    230     1
    217    231     1
    218    239     1
    218    229     1
    218    221     1
    218    222     1
    219    239     1
    219    229     1
    219    221     1
    219    222     1
    220    239     1
    221    238     1
    221    230     1
    221    231     1
    222    238     1
    222    230     1
    222    231     1
    223    239     1
    224    538     1
    224    236     1
    224    237     1
    225    538     1
    225    236     1
    225    237     1
    226    239     1
    227    508     1
    227    233     1
    227    234     1
    228    508     1
    228    233     1
    228    234     1
    232    500     1
    232    501     1
    233    499     1
    234    499     1
    235    530     1
    235    531     1
    236    529     1
    237    529     1
    240    254     1
    240    255     1
    240    257     1
    240    258     1
    240    251     1
    240    252     1
    241    245     1
    241    246     1
    241    248     1
    241    249     1
    241    266     1
    241    267     1
    242    244     1
    242    247     1
    242    269     1
    242    265     1
    242    254     1
    242    255     1
    243    244     1
    243    247     1
    243    269     1
    243    265     1
    243    254     1
    243    255     1
    244    248     1
    244    249     1
    244    263     1
    244    264     1
    245    247     1
    245    269     1
    245    262     1
    245    257     1
    245    258     1
    246    247     1
    246    269     1
    246    262     1
    246    257     1
    246    258     1
    247    260     1
    247    261     1
    248    269     1
    248    259     1
    248    251     1
    248    252     1
    249    269     1
    249    259     1
    249    251     1
    249    252     1
    250    269     1
    251    268     1
    251    260     1
    251    261     1
    252    268     1
    252    260     1
    252    261     1
    253    269     1
    254    598     1
    254    266     1
    254    267     1
    255    598     1
    255    266     1
    255    267     1
    256    269     1
    257    568     1
    257    263     1
    257    264     1
    258    568     1
    258    263     1
    258    264     1
    262    560     1
    262    561     1
    263    559     1
    264    559     1
    265    590     1
    265    591     1
    266    589     1
    267    589     1
    270    284     1
    270    285     1
    270    287     1
    270    288     1
    270    281     1
    270    282     1
    271    275     1
    271    276     1
    271    278     1
    271    279     1
    271    296     1
    271    297     1
    272    274     1
    272    277     1
    272    299     1
    272    295     1
    272    284     1
    272    285     1
    273    274     1
    273    277     1
    273    299     1
    273    295     1
    273    284     1
    273    285     1
    274    278     1
    274    279     1
    274    293     1
    274    294     1
    275    277     1
    275    299     1
    275    292     1
    275    287     1
    275    288     1
    276    277     1
    276    299     1
    276    292     1
    276    287     1
    276    288     1
    277    290     1
    277    291     1
    278    299     1
    278    289     1
    278    281     1
    278    282     1
    279    299     1
    279    289     1
    279    281     1
    279    282     1
    280    299     1
    281    298     1
    281    290     1
    281    291     1
    282    298     1
    282    290     1
    282    291     1
    283    299     1
    284    658     1
    284    296     1
    284    297     1
    285    658     1
    285    296     1
    285    297     1
    286    299     1
    287    628     1
    287    293     1
    287    294     1
    288    628     1
    288    293     1
    288    294     1
    292    620     1
    292    621     1
    293    619     1
    294    619     1
    295    650     1
    295    651     1
    296    649     1
    297    649     1
    300    314     1
    300    315     1
    300    317     1
    300    318     1
    300    311     1
    300    312     1
    301    305     1
    301    306     1
    301    308     1
    301    309     1
    301    326     1
    301    327     1
    302    304     1
    302    307     1
    302    329     1
    302    325     1
    302    314     1
    302    315     1
    303    304     1
    303    307     1
    303    329     1
    303    325     1
    303    314     1
    303    315     1
    304    308     1
    304    309     1
    304    323     1
    304    324     1
    305    307     1
    305    329     1
    305    322     1
    305    317     1
    305    318     1
    306    307     1
    306    329     1
    306    322     1
    306    317     1
    306    318     1
    307    320     1
    307    321     1
    308    329     1
    308    319     1
    308    311     1
    308    312     1
    309    329     1
    309    319     1
    309    311     1
    309    312     1
    310    329     1
    311    328     1
    311    320     1
    311    321     1
    312    328     1
    312    320     1
    312    321     1
    313    329     1
    314    718     1
    314    326     1
    314    327     1
    315    718     1
    315    326     1
    315    327     1
    316    329     1
    317    688     1
    317    323     1
    317    324     1
    318    688     1
    318    323     1
    318    324     1
    322    680     1
    322    681     1
    323    679     1
    324    679     1
    325    710     1
    325    711     1
    326    709     1
    327    709     1
    330    344     1
    330    345     1
    330    347     1
    330    348     1
    330    341     1
    330    342     1
    331    335     1
    331    336     1
    331    338     1
    331    339     1
    331    356     1
    331    357     1
    332    334     1
    332    337     1
    332    359     1
    332    355     1
    332    344     1
    332    345     1
    333    334     1
    333    337     1
    333    359     1
    333    355     1
    333    344     1
    333    345     1
    334    338     1
    334    339     1
    334    353     1
    334    354     1
    335    337     1
    335    359     1
    335    352     1
    335    347     1
    335    348     1
    336    337     1
    336    359     1
    336    352     1
    336    347     1
    336    348     1
    337    350     1
    337    351     1
    338    359     1
    338    349     1
    338    341     1
    338    342     1
    339    359     1
    339    349     1
    339    341     1
    339    342     1
    340    359     1
    341    358     1
    341    350     1
    341    351     1
    342    358     1
    342    350     1
    342    351     1
    343    359     1
    344    778     1
    344    356     1
    344    357     1
    345    778     1
    345    356     1
    345    357     1
    346    359     1
    347    748     1
    347    353     1
    347    354     1
    348    748     1
    348    353     1
    348    354     1
    352    740     1
    352    741     1
    353    739     1
    354    739     1
    355    770     1
    355    771     1
    356    769     1
    357    769     1
    360    374     1
    360    375     1
    360    377     1
    360    378     1
    360    371     1
    360    372     1
    361    365     1
    361    366     1
    361    368     1
    361    369     1
    361    386     1
    361    387     1
    362    364     1
    362    367     1
    362    389     1
    362    385     1
    362    374     1
    362    375     1
    363    364     1
    363    367     1
    363    389     1
    363    385     1
    363    374     1
    363    375     1
    364    368     1
    364    369     1
    364    383     1
    364    384     1
    365    367     1
    365    389     1
    365    382     1
    365    377     1
    365    378     1
    366    367     1
    366    389     1
    366    382     1
    366    377     1
    366    378     1
    367    380     1
    367    381     1
    368    389     1
    368    379     1
    368    371     1
    368    372     1
    369    389     1
    369    379     1
    369    371     1
    369    372     1
    370    389     1
    371    388     1
    371    380     1
    371    381     1
    372    388     1
    372    380     1
    372    381     1
    373    389     1
    374    838     1
    374    386     1
    374    387     1
    375    838     1
    375    386     1
    375    387     1
    376    389     1
    377    808     1
    377    383     1
    377    384     1
    378    808     1
    378    383     1
    378    384     1
    382    800     1
    382    801     1
    383    799     1
    384    799     1
    385    830     1
    385    831     1
    386    829     1
    387    829     1
    390    404     1
    390    405     1
    390    407     1
    390    408     1
    390    401     1
    390    402     1
    391    395     1
    391    396     1
    391    398     1
    391    399     1
    391    416     1
    391    417     1
    392    394     1
    392    397     1
    392    419     1
    392    415     1
    392    404     1
    392    405     1
    393    394     1
    393    397     1
    393    419     1
    393    415     1
    393    404     1
    393    405     1
    394    398     1
    394    399     1
    394    413     1
    394    414     1
    395    397     1
    395    419     1
    395    412     1
    395    407     1
    395    408     1
    396    397     1
    396    419     1
    396    412     1
    396    407     1
    396    408     1
    397    410     1
    397    411     1
    398    419     1
    398    409     1
    398    401     1
    398    402     1
    399    419     1
    399    409     1
    399    401     1
    399    402     1
    400    419     1
    401    418     1
    401    410     1
    401    411     1
    402    418     1
    402    410     1
    402    411     1
    403    419     1
    404    898     1
    404    416     1
    404    417     1
    405    898     1
    405    416     1
    405    417     1
    406    419     1
    407    868     1
    407    413     1
    407    414     1
    408    868     1
    408    413     1
    408    414     1
    412    860     1
    412    861     1
    413    859     1
    414    859     1
    415    890     1
    415    891     1
    416    889     1
    417    889     1
    420    434     1
    420    435     1
    420    437     1
    420    438     1
    420    431     1
    420    432     1
    421    425     1
    421    426     1
    421    428     1
    421    429     1
    421    446     1
    421    447     1
    422    424     1
    422    427     1
    422    449     1
    422    445     1
    422    434     1
    422    435     1
    423    424     1
    423    427     1
    423    449     1
    423    445     1
    423    434     1
    423    435     1
    424    428     1
    424    429     1
    424    443     1
    424    444     1
    425    427     1
    425    449     1
    425    442     1
    425    437     1
    425    438     1
    426    427     1
    426    449     1
    426    442     1
    426    437     1
    426    438     1
    427    440     1
    427    441     1
    428    449     1
    428    439     1
    428    431     1
    428    432     1
    429    449     1
    429    439     1
    429    431     1
    429    432     1
    430    449     1
    431    448     1
    431    440     1
    431    441     1
    432    448     1
    432    440     1
    432    441     1
    433    449     1
    434    958     1
    434    446     1
    434    447     1
    435    958     1
    435    446     1
    435    447     1
    436    449     1
    437    928     1
    437    443     1
    437    444     1
    438    928     1
    438    443     1
    438    444     1
    442    920     1
    442    921     1
    443    919     1
    444    919     1
    445    950     1
    445    951     1
    446    949     1
    447    949     1
    450    464     1
    450    465     1
    450    467     1
    450    468     1
    450    461     1
    450    462     1
    451    455     1
    451    456     1
    451    458     1
    451    459     1
    451    476     1
    451    477     1
    452    454     1
    452    457     1
    452    479     1
    452    475     1
    452    464     1
    452    465     1
    453    454     1
    453    457     1
    453    479     1
    453    475     1
    453    464     1
    453    465     1
    454    458     1
    454    459     1
    454    473     1
    454    474     1
    455    457     1
    455    479     1
    455    472     1
    455    467     1
    455    468     1
    456    457     1
    456    479     1
    456    472     1
    456    467     1
    456    468     1
    457    470     1
    457    471     1
    458    479     1
    458    469     1
    458    461     1
    458    462     1
    459    479     1
    459    469     1
    459    461     1
    459    462     1
    460    479     1
    461    478     1
    461    470     1
    461    471     1
    462    478     1
    462    470     1
    462    471     1
    463    479     1
    464   1018     1
    464    476     1
    464    477     1
    465   1018     1
    465    476     1
    465    477     1
    466    479     1
    467    988     1
    467    473     1
    467    474     1
    468    988     1
    468    473     1
    468    474     1
    472    980     1
    472    981     1
    473    979     1
    474    979     1
    475   1010     1
    475   1011     1
    476   1009     1
    477   1009     1
    480    494     1
    480    495     1
    480    497     1
    480    498     1
    480    491     1
    480    492     1
    481    485     1
    481    486     1
    481    488     1
    481    489     1
    481    506     1
    481    507     1
    482    484     1
    482    487     1
    482    509     1
    482    505     1
    482    494     1
    482    495     1
    483    484     1
    483    487     1
    483    509     1
    483    505     1
    483    494     1
    483    495     1
    484    488     1
    484    489     1
    484    503     1
    484    504     1
    485    487     1
    485    509     1
    485    502     1
    485    497     1
    485    498     1
    486    487     1
    486    509     1
    486    502     1
    486    497     1
    486    498     1
    487    500     1
    487    501     1
    488    509     1
    488    499     1
    488    491     1
    488    492     1
    489    509     1
    489    499     1
    489    491     1
    489    492     1
    490    509     1
    491    508     1
    491    500     1
    491    501     1
    492    508     1
    492    500     1
    492    501     1
    493    509     1
    494   1078     1
    494    506     1
    494    507     1
    495   1078     1
    495    506     1
    495    507     1
    496    509     1
    497   1048     1
    497    503     1
    497    504     1
    498   1048     1
    498    503     1
    498    504     1
    502   1040     1
    502   1041     1
    503   1039     1
    504   1039     1
    505   1070     1
    505   1071     1
    506   1069     1
    507   1069     1
    510    524     1
    510    525     1
    510    527     1
    510    528     1
    510    521     1
    510    522     1
    511    515     1
    511    516     1
    511    518     1
    511    519     1
    511    536     1
    511    537     1
    512    514     1
    512    517     1
    512    539     1
    512    535     1
    512    524     1
    512    525     1
    513    514     1
    513    517     1
    513    539     1
    513    535     1
    513    524     1
    513    525     1
    514    518     1
    514    519     1
    514    533     1
    514    534     1
    515    517     1
    515    539     1
    515    532     1
    515    527     1
    515    528     1
    516    517     1
    516    539     1
    516    532     1
    516    527     1
    516    528     1
    517    530     1
    517    531     1
    518    539     1
    518    529     1
    518    521     1
    518    522     1
    519    539     1
    519    529     1
    519    521     1
    519    522     1
    520    539     1
    521    538     1
    521    530     1
    521    531     1
    522    538     1
    522    530     1
    522    531     1
    523    539     1
    524   1138     1
    524    536     1
    524    537     1
    525   1138     1
    525    536     1
    525    537     1
    526    539     1
    527   1108     1
    527    533     1
    527    534     1
    528   1108     1
    528    533     1
    528    534     1
    532   1100     1
    532   1101     1
    533   1099     1
    534   1099     1
    535   1130     1
    535   1131     1
    536   1129     1
    537   1129     1
    540    554     1
    540    555     1
    540    557     1
    540    558     1
    540    551     1
    540    552     1
    541    545     1
    541    546     1
    541    548     1
    541    549     1
    541    566     1
    541    567     1
    542    544     1
    542    547     1
    542    569     1
    542    565     1
    542    554     1
    542    555     1
    543    544     1
    543    547     1
    543    569     1
    543    565     1
    543    554     1
    543    555     1
    544    548     1
    544    549     1
    544    563     1
    544    564     1
    545    547     1
    545    569     1
    545    562     1
    545    557     1
    545    558     1
    546    547     1
    546    569     1
    546    562     1
    546    557     1
    546    558     1
    547    560     1
    547    561     1
    548    569     1
    548    559     1
    548    551     1
    548    552     1
    549    569     1
    549    559     1
    549    551     1
    549    552     1
    550    569     1
    551    568     1
    551    560     1
    551    561     1
    552    568     1
    552    560     1
    552    561     1
    553    569     1
    554   1198     1
    554    566     1
    554    567     1
    555   1198     1
    555    566     1
    555    567     1
    556    569     1
    557   1168     1
    557    563     1
    557    564     1
    558   1168     1
    558    563     1
    558    564     1
    562   1160     1
    562   1161     1
    563   1159     1
    564   1159     1
    565   1190     1
    565   1191     1
    566   1189     1
    567   1189     1
    570    584     1
    570    585     1
    570    587     1
    570    588     1
    570    581     1
    570    582     1
    571    575     1
    571    576     1
    571    578     1
    571    579     1
    571    596     1
    571    597     1
    572    574     1
    572    577     1
    572    599     1
    572    595     1
    572    584     1
    572    585     1
    573    574     1
    573    577     1
    573    599     1
    573    595     1
    573    584     1
    573    585     1
    574    578     1
    574    579     1
    574    593     1
    574    594     1
    575    577     1
    575    599     1
    575    592     1
    575    587     1
    575    588     1
    576    577     1
    576    599     1
    576    592     1
    576    587     1
    576    588     1
    577    590     1
    577    591     1
    578    599     1
    578    589     1
    578    581     1
    578    582     1
    579    599     1
    579    589     1
    579    581     1
    579    582     1
    580    599     1
    581    598     1
    581    590     1
    581    591     1
    582    598     1
    582    590     1
    582    591     1
    583    599     1
    584   1258     1
    584    596     1
    584    597     1
    585   1258     1
    585    596     1
    585    597     1
    586    599     1
    587   1228     1
    587    593     1
    587    594     1
    588   1228     1
    588    593     1
    588    594     1
    592   1220     1
    592   1221     1
    593   1219     1
    594   1219     1
    595   1250     1
    595   1251     1
    596   1249     1
    597   1249     1
    600    614     1
    600    615     1
    600    617     1
    600    618     1
    600    611     1
    600    612     1
    601    605     1
    601    606     1
    601    608     1
    601    609     1
    601    626     1
    601    627     1
    602    604     1
    602    607     1
    602    629     1
    602    625     1
    602    614     1
    602    615     1
    603    604     1
    603    607     1
    603    629     1
    603    625     1
    603    614     1
    603    615     1
    604    608     1
    604    609     1
    604    623     1
    604    624     1
    605    607     1
    605    629     1
    605    622     1
    605    617     1
    605    618     1
    606    607     1
    606    629     1
    606    622     1
    606    617     1
    606    618     1
    607    620     1
    607    621     1
    608    629     1
    608    619     1
    608    611     1
    608    612     1
    609    629     1
    609    619     1
    609    611     1
    609    612     1
    610    629     1
    611    628     1
    611    620     1
    611    621     1
    612    628     1
    612    620     1
    612    621     1
    613    629     1
    614   1318     1
    614    626     1
    614    627     1
    615   1318     1
    615    626     1
    615    627     1
    616    629     1
    617   1288     1
    617    623     1
    617    624     1
    618   1288     1
    618    623     1
    618    624     1
    622   1280     1
    622   1281     1
    623   1279     1
    624   1279     1
    625   1310     1
    625   1311     1
    626   1309     1
    627   1309     1
    630    644     1
    630    645     1
    630    647     1
    630    648     1
    630    641     1
    630    642     1
    631    635     1
    631    636     1
    631    638     1
    631    639     1
    631    656     1
    631    657     1
    632    634     1
    632    637     1
    632    659     1
    632    655     1
    632    644     1
    632    645     1
    633    634     1
    633    637     1
    633    659     1
    633    655     1
    633    644     1
    633    645     1
    634    638     1
    634    639     1
    634    653     1
    634    654     1
    635    637     1
    635    659     1
    635    652     1
    635    647     1
    635    648     1
    636    637     1
    636    659     1
    636    652     1
    636    647     1
    636    648     1
    637    650     1
    637    651     1
    638    659     1
    638    649     1
    638    641     1
    638    642     1
    639    659     1
    639    649     1
    639    641     1
    639    642     1
    640    659     1
    641    658     1
    641    650     1
    641    651     1
    642    658     1
    642    650     1
    642    651     1
    643    659     1
    644   1378     1
    644    656     1
    644    657     1
    645   1378     1
    645    656     1
    645    657     1
    646    659     1
    647   1348     1
    647    653     1
    647    654     1
    648   1348     1
    648    653     1
    648    654     1
    652   1340     1
    652   1341     1
    653   1339     1
    654   1339     1
    655   1370     1
    655   1371     1
    656   1369     1
    657   1369     1
    660    674     1
    660    675     1
    660    677     1
    660    678     1
    660    671     1
    660    672     1
    661    665     1
    661    666     1
    661    668     1
    661    669     1
    661    686     1
    661    687     1
    662    664     1
    662    667     1
    662    689     1
    662    685     1
    662    674     1
    662    675     1
    663    664     1
    663    667     1
    663    689     1
    663    685     1
    663    674     1
    663    675     1
    664    668     1
    664    669     1
    664    683     1
    664    684     1
    665    667     1
    665    689     1
    665    682     1
    665    677     1
    665    678     1
    666    667     1
    666    689     1
    666    682     1
    666    677     1
    666    678     1
    667    680     1
    667    681     1
    668    689     1
    668    679     1
    668    671     1
    668    672     1
    669    689     1
    669    679     1
    669    671     1
    669    672     1
    670    689     1
    671    688     1
    671    680     1
    671    681     1
    672    688     1
    672    680     1
    672    681     1
    673    689     1
    674   1438     1
    674    686     1
    674    687     1
    675   1438     1
    675    686     1
    675    687     1
    676    689     1
    677   1408     1
    677    683     1
    677    684     1
    678   1408     1
    678    683     1
    678    684     1
    682   1400     1
    682   1401     1
    683   1399     1
    684   1399     1
    685   1430     1
    685   1431     1
    686   1429     1
    687   1429     1
    690    704     1
    690    705     1
    690    707     1
    690    708     1
    690    701     1
    690    702     1
    691    695     1
    691    696     1
    691    698     1
    691    699     1
    691    716     1
    691    717     1
    692    694     1
    692    697     1
    692    719     1
    692    715     1
    692    704     1
    692    705     1
    693    694     1
    693    697     1
    693    719     1
    693    715     1
    693    704     1
    693    705     1
    694    698     1
    694    699     1
    694    713     1
    694    714     1
    695    697     1
    695    719     1
    695    712     1
    695    707     1
    695    708     1
    696    697     1
    696    719     1
    696    712     1
    696    707     1
    696    708     1
    697    710     1
    697    711     1
    698    719     1
    698    709     1
    698    701     1
    698    702     1
    699    719     1
    699    709     1
    699    701     1
    699    702     1
    700    719     1
    701    718     1
    701    710     1
    701    711     1
    702    718     1
    702    710     1
    702    711     1
    703    719     1
    704   1498     1
    704    716     1
    704    717     1
    705   1498     1
    705    716     1
    705    717     1
    706    719     1
    707   1468     1
    707    713     1
    707    714     1
    708   1468     1
    708    713     1
    708    714     1
    712   1460     1
    712   1461     1
    713   1459     1
    714   1459     1
    715   1490     1
    715   1491     1
    716   1489     1
    717   1489     1
    720    734     1
    720    735     1
    720    737     1
    720    738     1
    720    731     1
    720    732     1
    721    725     1
    721    726     1
    721    728     1
    721    729     1
    721    746     1
    721    747     1
    722    724     1
    722    727     1
    722    749     1
    722    745     1
    722    734     1
    722    735     1
    723    724     1
    723    727     1
    723    749     1
    723    745     1
    723    734     1
    723    735     1
    724    728     1
    724    729     1
    724    743     1
    724    744     1
    725    727     1
    725    749     1
    725    742     1
    725    737     1
    725    738     1
    726    727     1
    726    749     1
    726    742     1
    726    737     1
    726    738     1
    727    740     1
    727    741     1
    728    749     1
    728    739     1
    728    731     1
    728    732     1
    729    749     1
    729    739     1
    729    731     1
    729    732     1
    730    749     1
    731    748     1
    731    740     1
    731    741     1
    732    748     1
    732    740     1
    732    741     1
    733    749     1
    734   1558     1
    734    746     1
    734    747     1
    735   1558     1
    735    746     1
    735    747     1
    736    749     1
    737   1528     1
    737    743     1
    737    744     1
    738   1528     1
    738    743     1
    738    744     1
    742   1520     1
    742   1521     1
    743   1519     1
    744   1519     1
    745   1550     1
    745   1551     1
    746   1549     1
    747   1549     1
    750    764     1
    750    765     1
    750    767     1
    750    768     1
    750    761     1
    750    762     1
    751    755     1
    751    756     1
    751    758     1
    751    759     1
    751    776     1
    751    777     1
    752    754     1
    752    757     1
    752    779     1
    752    775     1
    752    764     1
    752    765     1
    753    754     1
    753    757     1
    753    779     1
    753    775     1
    753    764     1
    753    765     1
    754    758     1
    754    759     1
    754    773     1
    754    774     1
    755    757     1
    755    779     1
    755    772     1
    755    767     1
    755    768     1
    756    757     1
    756    779     1
    756    772     1
    756    767     1
    756    768     1
    757    770     1
    757    771     1
    758    779     1
    758    769     1
    758    761     1
    758    762     1
    759    779     1
    759    769     1
    759    761     1
    759    762     1
    760    779     1
    761    778     1
    761    770     1
    761    771     1
    762    778     1
    762    770     1
    762    771     1
    763    779     1
    764   1618     1
    764    776     1
    764    777     1
    765   1618     1
    765    776     1
    765    777     1
    766    779     1
    767   1588     1
    767    773     1
    767    774     1
    768   1588     1
    768    773     1
    768    774     1
    772   1580     1
    772   1581     1
    773   1579     1
    774   1579     1
    775   1610     1
    775   1611     1
    776   1609     1
    777   1609     1
    780    794     1
    780    795     1
    780    797     1
    780    798     1
    780    791     1
    780    792     1
    781    785     1
    781    786     1
    781    788     1
    781    789     1
    781    806     1
    781    807     1
    782    784     1
    782    787     1
    782    809     1
    782    805     1
    782    794     1
    782    795     1
    783    784     1
    783    787     1
    783    809     1
    783    805     1
    783    794     1
    783    795     1
    784    788     1
    784    789     1
    784    803     1
    784    804     1
    785    787     1
    785    809     1
    785    802     1
    785    797     1
    785    798     1
    786    787     1
    786    809     1
    786    802     1
    786    797     1
    786    798     1
    787    800     1
    787    801     1
    788    809     1
    788    799     1
    788    791     1
    788    792     1
    789    809     1
    789    799     1
    789    791     1
    789    792     1
    790    809     1
    791    808     1
    791    800     1
    791    801     1
    792    808     1
    792    800     1
    792    801     1
    793    809     1
    794   1678     1
    794    806     1
    794    807     1
    795   1678     1
    795    806     1
    795    807     1
    796    809     1
    797   1648     1
    797    803     1
    797    804     1
    798   1648     1
    798    803     1
    798    804     1
    802   1640     1
    802   1641     1
    803   1639     1
    804   1639     1
    805   1670     1
    805   1671     1
    806   1669     1
    807   1669     1
    810    824     1
    810    825     1
    810    827     1
    810    828     1
    810    821     1
    810    822     1
    811    815     1
    811    816     1
    811    818     1
    811    819     1
    811    836     1
    811    837     1
    812    814     1
    812    817     1
    812    839     1
    812    835     1
    812    824     1
    812    825     1
    813    814     1
    813    817     1
    813    839     1
    813    835     1
    813    824     1
    813    825     1
    814    818     1
    814    819     1
    814    833     1
    814    834     1
    815    817     1
    815    839     1
    815    832     1
    815    827     1
    815    828     1
    816    817     1
    816    839     1
    816    832     1
    816    827     1
    816    828     1
    817    830     1
    817    831     1
    818    839     1
    818    829     1
    818    821     1
    818    822     1
    819    839     1
    819    829     1
    819    821     1
    819    822     1
    820    839     1
    821    838     1
    821    830     1
    821    831     1
    822    838     1
    822    830     1
    822    831     1
    823    839     1
    824   1738     1
    824    836     1
    824    837     1
    825   1738     1
    825    836     1
    825    837     1
    826    839     1
    827   1708     1
    827    833     1
    827    834     1
    828   1708     1
    828    833     1
    828    834     1
    832   1700     1
    832   1701     1
    833   1699     1
    834   1699     1
    835   1730     1
    835   1731     1
    836   1729     1
    837   1729     1
    840    854     1
    840    855     1
    840    857     1
    840    858     1
    840    851     1
    840    852     1
    841    845     1
    841    846     1
    841    848     1
    841    849     1
    841    866     1
    841    867     1
    842    844     1
    842    847     1
    842    869     1
    842    865     1
    842    854     1
    842    855     1
    843    844     1
    843    847     1
    843    869     1
    843    865     1
    843    854     1
    843    855     1
    844    848     1
    844    849     1
    844    863     1
    844    864     1
    845    847     1
    845    869     1
    845    862     1
    845    857     1
    845    858     1
    846    847     1
    846    869     1
    846    862     1
    846    857     1
    846    858     1
    847    860     1
    847    861     1
    848    869     1
    848    859     1
    848    851     1
    848    852     1
    849    869     1
    849    859     1
    849    851     1
    849    852     1
    850    869     1
    851    868     1
    851    860     1
    851    861     1
    852    868     1
    852    860     1
    852    861     1
    853    869     1
    854   1798     1
    854    866     1
    854    867     1
    855   1798     1
    855    866     1
    855    867     1
    856    869     1
    857   1768     1
    857    863     1
    857    864     1
    858   1768     1
    858    863     1
    858    864     1
    862   1760     1
    862   1761     1
    863   1759     1
    864   1759     1
    865   1790     1
    865   1791     1
    866   1789     1
    867   1789     1
    870    884     1
    870    885     1
    870    887     1
    870    888     1
    870    881     1
    870    882     1
    871    875     1
    871    876     1
    871    878     1
    871    879     1
    871    896     1
    871    897     1
    872    874     1
    872    877     1
    872    899     1
    872    895     1
    872    884     1
    872    885     1
    873    874     1
    873    877     1
    873    899     1
    873    895     1
    873    884     1
    873    885     1
    874    878     1
    874    879     1
    874    893     1
    874    894     1
    875    877     1
    875    899     1
    875    892     1
    875    887     1
    875    888     1
    876    877     1
    876    899     1
    876    892     1
    876    887     1
    876    888     1
    877    890     1
    877    891     1
    878    899     1
    878    889     1
    878    881     1
    878    882     1
    879    899     1
    879    889     1
    879    881     1
    879    882     1
    880    899     1
    881    898     1
    881    890     1
    881    891     1
    882    898     1
    882    890     1
    882    891     1
    883    899     1
    884   1858     1
    884    896     1
    884    897     1
    885   1858     1
    885    896     1
    885    897     1
    886    899     1
    887   1828     1
    887    893     1
    887    894     1
    888   1828     1
    888    893     1
    888    894     1
    892   1820     1
    892   1821     1
    893   1819     1
    894   1819     1
    895   1850     1
    895   1851     1
    896   1849     1
    897   1849     1
    900    914     1
    900    915     1
    900    917     1
    900    918     1
    900    911     1
    900    912     1
    901    905     1
    901    906     1
    901    908     1
    901    909     1
    901    926     1
    901    927     1
    902    904     1
    902    907     1
    902    929     1
    902    925     1
    902    914     1
    902    915     1
    903    904     1
    903    907     1
    903    929     1
    903    925     1
    903    914     1
    903    915     1
    904    908     1
    904    909     1
    904    923     1
    904    924     1
    905    907     1
    905    929     1
    905    922     1
    905    917     1
    905    918     1
    906    907     1
    906    929     1
    906    922     1
    906    917     1
    906    918     1
    907    920     1
    907    921     1
    908    929     1
    908    919     1
    908    911     1
    908    912     1
    909    929     1
    909    919     1
    909    911     1
    909    912     1
    910    929     1
    911    928     1
    911    920     1
    911    921     1
    912    928     1
    912    920     1
    912    921     1
    913    929     1
    914   1918     1
    914    926     1
    914    927     1
    915   1918     1
    915    926     1
    915    927     1
    916    929     1
    917   1888     1
    917    923     1
    917    924     1
    918   1888     1
    918    923     1
    918    924     1
    922   1880     1
    922   1881     1
    923   1879     1
    924   1879     1
    925   1910     1
    925   1911     1
    926   1909     1
    927   1909     1
    930    944     1
    930    945     1
    930    947     1
    930    948     1
    930    941     1
    930    942     1
    931    935     1
    931    936     1
    931    938     1
    931    939     1
    931    956     1
    931    957     1
    932    934     1
    932    937     1
    932    959     1
    932    955     1
    932    944     1
    932    945     1
    933    934     1
    933    937     1
    933    959     1
    933    955     1
    933    944     1
    933    945     1
    934    938     1
    934    939     1
    934    953     1
    934    954     1
    935    937     1
    935    959     1
    935    952     1
    935    947     1
    935    948     1
    936    937     1
    936    959     1
    936    952     1
    936    947     1
    936    948     1
    937    950     1
    937    951     1
    938    959     1
    938    949     1
    938    941     1
    938    942     1
    939    959     1
    939    949     1
    939    941     1
    939    942     1
    940    959     1
    941    958     1
    941    950     1
    941    951     1
    942    958     1
    942    950     1
    942    951     1
    943    959     1
    944   1978     1
    944    956     1
    944    957     1
    945   1978     1
    945    956     1
    945    957     1
    946    959     1
    947   1948     1
    947    953     1
    947    954     1
    948   1948     1
    948    953     1
    948    954     1
    952   1940     1
    952   1941     1
    953   1939     1
    954   1939     1
    955   1970     1
    955   1971     1
    956   1969     1
    957   1969     1
    960    974     1
    960    975     1
    960    977     1
    960    978     1
    960    971     1
    960    972     1
    961    965     1
    961    966     1
    961    968     1
    961    969     1
    961    986     1
    961    987     1
    962    964     1
    962    967     1
    962    989     1
    962    985     1
    962    974     1
    962    975     1
    963    964     1
    963    967     1
    963    989     1
    963    985     1
    963    974     1
    963    975     1
    964    968     1
    964    969     1
    964    983     1
    964    984     1
    965    967     1
    965    989     1
    965    982     1
    965    977     1
    965    978     1
    966    967     1
    966    989     1
    966    982     1
    966    977     1
    966    978     1
    967    980     1
    967    981     1
    968    989     1
    968    979     1
    968    971     1
    968    972     1
    969    989     1
    969    979     1
    969    971     1
    969    972     1
    970    989     1
    971    988     1
    971    980     1
    971    981     1
    972    988     1
    972    980     1
    972    981     1
    973    989     1
    974   2038     1
    974    986     1
    974    987     1
    975   2038     1
    975    986     1
    975    987     1
    976    989     1
    977   2008     1
    977    983     1
    977    984     1
    978   2008     1
    978    983     1
    978    984     1
    982   2000     1
    982   2001     1
    983   1999     1
    984   1999     1
    985   2030     1
    985   2031     1
    986   2029     1
    987   2029     1
    990   1004     1
    990   1005     1
    990   1007     1
    990   1008     1
    990   1001     1
    990   1002     1
    991    995     1
    991    996     1
    991    998     1
    991    999     1
    991   1016     1
    991   1017     1
    992    994     1
    992    997     1
    992   1019     1
    992   1015     1
    992   1004     1
    992   1005     1
    993    994     1
    993    997     1
    993   1019     1
    993   1015     1
    993   1004     1
    993   1005     1
    994    998     1
    994    999     1
    994   1013     1
    994   1014     1
    995    997     1
    995   1019     1
    995   1012     1
    995   1007     1
    995   1008     1
    996    997     1
    996   1019     1
    996   1012     1
    996   1007     1
    996   1008     1
    997   1010     1
    997   1011     1
    998   1019     1
    998   1009     1
    998   1001     1
    998   1002     1
    999   1019     1
    999   1009     1
    999   1001     1
    999   1002     1
   1000   1019     1
   1001   1018     1
   1001   1010     1
   1001   1011     1
   1002   1018     1
   1002   1010     1
   1002   1011     1
   1003   1019     1
   1004   2098     1
   1004   1016     1
   1004   1017     1
   1005   2098     1
   1005   1016     1
   1005   1017     1
   1006   1019     1
   1007   2068     1
   1007   1013     1
   1007   1014     1
   1008   2068     1
   1008   1013     1
   1008   1014     1
   1012   2060     1
   1012   2061     1
   1013   2059     1
   1014   2059     1
   1015   2090     1
   1015   2091     1
   1016   2089     1
   1017   2089     1
   1020   1034     1
   1020   1035     1
   1020   1037     1
   1020   1038     1
   1020   1031     1
   1020   1032     1
   1021   1025     1
   1021   1026     1
   1021   1028     1
   1021   1029     1
   1021   1046     1
   1021   1047     1
   1022   1024     1
   1022   1027     1
   1022   1049     1
   1022   1045     1
   1022   1034     1
   1022   1035     1
   1023   1024     1
   1023   1027     1
   1023   1049     1
   1023   1045     1
   1023   1034     1
   1023   1035     1
   1024   1028     1
   1024   1029     1
   1024   1043     1
   1024   1044     1
   1025   1027     1
   1025   1049     1
   1025   1042     1
   1025   1037     1
   1025   1038     1
   1026   1027     1
   1026   1049     1
   1026   1042     1
   1026   1037     1
   1026   1038     1
   1027   1040     1
   1027   1041     1
   1028   1049     1
   1028   1039     1
   1028   1031     1
   1028   1032     1
   1029   1049     1
   1029   1039     1
   1029   1031     1
   1029   1032     1
   1030   1049     1
   1031   1048     1
   1031   1040     1
   1031   1041     1
   1032   1048     1
   1032   1040     1
   1032   1041     1
   1033   1049     1
   1034   2158     1
   1034   1046     1
   1034   1047     1
   1035   2158     1
   1035   1046     1
   1035   1047     1
   1036   1049     1
   1037   2128     1
   1037   1043     1
   1037   1044     1
   1038   2128     1
   1038   1043     1
   1038   1044     1
   1042   2120     1
   1042   2121     1
   1043   2119     1
   1044   2119     1
   1045   2150     1
   1045   2151     1
   1046   2149     1
   1047   2149     1
   1050   1064     1
   1050   1065     1
   1050   1067     1
   1050   1068     1
   1050   1061     1
   1050   1062     1
   1051   1055     1
   1051   1056     1
   1051   1058     1
   1051   1059     1
   1051   1076     1
   1051   1077     1
   1052   1054     1
   1052   1057     1
   1052   1079     1
   1052   1075     1
   1052   1064     1
   1052   1065     1
   1053   1054     1
   1053   1057     1
   1053   1079     1
   1053   1075     1
   1053   1064     1
   1053   1065     1
   1054   1058     1
   1054   1059     1
   1054   1073     1
   1054   1074     1
   1055   1057     1
   1055   1079     1
   1055   1072     1
   1055   1067     1
   1055   1068     1
   1056   1057     1
   1056   1079     1
   1056   1072     1
   1056   1067     1
   1056   1068     1
   1057   1070     1
   1057   1071     1
   1058   1079     1
   1058   1069     1
   1058   1061     1
   1058   1062     1
   1059   1079     1
   1059   1069     1
   1059   1061     1
   1059   1062     1
   1060   1079     1
   1061   1078     1
   1061   1070     1
   1061   1071     1
   1062   1078     1
   1062   1070     1
   1062   1071     1
   1063   1079     1
   1064   2218     1
   1064   1076     1
   1064   1077     1
   1065   2218     1
   1065   1076     1
   1065   1077     1
   1066   1079     1
   1067   2188     1
   1067   1073     1
   1067   1074     1
   1068   2188     1
   1068   1073     1
   1068   1074     1
   1072   2180     1
   1072   2181     1
   1073   2179     1
   1074   2179     1
   1075   2210     1
   1075   2211     1
   1076   2209     1
   1077   2209     1
   1080   1094     1
   1080   1095     1
   1080   1097     1
   1080   1098     1
   1080   1091     1
   1080   1092     1
   1081   1085     1
   1081   1086     1
   1081   1088     1
   1081   1089     1
   1081   1106     1
   1081   1107     1
   1082   1084     1
   1082   1087     1
   1082   1109     1
   1082   1105     1
   1082   1094     1
   1082   1095     1
   1083   1084     1
   1083   1087     1
   1083   1109     1
   1083   1105     1
   1083   1094     1
   1083   1095     1
   1084   1088     1
   1084   1089     1
   1084   1103     1
   1084   1104     1
   1085   1087     1
   1085   1109     1
   1085   1102     1
   1085   1097     1
   1085   1098     1
   1086   1087     1
   1086   1109     1
   1086   1102     1
   1086   1097     1
   1086   1098     1
   1087   1100     1
   1087   1101     1
   1088   1109     1
   1088   1099     1
   1088   1091     1
   1088   1092     1
   1089   1109     1
   1089   1099     1
   1089   1091     1
   1089   1092     1
   1090   1109     1
   1091   1108     1
   1091   1100     1
   1091   1101     1
   1092   1108     1
   1092   1100     1
   1092   1101     1
   1093   1109     1
   1094   2278     1
   1094   1106     1
   1094   1107     1
   1095   2278     1
   1095   1106     1
   1095   1107     1
   1096   1109     1
   1097   2248     1
   1097   1103     1
   1097   1104     1
   1098   2248     1
   1098   1103     1
   1098   1104     1
   1102   2240     1
   1102   2241     1
   1103   2239     1
   1104   2239     1
   1105   2270     1
   1105   2271     1
   1106   2269     1
   1107   2269     1
   1110   1124     1
   1110   1125     1
   1110   1127     1
   1110   1128     1
   1110   1121     1
   1110   1122     1
   1111   1115     1
   1111   1116     1
   1111   1118     1
   1111   1119     1
   1111   1136     1
   1111   1137     1
   1112   1114     1
   1112   1117     1
   1112   1139     1
   1112   1135     1
   1112   1124     1
   1112   1125     1
   1113   1114     1
   1113   1117     1
   1113   1139     1
   1113   1135     1
   1113   1124     1
   1113   1125     1
   1114   1118     1
   1114   1119     1
   1114   1133     1
   1114   1134     1
   1115   1117     1
   1115   1139     1
   1115   1132     1
   1115   1127     1
   1115   1128     1
   1116   1117     1
   1116   1139     1
   1116   1132     1
   1116   1127     1
   1116   1128     1
   1117   1130     1
   1117   1131     1
   1118   1139     1
   1118   1129     1
   1118   1121     1
   1118   1122     1
   1119   1139     1
   1119   1129     1
   1119   1121     1
   1119   1122     1
   1120   1139     1
   1121   1138     1
   1121   1130     1
   1121   1131     1
   1122   1138     1
   1122   1130     1
   1122   1131     1
   1123   1139     1
   1124   2338     1
   1124   1136     1
   1124   1137     1
   1125   2338     1
   1125   1136     1
   1125   1137     1
   1126   1139     1
   1127   2308     1
   1127   1133     1
   1127   1134     1
   1128   2308     1
   1128   1133     1
   1128   1134     1
   1132   2300     1
   1132   2301     1
   1133   2299     1
   1134   2299     1
   1135   2330     1
   1135   2331     1
   1136   2329     1
   1137   2329     1
   1140   1154     1
   1140   1155     1
   1140   1157     1
   1140   1158     1
   1140   1151     1
   1140   1152     1
   1141   1145     1
   1141   1146     1
   1141   1148     1
   1141   1149     1
   1141   1166     1
   1141   1167     1
   1142   1144     1
   1142   1147     1
   1142   1169     1
   1142   1165     1
   1142   1154     1
   1142   1155     1
   1143   1144     1
   1143   1147     1
   1143   1169     1
   1143   1165     1
   1143   1154     1
   1143   1155     1
   1144   1148     1
   1144   1149     1
   1144   1163     1
   1144   1164     1
   1145   1147     1
   1145   1169     1
   1145   1162     1
   1145   1157     1
   1145   1158     1
   1146   1147     1
   1146   1169     1
   1146   1162     1
   1146   1157     1
   1146   1158     1
   1147   1160     1
   1147   1161     1
   1148   1169     1
   1148   1159     1
   1148   1151     1
   1148   1152     1
   1149   1169     1
   1149   1159     1
   1149   1151     1
   1149   1152     1
   1150   1169     1
   1151   1168     1
   1151   1160     1
   1151   1161     1
   1152   1168     1
   1152   1160     1
   1152   1161     1
   1153   1169     1
   1154   2398     1
   1154   1166     1
   1154   1167     1
   1155   2398     1
   1155   1166     1
   1155   1167     1
   1156   1169     1
   1157   2368     1
   1157   1163     1
   1157   1164     1
   1158   2368     1
   1158   1163     1
   1158   1164     1
   1162   2360     1
   1162   2361     1
   1163   2359     1
   1164   2359     1
   1165   2390     1
   1165   2391     1
   1166   2389     1
   1167   2389     1
   1170   1184     1
   1170   1185     1
   1170   1187     1
   1170   1188     1
   1170   1181     1
   1170   1182     1
   1171   1175     1
   1171   1176     1
   1171   1178     1
   1171   1179     1
   1171   1196     1
   1171   1197     1
   1172   1174     1
   1172   1177     1
   1172   1199     1
   1172   1195     1
   1172   1184     1
   1172   1185     1
   1173   1174     1
   1173   1177     1
   1173   1199     1
   1173   1195     1
   1173   1184     1
   1173   1185     1
   1174   1178     1
   1174   1179     1
   1174   1193     1
   1174   1194     1
   1175   1177     1
   1175   1199     1
   1175   1192     1
   1175   1187     1
   1175   1188     1
   1176   1177     1
   1176   1199     1
   1176   1192     1
   1176   1187     1
   1176   1188     1
   1177   1190     1
   1177   1191     1
   1178   1199     1
   1178   1189     1
   1178   1181     1
   1178   1182     1
   1179   1199     1
   1179   1189     1
   1179   1181     1
   1179   1182     1
   1180   1199     1
   1181   1198     1
   1181   1190     1
   1181   1191     1
   1182   1198     1
   1182   1190     1
   1182   1191     1
   1183   1199     1
   1184   2458     1
   1184   1196     1
   1184   1197     1
   1185   2458     1
   1185   1196     1
   1185   1197     1
   1186   1199     1
   1187   2428     1
   1187   1193     1
   1187   1194     1
   1188   2428     1
   1188   1193     1
   1188   1194     1
   1192   2420     1
   1192   2421     1
   1193   2419     1
   1194   2419     1
   1195   2450     1
   1195   2451     1
   1196   2449     1
   1197   2449     1
   1200   1214     1
   1200   1215     1
   1200   1217     1
   1200   1218     1
   1200   1211     1
   1200   1212     1
   1201   1205     1
   1201   1206     1
   1201   1208     1
   1201   1209     1
   1201   1226     1
   1201   1227     1
   1202   1204     1
   1202   1207     1
   1202   1229     1
   1202   1225     1
   1202   1214     1
   1202   1215     1
   1203   1204     1
   1203   1207     1
   1203   1229     1
   1203   1225     1
   1203   1214     1
   1203   1215     1
   1204   1208     1
   1204   1209     1
   1204   1223     1
   1204   1224     1
   1205   1207     1
   1205   1229     1
   1205   1222     1
   1205   1217     1
   1205   1218     1
   1206   1207     1
   1206   1229     1
   1206   1222     1
   1206   1217     1
   1206   1218     1
   1207   1220     1
   1207   1221     1
   1208   1229     1
   1208   1219     1
   1208   1211     1
   1208   1212     1
   1209   1229     1
   1209   1219     1
   1209   1211     1
   1209   1212     1
   1210   1229     1
   1211   1228     1
   1211   1220     1
   1211   1221     1
   1212   1228     1
   1212   1220     1
   1212   1221     1
   1213   1229     1
   1214   2518     1
   1214   1226     1
   1214   1227     1
   1215   2518     1
   1215   1226     1
   1215   1227     1
   1216   1229     1
   1217   2488     1
   1217   1223     1
   1217   1224     1
   1218   2488     1
   1218   1223     1
   1218   1224     1
   1222   2480     1
   1222   2481     1
   1223   2479     1
   1224   2479     1
   1225   2510     1
   1225   2511     1
   1226   2509     1
   1227   2509     1
   1230   1244     1
   1230   1245     1
   1230   1247     1
   1230   1248     1
   1230   1241     1
   1230   1242     1
   1231   1235     1
   1231   1236     1
   1231   1238     1
   1231   1239     1
   1231   1256     1
   1231   1257     1
   1232   1234     1
   1232   1237     1
   1232   1259     1
   1232   1255     1
   1232   1244     1
   1232   1245     1
   1233   1234     1
   1233   1237     1
   1233   1259     1
   1233   1255     1
   1233   1244     1
   1233   1245     1
   1234   1238     1
   1234   1239     1
   1234   1253     1
   1234   1254     1
   1235   1237     1
   1235   1259     1
   1235   1252     1
   1235   1247     1
   1235   1248     1
   1236   1237     1
   1236   1259     1
   1236   1252     1
   1236   1247     1
   1236   1248     1
   1237   1250     1
   1237   1251     1
   1238   1259     1
   1238   1249     1
   1238   1241     1
   1238   1242     1
   1239   1259     1
   1239   1249     1
   1239   1241     1
   1239   1242     1
   1240   1259     1
   1241   1258     1
   1241   1250     1
   1241   1251     1
   1242   1258     1
   1242   1250     1
   1242   1251     1
   1243   1259     1
   1244   2578     1
   1244   1256     1
   1244   1257     1
   1245   2578     1
   1245   1256     1
   1245   1257     1
   1246   1259     1
   1247   2548     1
   1247   1253     1
   1247   1254     1
   1248   2548     1
   1248   1253     1
   1248   1254     1
   1252   2540     1
   1252   2541     1
   1253   2539     1
   1254   2539     1
   1255   2570     1
   1255   2571     1
   1256   2569     1
   1257   2569     1
   1260   1274     1
   1260   1275     1
   1260   1277     1
   1260   1278     1
   1260   1271     1
   1260   1272     1
   1261   1265     1
   1261   1266     1
   1261   1268     1
   1261   1269     1
   1261   1286     1
   1261   1287     1
   1262   1264     1
   1262   1267     1
   1262   1289     1
   1262   1285     1
   1262   1274     1
   1262   1275     1
   1263   1264     1
   1263   1267     1
   1263   1289     1
   1263   1285     1
   1263   1274     1
   1263   1275     1
   1264   1268     1
   1264   1269     1
   1264   1283     1
   1264   1284     1
   1265   1267     1
   1265   1289     1
   1265   1282     1
   1265   1277     1
   1265   1278     1
   1266   1267     1
   1266   1289     1
   1266   1282     1
   1266   1277     1
   1266   1278     1
   1267   1280     1
   1267   1281     1
   1268   1289     1
   1268   1279     1
   1268   1271     1
   1268   1272     1
   1269   1289     1
   1269   1279     1
   1269   1271     1
   1269   1272     1
   1270   1289     1
   1271   1288     1
   1271   1280     1
   1271   1281     1
   1272   1288     1
   1272   1280     1
   1272   1281     1
   1273   1289     1
   1274   2638     1
   1274   1286     1
   1274   1287     1
   1275   2638     1
   1275   1286     1
   1275   1287     1
   1276   1289     1
   1277   2608     1
   1277   1283     1
   1277   1284     1
   1278   2608     1
   1278   1283     1
   1278   1284     1
   1282   2600     1
   1282   2601     1
   1283   2599     1
   1284   2599     1
   1285   2630     1
   1285   2631     1
   1286   2629     1
   1287   2629     1
   1290   1304     1
   1290   1305     1
   1290   1307     1
   1290   1308     1
   1290   1301     1
   1290   1302     1
   1291   1295     1
   1291   1296     1
   1291   1298     1
   1291   1299     1
   1291   1316     1
   1291   1317     1
   1292   1294     1
   1292   1297     1
   1292   1319     1
   1292   1315     1
   1292   1304     1
   1292   1305     1
   1293   1294     1
   1293   1297     1
   1293   1319     1
   1293   1315     1
   1293   1304     1
   1293   1305     1
   1294   1298     1
   1294   1299     1
   1294   1313     1
   1294   1314     1
   1295   1297     1
   1295   1319     1
   1295   1312     1
   1295   1307     1
   1295   1308     1
   1296   1297     1
   1296   1319     1
   1296   1312     1
   1296   1307     1
   1296   1308     1
   1297   1310     1
   1297   1311     1
   1298   1319     1
   1298   1309     1
   1298   1301     1
   1298   1302     1
   1299   1319     1
   1299   1309     1
   1299   1301     1
   1299   1302     1
   1300   1319     1
   1301   1318     1
   1301   1310     1
   1301   1311     1
   1302   1318     1
   1302   1310     1
   1302   1311     1
   1303   1319     1
   1304   2698     1
   1304   1316     1
   1304   1317     1
   1305   2698     1
   1305   1316     1
   1305   1317     1
   1306   1319     1
   1307   2668     1
   1307   1313     1
   1307   1314     1
   1308   2668     1
   1308   1313     1
   1308   1314     1
   1312   2660     1
   1312   2661     1
   1313   2659     1
   1314   2659     1
   1315   2690     1
   1315   2691     1
   1316   2689     1
   1317   2689     1
   1320   1334     1
   1320   1335     1
   1320   1337     1
   1320   1338     1
   1320   1331     1
   1320   1332     1
   1321   1325     1
   1321   1326     1
   1321   1328     1
   1321   1329     1
   1321   1346     1
   1321   1347     1
   1322   1324     1
   1322   1327     1
   1322   1349     1
   1322   1345     1
   1322   1334     1
   1322   1335     1
   1323   1324     1
   1323   1327     1
   1323   1349     1
   1323   1345     1
   1323   1334     1
   1323   1335     1
   1324   1328     1
   1324   1329     1
   1324   1343     1
   1324   1344     1
   1325   1327     1
   1325   1349     1
   1325   1342     1
   1325   1337     1
   1325   1338     1
   1326   1327     1
   1326   1349     1
   1326   1342     1
   1326   1337     1
   1326   1338     1
   1327   1340     1
   1327   1341     1
   1328   1349     1
   1328   1339     1
   1328   1331     1
   1328   1332     1
   1329   1349     1
   1329   1339     1
   1329   1331     1
   1329   1332     1
   1330   1349     1
   1331   1348     1
   1331   1340     1
   1331   1341     1
   1332   1348     1
   1332   1340     1
   1332   1341     1
   1333   1349     1
   1334   2758     1
   1334   1346     1
   1334   1347     1
   1335   2758     1
   1335   1346     1
   1335   1347     1
   1336   1349     1
   1337   2728     1
   1337   1343     1
   1337   1344     1
   1338   2728     1
   1338   1343     1
   1338   1344     1
   1342   2720     1
   1342   2721     1
   1343   2719     1
   1344   2719     1
   1345   2750     1
   1345   2751     1
   1346   2749     1
   1347   2749     1
   1350   1364     1
   1350   1365     1
   1350   1367     1
   1350   1368     1
   1350   1361     1
   1350   1362     1
   1351   1355     1
   1351   1356     1
   1351   1358     1
   1351   1359     1
   1351   1376     1
   1351   1377     1
   1352   1354     1
   1352   1357     1
   1352   1379     1
   1352   1375     1
   1352   1364     1
   1352   1365     1
   1353   1354     1
   1353   1357     1
   1353   1379     1
   1353   1375     1
   1353   1364     1
   1353   1365     1
   1354   1358     1
   1354   1359     1
   1354   1373     1
   1354   1374     1
   1355   1357     1
   1355   1379     1
   1355   1372     1
   1355   1367     1
   1355   1368     1
   1356   1357     1
   1356   1379     1
   1356   1372     1
   1356   1367     1
   1356   1368     1
   1357   1370     1
   1357   1371     1
   1358   1379     1
   1358   1369     1
   1358   1361     1
   1358   1362     1
   1359   1379     1
   1359   1369     1
   1359   1361     1
   1359   1362     1
   1360   1379     1
   1361   1378     1
   1361   1370     1
   1361   1371     1
   1362   1378     1
   1362   1370     1
   1362   1371     1
   1363   1379     1
   1364   2818     1
   1364   1376     1
   1364   1377     1
   1365   2818     1
   1365   1376     1
   1365   1377     1
   1366   1379     1
   1367   2788     1
   1367   1373     1
   1367   1374     1
   1368   2788     1
   1368   1373     1
   1368   1374     1
   1372   2780     1
   1372   2781     1
   1373   2779     1
   1374   2779     1
   1375   2810     1
   1375   2811     1
   1376   2809     1
   1377   2809     1
   1380   1394     1
   1380   1395     1
   1380   1397     1
   1380   1398     1
   1380   1391     1
   1380   1392     1
   1381   1385     1
   1381   1386     1
   1381   1388     1
   1381   1389     1
   1381   1406     1
   1381   1407     1
   1382   1384     1
   1382   1387     1
   1382   1409     1
   1382   1405     1
   1382   1394     1
   1382   1395     1
   1383   1384     1
   1383   1387     1
   1383   1409     1
   1383   1405     1
   1383   1394     1
   1383   1395     1
   1384   1388     1
   1384   1389     1
   1384   1403     1
   1384   1404     1
   1385   1387     1
   1385   1409     1
   1385   1402     1
   1385   1397     1
   1385   1398     1
   1386   1387     1
   1386   1409     1
   1386   1402     1
   1386   1397     1
   1386   1398     1
   1387   1400     1
   1387   1401     1
   1388   1409     1
   1388   1399     1
   1388   1391     1
   1388   1392     1
   1389   1409     1
   1389   1399     1
   1389   1391     1
   1389   1392     1
   1390   1409     1
   1391   1408     1
   1391   1400     1
   1391   1401     1
   1392   1408     1
   1392   1400     1
   1392   1401     1
   1393   1409     1
   1394   2878     1
   1394   1406     1
   1394   1407     1
   1395   2878     1
   1395   1406     1
   1395   1407     1
   1396   1409     1
   1397   2848     1
   1397   1403     1
   1397   1404     1
   1398   2848     1
   1398   1403     1
   1398   1404     1
   1402   2840     1
   1402   2841     1
   1403   2839     1
   1404   2839     1
   1405   2870     1
   1405   2871     1
   1406   2869     1
   1407   2869     1
   1410   1424     1
   1410   1425     1
   1410   1427     1
   1410   1428     1
   1410   1421     1
   1410   1422     1
   1411   1415     1
   1411   1416     1
   1411   1418     1
   1411   1419     1
   1411   1436     1
   1411   1437     1
   1412   1414     1
   1412   1417     1
   1412   1439     1
   1412   1435     1
   1412   1424     1
   1412   1425     1
   1413   1414     1
   1413   1417     1
   1413   1439     1
   1413   1435     1
   1413   1424     1
   1413   1425     1
   1414   1418     1
   1414   1419     1
   1414   1433     1
   1414   1434     1
   1415   1417     1
   1415   1439     1
   1415   1432     1
   1415   1427     1
   1415   1428     1
   1416   1417     1
   1416   1439     1
   1416   1432     1
   1416   1427     1
   1416   1428     1
   1417   1430     1
   1417   1431     1
   1418   1439     1
   1418   1429     1
   1418   1421     1
   1418   1422     1
   1419   1439     1
   1419   1429     1
   1419   1421     1
   1419   1422     1
   1420   1439     1
   1421   1438     1
   1421   1430     1
   1421   1431     1
   1422   1438     1
   1422   1430     1
   1422   1431     1
   1423   1439     1
   1424   2938     1
   1424   1436     1
   1424   1437     1
   1425   2938     1
   1425   1436     1
   1425   1437     1
   1426   1439     1
   1427   2908     1
   1427   1433     1
   1427   1434     1
   1428   2908     1
   1428   1433     1
   1428   1434     1
   1432   2900     1
   1432   2901     1
   1433   2899     1
   1434   2899     1
   1435   2930     1
   1435   2931     1
   1436   2929     1
   1437   2929     1
   1440   1454     1
   1440   1455     1
   1440   1457     1
   1440   1458     1
   1440   1451     1
   1440   1452     1
   1441   1445     1
   1441   1446     1
   1441   1448     1
   1441   1449     1
   1441   1466     1
   1441   1467     1
   1442   1444     1
   1442   1447     1
   1442   1469     1
   1442   1465     1
   1442   1454     1
   1442   1455     1
   1443   1444     1
   1443   1447     1
   1443   1469     1
   1443   1465     1
   1443   1454     1
   1443   1455     1
   1444   1448     1
   1444   1449     1
   1444   1463     1
   1444   1464     1
   1445   1447     1
   1445   1469     1
   1445   1462     1
   1445   1457     1
   1445   1458     1
   1446   1447     1
   1446   1469     1
   1446   1462     1
   1446   1457     1
   1446   1458     1
   1447   1460     1
   1447   1461     1
   1448   1469     1
   1448   1459     1
   1448   1451     1
   1448   1452     1
   1449   1469     1
   1449   1459     1
   1449   1451     1
   1449   1452     1
   1450   1469     1
   1451   1468     1
   1451   1460     1
   1451   1461     1
   1452   1468     1
   1452   1460     1
   1452   1461     1
   1453   1469     1
   1454   2998     1
   1454   1466     1
   1454   1467     1
   1455   2998     1
   1455   1466     1
   1455   1467     1
   1456   1469     1
   1457   2968     1
   1457   1463     1
   1457   1464     1
   1458   2968     1
   1458   1463     1
   1458   1464     1
   1462   2960     1
   1462   2961     1
   1463   2959     1
   1464   2959     1
   1465   2990     1
   1465   2991     1
   1466   2989     1
   1467   2989     1
   1470   1484     1
   1470   1485     1
   1470   1487     1
   1470   1488     1
   1470   1481     1
   1470   1482     1
   1471   1475     1
   1471   1476     1
   1471   1478     1
   1471   1479     1
   1471   1496     1
   1471   1497     1
   1472   1474     1
   1472   1477     1
   1472   1499     1
   1472   1495     1
   1472   1484     1
   1472   1485     1
   1473   1474     1
   1473   1477     1
   1473   1499     1
   1473   1495     1
   1473   1484     1
   1473   1485     1
   1474   1478     1
   1474   1479     1
   1474   1493     1
   1474   1494     1
   1475   1477     1
   1475   1499     1
   1475   1492     1
   1475   1487     1
   1475   1488     1
   1476   1477     1
   1476   1499     1
   1476   1492     1
   1476   1487     1
   1476   1488     1
   1477   1490     1
   1477   1491     1
   1478   1499     1
   1478   1489     1
   1478   1481     1
   1478   1482     1
   1479   1499     1
   1479   1489     1
   1479   1481     1
   1479   1482     1
   1480   1499     1
   1481   1498     1
   1481   1490     1
   1481   1491     1
   1482   1498     1
   1482   1490     1
   1482   1491     1
   1483   1499     1
   1484   3058     1
   1484   1496     1
   1484   1497     1
   1485   3058     1
   1485   1496     1
   1485   1497     1
   1486   1499     1
   1487   3028     1
   1487   1493     1
   1487   1494     1
   1488   3028     1
   1488   1493     1
   1488   1494     1
   1492   3020     1
   1492   3021     1
   1493   3019     1
   1494   3019     1
   1495   3050     1
   1495   3051     1
   1496   3049     1
   1497   3049     1
   1500   1514     1
   1500   1515     1
   1500   1517     1
   1500   1518     1
   1500   1511     1
   1500   1512     1
   1501   1505     1
   1501   1506     1
   1501   1508     1
   1501   1509     1
   1501   1526     1
   1501   1527     1
   1502   1504     1
   1502   1507     1
   1502   1529     1
   1502   1525     1
   1502   1514     1
   1502   1515     1
   1503   1504     1
   1503   1507     1
   1503   1529     1
   1503   1525     1
   1503   1514     1
   1503   1515     1
   1504   1508     1
   1504   1509     1
   1504   1523     1
   1504   1524     1
   1505   1507     1
   1505   1529     1
   1505   1522     1
   1505   1517     1
   1505   1518     1
   1506   1507     1
   1506   1529     1
   1506   1522     1
   1506   1517     1
   1506   1518     1
   1507   1520     1
   1507   1521     1
   1508   1529     1
   1508   1519     1
   1508   1511     1
   1508   1512     1
   1509   1529     1
   1509   1519     1
   1509   1511     1
   1509   1512     1
   1510   1529     1
   1511   1528     1
   1511   1520     1
   1511   1521     1
   1512   1528     1
   1512   1520     1
   1512   1521     1
   1513   1529     1
   1514   3118     1
   1514   1526     1
   1514   1527     1
   1515   3118     1
   1515   1526     1
   1515   1527     1
   1516   1529     1
   1517   3088     1
   1517   1523     1
   1517   1524     1
   1518   3088     1
   1518   1523     1
   1518   1524     1
   1522   3080     1
   1522   3081     1
   1523   3079     1
   1524   3079     1
   1525   3110     1
   1525   3111     1
   1526   3109     1
   1527   3109     1
   1530   1544     1
   1530   1545     1
   1530   1547     1
   1530   1548     1
   1530   1541     1
   1530   1542     1
   1531   1535     1
   1531   1536     1
   1531   1538     1
   1531   1539     1
   1531   1556     1
   1531   1557     1
   1532   1534     1
   1532   1537     1
   1532   1559     1
   1532   1555     1
   1532   1544     1
   1532   1545     1
   1533   1534     1
   1533   1537     1
   1533   1559     1
   1533   1555     1
   1533   1544     1
   1533   1545     1
   1534   1538     1
   1534   1539     1
   1534   1553     1
   1534   1554     1
   1535   1537     1
   1535   1559     1
   1535   1552     1
   1535   1547     1
   1535   1548     1
   1536   1537     1
   1536   1559     1
   1536   1552     1
   1536   1547     1
   1536   1548     1
   1537   1550     1
   1537   1551     1
   1538   1559     1
   1538   1549     1
   1538   1541     1
   1538   1542     1
   1539   1559     1
   1539   1549     1
   1539   1541     1
   1539   1542     1
   1540   1559     1
   1541   1558     1
   1541   1550     1
   1541   1551     1
   1542   1558     1
   1542   1550     1
   1542   1551     1
   1543   1559     1
   1544   3178     1
   1544   1556     1
   1544   1557     1
   1545   3178     1
   1545   1556     1
   1545   1557     1
   1546   1559     1
   1547   3148     1
   1547   1553     1
   1547   1554     1
   1548   3148     1
   1548   1553     1
   1548   1554     1
   1552   3140     1
   1552   3141     1
   1553   3139     1
   1554   3139     1
   1555   3170     1
   1555   3171     1
   1556   3169     1
   1557   3169     1
   1560   1574     1
   1560   1575     1
   1560   1577     1
   1560   1578     1
   1560   1571     1
   1560   1572     1
   1561   1565     1
   1561   1566     1
   1561   1568     1
   1561   1569     1
   1561   1586     1
   1561   1587     1
   1562   1564     1
   1562   1567     1
   1562   1589     1
   1562   1585     1
   1562   1574     1
   1562   1575     1
   1563   1564     1
   1563   1567     1
   1563   1589     1
   1563   1585     1
   1563   1574     1
   1563   1575     1
   1564   1568     1
   1564   1569     1
   1564   1583     1
   1564   1584     1
   1565   1567     1
   1565   1589     1
   1565   1582     1
   1565   1577     1
   1565   1578     1
   1566   1567     1
   1566   1589     1
   1566   1582     1
   1566   1577     1
   1566   1578     1
   1567   1580     1
   1567   1581     1
   1568   1589     1
   1568   1579     1
   1568   1571     1
   1568   1572     1
   1569   1589     1
   1569   1579     1
   1569   1571     1
   1569   1572     1
   1570   1589     1
   1571   1588     1
   1571   1580     1
   1571   1581     1
   1572   1588     1
   1572   1580     1
   1572   1581     1
   1573   1589     1
   1574   3238     1
   1574   1586     1
   1574   1587     1
   1575   3238     1
   1575   1586     1
   1575   1587     1
   1576   1589     1
   1577   3208     1
   1577   1583     1
   1577   1584     1
   1578   3208     1
   1578   1583     1
   1578   1584     1
   1582   3200     1
   1582   3201     1
   1583   3199     1
   1584   3199     1
   1585   3230     1
   1585   3231     1
   1586   3229     1
   1587   3229     1
   1590   1604     1
   1590   1605     1
   1590   1607     1
   1590   1608     1
   1590   1601     1
   1590   1602     1
   1591   1595     1
   1591   1596     1
   1591   1598     1
   1591   1599     1
   1591   1616     1
   1591   1617     1
   1592   1594     1
   1592   1597     1
   1592   1619     1
   1592   1615     1
   1592   1604     1
   1592   1605     1
   1593   1594     1
   1593   1597     1
   1593   1619     1
   1593   1615     1
   1593   1604     1
   1593   1605     1
   1594   1598     1
   1594   1599     1
   1594   1613     1
   1594   1614     1
   1595   1597     1
   1595   1619     1
   1595   1612     1
   1595   1607     1
   1595   1608     1
   1596   1597     1
   1596   1619     1
   1596   1612     1
   1596   1607     1
   1596   1608     1
   1597   1610     1
   1597   1611     1
   1598   1619     1
   1598   1609     1
   1598   1601     1
   1598   1602     1
   1599   1619     1
   1599   1609     1
   1599   1601     1
   1599   1602     1
   1600   1619     1
   1601   1618     1
   1601   1610     1
   1601   1611     1
   1602   1618     1
   1602   1610     1
   1602   1611     1
   1603   1619     1
   1604   3298     1
   1604   1616     1
   1604   1617     1
   1605   3298     1
   1605   1616     1
   1605   1617     1
   1606   1619     1
   1607   3268     1
   1607   1613     1
   1607   1614     1
   1608   3268     1
   1608   1613     1
   1608   1614     1
   1612   3260     1
   1612   3261     1
   1613   3259     1
   1614   3259     1
   1615   3290     1
   1615   3291     1
   1616   3289     1
   1617   3289     1
   1620   1634     1
   1620   1635     1
   1620   1637     1
   1620   1638     1
   1620   1631     1
   1620   1632     1
   1621   1625     1
   1621   1626     1
   1621   1628     1
   1621   1629     1
   1621   1646     1
   1621   1647     1
   1622   1624     1
   1622   1627     1
   1622   1649     1
   1622   1645     1
   1622   1634     1
   1622   1635     1
   1623   1624     1
   1623   1627     1
   1623   1649     1
   1623   1645     1
   1623   1634     1
   1623   1635     1
   1624   1628     1
   1624   1629     1
   1624   1643     1
   1624   1644     1
   1625   1627     1
   1625   1649     1
   1625   1642     1
   1625   1637     1
   1625   1638     1
   1626   1627     1
   1626   1649     1
   1626   1642     1
   1626   1637     1
   1626   1638     1
   1627   1640     1
   1627   1641     1
   1628   1649     1
   1628   1639     1
   1628   1631     1
   1628   1632     1
   1629   1649     1
   1629   1639     1
   1629   1631     1
   1629   1632     1
   1630   1649     1
   1631   1648     1
   1631   1640     1
   1631   1641     1
   1632   1648     1
   1632   1640     1
   1632   1641     1
   1633   1649     1
   1634   3358     1
   1634   1646     1
   1634   1647     1
   1635   3358     1
   1635   1646     1
   1635   1647     1
   1636   1649     1
   1637   3328     1
   1637   1643     1
   1637   1644     1
   1638   3328     1
   1638   1643     1
   1638   1644     1
   1642   3320     1
   1642   3321     1
   1643   3319     1
   1644   3319     1
   1645   3350     1
   1645   3351     1
   1646   3349     1
   1647   3349     1
   1650   1664     1
   1650   1665     1
   1650   1667     1
   1650   1668     1
   1650   1661     1
   1650   1662     1
   1651   1655     1
   1651   1656     1
   1651   1658     1
   1651   1659     1
   1651   1676     1
   1651   1677     1
   1652   1654     1
   1652   1657     1
   1652   1679     1
   1652   1675     1
   1652   1664     1
   1652   1665     1
   1653   1654     1
   1653   1657     1
   1653   1679     1
   1653   1675     1
   1653   1664     1
   1653   1665     1
   1654   1658     1
   1654   1659     1
   1654   1673     1
   1654   1674     1
   1655   1657     1
   1655   1679     1
   1655   1672     1
   1655   1667     1
   1655   1668     1
   1656   1657     1
   1656   1679     1
   1656   1672     1
   1656   1667     1
   1656   1668     1
   1657   1670     1
   1657   1671     1
   1658   1679     1
   1658   1669     1
   1658   1661     1
   1658   1662     1
   1659   1679     1
   1659   1669     1
   1659   1661     1
   1659   1662     1
   1660   1679     1
   1661   1678     1
   1661   1670     1
   1661   1671     1
   1662   1678     1
   1662   1670     1
   1662   1671     1
   1663   1679     1
   1664   3418     1
   1664   1676     1
   1664   1677     1
   1665   3418     1
   1665   1676     1
   1665   1677     1
   1666   1679     1
   1667   3388     1
   1667   1673     1
   1667   1674     1
   1668   3388     1
   1668   1673     1
   1668   1674     1
   1672   3380     1
   1672   3381     1
   1673   3379     1
   1674   3379     1
   1675   3410     1
   1675   3411     1
   1676   3409     1
   1677   3409     1
   1680   1694     1
   1680   1695     1
   1680   1697     1
   1680   1698     1
   1680   1691     1
   1680   1692     1
   1681   1685     1
   1681   1686     1
   1681   1688     1
   1681   1689     1
   1681   1706     1
   1681   1707     1
   1682   1684     1
   1682   1687     1
   1682   1709     1
   1682   1705     1
   1682   1694     1
   1682   1695     1
   1683   1684     1
   1683   1687     1
   1683   1709     1
   1683   1705     1
   1683   1694     1
   1683   1695     1
   1684   1688     1
   1684   1689     1
   1684   1703     1
   1684   1704     1
   1685   1687     1
   1685   1709     1
   1685   1702     1
   1685   1697     1
   1685   1698     1
   1686   1687     1
   1686   1709     1
   1686   1702     1
   1686   1697     1
   1686   1698     1
   1687   1700     1
   1687   1701     1
   1688   1709     1
   1688   1699     1
   1688   1691     1
   1688   1692     1
   1689   1709     1
   1689   1699     1
   1689   1691     1
   1689   1692     1
   1690   1709     1
   1691   1708     1
   1691   1700     1
   1691   1701     1
   1692   1708     1
   1692   1700     1
   1692   1701     1
   1693   1709     1
   1694   3478     1
   1694   1706     1
   1694   1707     1
   1695   3478     1
   1695   1706     1
   1695   1707     1
   1696   1709     1
   1697   3448     1
   1697   1703     1
   1697   1704     1
   1698   3448     1
   1698   1703     1
   1698   1704     1
   1702   3440     1
   1702   3441     1
   1703   3439     1
   1704   3439     1
   1705   3470     1
   1705   3471     1
   1706   3469     1
   1707   3469     1
   1710   1724     1
   1710   1725     1
   1710   1727     1
   1710   1728     1
   1710   1721     1
   1710   1722     1
   1711   1715     1
   1711   1716     1
   1711   1718     1
   1711   1719     1
   1711   1736     1
   1711   1737     1
   1712   1714     1
   1712   1717     1
   1712   1739     1
   1712   1735     1
   1712   1724     1
   1712   1725     1
   1713   1714     1
   1713   1717     1
   1713   1739     1
   1713   1735     1
   1713   1724     1
   1713   1725     1
   1714   1718     1
   1714   1719     1
   1714   1733     1
   1714   1734     1
   1715   1717     1
   1715   1739     1
   1715   1732     1
   1715   1727     1
   1715   1728     1
   1716   1717     1
   1716   1739     1
   1716   1732     1
   1716   1727     1
   1716   1728     1
   1717   1730     1
   1717   1731     1
   1718   1739     1
   1718   1729     1
   1718   1721     1
   1718   1722     1
   1719   1739     1
   1719   1729     1
   1719   1721     1
   1719   1722     1
   1720   1739     1
   1721   1738     1
   1721   1730     1
   1721   1731     1
   1722   1738     1
   1722   1730     1
   1722   1731     1
   1723   1739     1
   1724   3538     1
   1724   1736     1
   1724   1737     1
   1725   3538     1
   1725   1736     1
   1725   1737     1
   1726   1739     1
   1727   3508     1
   1727   1733     1
   1727   1734     1
   1728   3508     1
   1728   1733     1
   1728   1734     1
   1732   3500     1
   1732   3501     1
   1733   3499     1
   1734   3499     1
   1735   3530     1
   1735   3531     1
   1736   3529     1
   1737   3529     1
   1740   1754     1
   1740   1755     1
   1740   1757     1
   1740   1758     1
   1740   1751     1
   1740   1752     1
   1741   1745     1
   1741   1746     1
   1741   1748     1
   1741   1749     1
   1741   1766     1
   1741   1767     1
   1742   1744     1
   1742   1747     1
   1742   1769     1
   1742   1765     1
   1742   1754     1
   1742   1755     1
   1743   1744     1
   1743   1747     1
   1743   1769     1
   1743   1765     1
   1743   1754     1
   1743   1755     1
   1744   1748     1
   1744   1749     1
   1744   1763     1
   1744   1764     1
   1745   1747     1
   1745   1769     1
   1745   1762     1
   1745   1757     1
   1745   1758     1
   1746   1747     1
   1746   1769     1
   1746   1762     1
   1746   1757     1
   1746   1758     1
   1747   1760     1
   1747   1761     1
   1748   1769     1
   1748   1759     1
   1748   1751     1
   1748   1752     1
   1749   1769     1
   1749   1759     1
   1749   1751     1
   1749   1752     1
   1750   1769     1
   1751   1768     1
   1751   1760     1
   1751   1761     1
   1752   1768     1
   1752   1760     1
   1752   1761     1
   1753   1769     1
   1754   3598     1
   1754   1766     1
   1754   1767     1
   1755   3598     1
   1755   1766     1
   1755   1767     1
   1756   1769     1
   1757   3568     1
   1757   1763     1
   1757   1764     1
   1758   3568     1
   1758   1763     1
   1758   1764     1
   1762   3560     1
   1762   3561     1
   1763   3559     1
   1764   3559     1
   1765   3590     1
   1765   3591     1
   1766   3589     1
   1767   3589     1
   1770   1784     1
   1770   1785     1
   1770   1787     1
   1770   1788     1
   1770   1781     1
   1770   1782     1
   1771   1775     1
   1771   1776     1
   1771   1778     1
   1771   1779     1
   1771   1796     1
   1771   1797     1
   1772   1774     1
   1772   1777     1
   1772   1799     1
   1772   1795     1
   1772   1784     1
   1772   1785     1
   1773   1774     1
   1773   1777     1
   1773   1799     1
   1773   1795     1
   1773   1784     1
   1773   1785     1
   1774   1778     1
   1774   1779     1
   1774   1793     1
   1774   1794     1
   1775   1777     1
   1775   1799     1
   1775   1792     1
   1775   1787     1
   1775   1788     1
   1776   1777     1
   1776   1799     1
   1776   1792     1
   1776   1787     1
   1776   1788     1
   1777   1790     1
   1777   1791     1
   1778   1799     1
   1778   1789     1
   1778   1781     1
   1778   1782     1
   1779   1799     1
   1779   1789     1
   1779   1781     1
   1779   1782     1
   1780   1799     1
   1781   1798     1
   1781   1790     1
   1781   1791     1
   1782   1798     1
   1782   1790     1
   1782   1791     1
   1783   1799     1
   1784   3658     1
   1784   1796     1
   1784   1797     1
   1785   3658     1
   1785   1796     1
   1785   1797     1
   1786   1799     1
   1787   3628     1
   1787   1793     1
   1787   1794     1
   1788   3628     1
   1788   1793     1
   1788   1794     1
   1792   3620     1
   1792   3621     1
   1793   3619     1
   1794   3619     1
   1795   3650     1
   1795   3651     1
   1796   3649     1
   1797   3649     1
   1800   1814     1
   1800   1815     1
   1800   1817     1
   1800   1818     1
   1800   1811     1
   1800   1812     1
   1801   1805     1
   1801   1806     1
   1801   1808     1
   1801   1809     1
   1801   1826     1
   1801   1827     1
   1802   1804     1
   1802   1807     1
   1802   1829     1
   1802   1825     1
   1802   1814     1
   1802   1815     1
   1803   1804     1
   1803   1807     1
   1803   1829     1
   1803   1825     1
   1803   1814     1
   1803   1815     1
   1804   1808     1
   1804   1809     1
   1804   1823     1
   1804   1824     1
   1805   1807     1
   1805   1829     1
   1805   1822     1
   1805   1817     1
   1805   1818     1
   1806   1807     1
   1806   1829     1
   1806   1822     1
   1806   1817     1
   1806   1818     1
   1807   1820     1
   1807   1821     1
   1808   1829     1
   1808   1819     1
   1808   1811     1
   1808   1812     1
   1809   1829     1
   1809   1819     1
   1809   1811     1
   1809   1812     1
   1810   1829     1
   1811   1828     1
   1811   1820     1
   1811   1821     1
   1812   1828     1
   1812   1820     1
   1812   1821     1
   1813   1829     1
   1814   3718     1
   1814   1826     1
   1814   1827     1
   1815   3718     1
   1815   1826     1
   1815   1827     1
   1816   1829     1
   1817   3688     1
   1817   1823     1
   1817   1824     1
   1818   3688     1
   1818   1823     1
   1818   1824     1
   1822   3680     1
   1822   3681     1
   1823   3679     1
   1824   3679     1
   1825   3710     1
   1825   3711     1
   1826   3709     1
   1827   3709     1
   1830   1844     1
   1830   1845     1
   1830   1847     1
   1830   1848     1
   1830   1841     1
   1830   1842     1
   1831   1835     1
   1831   1836     1
   1831   1838     1
   1831   1839     1
   1831   1856     1
   1831   1857     1
   1832   1834     1
   1832   1837     1
   1832   1859     1
   1832   1855     1
   1832   1844     1
   1832   1845     1
   1833   1834     1
   1833   1837     1
   1833   1859     1
   1833   1855     1
   1833   1844     1
   1833   1845     1
   1834   1838     1
   1834   1839     1
   1834   1853     1
   1834   1854     1
   1835   1837     1
   1835   1859     1
   1835   1852     1
   1835   1847     1
   1835   1848     1
   1836   1837     1
   1836   1859     1
   1836   1852     1
   1836   1847     1
   1836   1848     1
   1837   1850     1
   1837   1851     1
   1838   1859     1
   1838   1849     1
   1838   1841     1
   1838   1842     1
   1839   1859     1
   1839   1849     1
   1839   1841     1
   1839   1842     1
   1840   1859     1
   1841   1858     1
   1841   1850     1
   1841   1851     1
   1842   1858     1
   1842   1850     1
   1842   1851     1
   1843   1859     1
   1844   3778     1
   1844   1856     1
   1844   1857     1
   1845   3778     1
   1845   1856     1
   1845   1857     1
   1846   1859     1
   1847   3748     1
   1847   1853     1
   1847   1854     1
   1848   3748     1
   1848   1853     1
   1848   1854     1
   1852   3740     1
   1852   3741     1
   1853   3739     1
   1854   3739     1
   1855   3770     1
   1855   3771     1
   1856   3769     1
   1857   3769     1
   1860   1874     1
   1860   1875     1
   1860   1877     1
   1860   1878     1
   1860   1871     1
   1860   1872     1
   1861   1865     1
   1861   1866     1
   1861   1868     1
   1861   1869     1
   1861   1886     1
   1861   1887     1
   1862   1864     1
   1862   1867     1
   1862   1889     1
   1862   1885     1
   1862   1874     1
   1862   1875     1
   1863   1864     1
   1863   1867     1
   1863   1889     1
   1863   1885     1
   1863   1874     1
   1863   1875     1
   1864   1868     1
   1864   1869     1
   1864   1883     1
   1864   1884     1
   1865   1867     1
   1865   1889     1
   1865   1882     1
   1865   1877     1
   1865   1878     1
   1866   1867     1
   1866   1889     1
   1866   1882     1
   1866   1877     1
   1866   1878     1
   1867   1880     1
   1867   1881     1
   1868   1889     1
   1868   1879     1
   1868   1871     1
   1868   1872     1
   1869   1889     1
   1869   1879     1
   1869   1871     1
   1869   1872     1
   1870   1889     1
   1871   1888     1
   1871   1880     1
   1871   1881     1
   1872   1888     1
   1872   1880     1
   1872   1881     1
   1873   1889     1
   1874   3806     1
   1874   1886     1
   1874   1887     1
   1875   3806     1
   1875   1886     1
   1875   1887     1
   1876   1889     1
   1877   3792     1
   1877   1883     1
   1877   1884     1
   1878   3792     1
   1878   1883     1
   1878   1884     1
   1882   3787     1
   1882   3788     1
   1883   3786     1
   1884   3786     1
   1885   3801     1
   1885   3802     1
   1886   3800     1
   1887   3800     1
   1890   1904     1
   1890   1905     1
   1890   1907     1
   1890   1908     1
   1890   1901     1
   1890   1902     1
   1891   1895     1
   1891   1896     1
   1891   1898     1
   1891   1899     1
   1891   1916     1
   1891   1917     1
   1892   1894     1
   1892   1897     1
   1892   1919     1
   1892   1915     1
   1892   1904     1
   1892   1905     1
   1893   1894     1
   1893   1897     1
   1893   1919     1
   1893   1915     1
   1893   1904     1
   1893   1905     1
   1894   1898     1
   1894   1899     1
   1894   1913     1
   1894   1914     1
   1895   1897     1
   1895   1919     1
   1895   1912     1
   1895   1907     1
   1895   1908     1
   1896   1897     1
   1896   1919     1
   1896   1912     1
   1896   1907     1
   1896   1908     1
   1897   1910     1
   1897   1911     1
   1898   1919     1
   1898   1909     1
   1898   1901     1
   1898   1902     1
   1899   1919     1
   1899   1909     1
   1899   1901     1
   1899   1902     1
   1900   1919     1
   1901   1918     1
   1901   1910     1
   1901   1911     1
   1902   1918     1
   1902   1910     1
   1902   1911     1
   1903   1919     1
   1904   3834     1
   1904   1916     1
   1904   1917     1
   1905   3834     1
   1905   1916     1
   1905   1917     1
   1906   1919     1
   1907   3820     1
   1907   1913     1
   1907   1914     1
   1908   3820     1
   1908   1913     1
   1908   1914     1
   1912   3815     1
   1912   3816     1
   1913   3814     1
   1914   3814     1
   1915   3829     1
   1915   3830     1
   1916   3828     1
   1917   3828     1
   1920   1934     1
   1920   1935     1
   1920   1937     1
   1920   1938     1
   1920   1931     1
   1920   1932     1
   1921   1925     1
   1921   1926     1
   1921   1928     1
   1921   1929     1
   1921   1946     1
   1921   1947     1
   1922   1924     1
   1922   1927     1
   1922   1949     1
   1922   1945     1
   1922   1934     1
   1922   1935     1
   1923   1924     1
   1923   1927     1
   1923   1949     1
   1923   1945     1
   1923   1934     1
   1923   1935     1
   1924   1928     1
   1924   1929     1
   1924   1943     1
   1924   1944     1
   1925   1927     1
   1925   1949     1
   1925   1942     1
   1925   1937     1
   1925   1938     1
   1926   1927     1
   1926   1949     1
   1926   1942     1
   1926   1937     1
   1926   1938     1
   1927   1940     1
   1927   1941     1
   1928   1949     1
   1928   1939     1
   1928   1931     1
   1928   1932     1
   1929   1949     1
   1929   1939     1
   1929   1931     1
   1929   1932     1
   1930   1949     1
   1931   1948     1
   1931   1940     1
   1931   1941     1
   1932   1948     1
   1932   1940     1
   1932   1941     1
   1933   1949     1
   1934   3862     1
   1934   1946     1
   1934   1947     1
   1935   3862     1
   1935   1946     1
   1935   1947     1
   1936   1949     1
   1937   3848     1
   1937   1943     1
   1937   1944     1
   1938   3848     1
   1938   1943     1
   1938   1944     1
   1942   3843     1
   1942   3844     1
   1943   3842     1
   1944   3842     1
   1945   3857     1
   1945   3858     1
   1946   3856     1
   1947   3856     1
   1950   1964     1
   1950   1965     1
   1950   1967     1
   1950   1968     1
   1950   1961     1
   1950   1962     1
   1951   1955     1
   1951   1956     1
   1951   1958     1
   1951   1959     1
   1951   1976     1
   1951   1977     1
   1952   1954     1
   1952   1957     1
   1952   1979     1
   1952   1975     1
   1952   1964     1
   1952   1965     1
   1953   1954     1
   1953   1957     1
   1953   1979     1
   1953   1975     1
   1953   1964     1
   1953   1965     1
   1954   1958     1
   1954   1959     1
   1954   1973     1
   1954   1974     1
   1955   1957     1
   1955   1979     1
   1955   1972     1
   1955   1967     1
   1955   1968     1
   1956   1957     1
   1956   1979     1
   1956   1972     1
   1956   1967     1
   1956   1968     1
   1957   1970     1
   1957   1971     1
   1958   1979     1
   1958   1969     1
   1958   1961     1
   1958   1962     1
   1959   1979     1
   1959   1969     1
   1959   1961     1
   1959   1962     1
   1960   1979     1
   1961   1978     1
   1961   1970     1
   1961   1971     1
   1962   1978     1
   1962   1970     1
   1962   1971     1
   1963   1979     1
   1964   3890     1
   1964   1976     1
   1964   1977     1
   1965   3890     1
   1965   1976     1
   1965   1977     1
   1966   1979     1
   1967   3876     1
   1967   1973     1
   1967   1974     1
   1968   3876     1
   1968   1973     1
   1968   1974     1
   1972   3871     1
   1972   3872     1
   1973   3870     1
   1974   3870     1
   1975   3885     1
   1975   3886     1
   1976   3884     1
   1977   3884     1
   1980   1994     1
   1980   1995     1
   1980   1997     1
   1980   1998     1
   1980   1991     1
   1980   1992     1
   1981   1985     1
   1981   1986     1
   1981   1988     1
   1981   1989     1
   1981   2006     1
   1981   2007     1
   1982   1984     1
   1982   1987     1
   1982   2009     1
   1982   2005     1
   1982   1994     1
   1982   1995     1
   1983   1984     1
   1983   1987     1
   1983   2009     1
   1983   2005     1
   1983   1994     1
   1983   1995     1
   1984   1988     1
   1984   1989     1
   1984   2003     1
   1984   2004     1
   1985   1987     1
   1985   2009     1
   1985   2002     1
   1985   1997     1
   1985   1998     1
   1986   1987     1
   1986   2009     1
   1986   2002     1
   1986   1997     1
   1986   1998     1
   1987   2000     1
   1987   2001     1
   1988   2009     1
   1988   1999     1
   1988   1991     1
   1988   1992     1
   1989   2009     1
   1989   1999     1
   1989   1991     1
   1989   1992     1
   1990   2009     1
   1991   2008     1
   1991   2000     1
   1991   2001     1
   1992   2008     1
   1992   2000     1
   1992   2001     1
   1993   2009     1
   1994   3918     1
   1994   2006     1
   1994   2007     1
   1995   3918     1
   1995   2006     1
   1995   2007     1
   1996   2009     1
   1997   3904     1
   1997   2003     1
   1997   2004     1
   1998   3904     1
   1998   2003     1
   1998   2004     1
   2002   3899     1
   2002   3900     1
   2003   3898     1
   2004   3898     1
   2005   3913     1
   2005   3914     1
   2006   3912     1
   2007   3912     1
   2010   2024     1
   2010   2025     1
   2010   2027     1
   2010   2028     1
   2010   2021     1
   2010   2022     1
   2011   2015     1
   2011   2016     1
   2011   2018     1
   2011   2019     1
   2011   2036     1
   2011   2037     1
   2012   2014     1
   2012   2017     1
   2012   2039     1
   2012   2035     1
   2012   2024     1
   2012   2025     1
   2013   2014     1
   2013   2017     1
   2013   2039     1
   2013   2035     1
   2013   2024     1
   2013   2025     1
   2014   2018     1
   2014   2019     1
   2014   2033     1
   2014   2034     1
   2015   2017     1
   2015   2039     1
   2015   2032     1
   2015   2027     1
   2015   2028     1
   2016   2017     1
   2016   2039     1
   2016   2032     1
   2016   2027     1
   2016   2028     1
   2017   2030     1
   2017   2031     1
   2018   2039     1
   2018   2029     1
   2018   2021     1
   2018   2022     1
   2019   2039     1
   2019   2029     1
   2019   2021     1
   2019   2022     1
   2020   2039     1
   2021   2038     1
   2021   2030     1
   2021   2031     1
   2022   2038     1
   2022   2030     1
   2022   2031     1
   2023   2039     1
   2024   3946     1
   2024   2036     1
   2024   2037     1
   2025   3946     1
   2025   2036     1
   2025   2037     1
   2026   2039     1
   2027   3932     1
   2027   2033     1
   2027   2034     1
   2028   3932     1
   2028   2033     1
   2028   2034     1
   2032   3927     1
   2032   3928     1
   2033   3926     1
   2034   3926     1
   2035   3941     1
   2035   3942     1
   2036   3940     1
   2037   3940     1
   2040   2054     1
   2040   2055     1
   2040   2057     1
   2040   2058     1
   2040   2051     1
   2040   2052     1
   2041   2045     1
   2041   2046     1
   2041   2048     1
   2041   2049     1
   2041   2066     1
   2041   2067     1
   2042   2044     1
   2042   2047     1
   2042   2069     1
   2042   2065     1
   2042   2054     1
   2042   2055     1
   2043   2044     1
   2043   2047     1
   2043   2069     1
   2043   2065     1
   2043   2054     1
   2043   2055     1
   2044   2048     1
   2044   2049     1
   2044   2063     1
   2044   2064     1
   2045   2047     1
   2045   2069     1
   2045   2062     1
   2045   2057     1
   2045   2058     1
   2046   2047     1
   2046   2069     1
   2046   2062     1
   2046   2057     1
   2046   2058     1
   2047   2060     1
   2047   2061     1
   2048   2069     1
   2048   2059     1
   2048   2051     1
   2048   2052     1
   2049   2069     1
   2049   2059     1
   2049   2051     1
   2049   2052     1
   2050   2069     1
   2051   2068     1
   2051   2060     1
   2051   2061     1
   2052   2068     1
   2052   2060     1
   2052   2061     1
   2053   2069     1
   2054   3974     1
   2054   2066     1
   2054   2067     1
   2055   3974     1
   2055   2066     1
   2055   2067     1
   2056   2069     1
   2057   3960     1
   2057   2063     1
   2057   2064     1
   2058   3960     1
   2058   2063     1
   2058   2064     1
   2062   3955     1
   2062   3956     1
   2063   3954     1
   2064   3954     1
   2065   3969     1
   2065   3970     1
   2066   3968     1
   2067   3968     1
   2070   2084     1
   2070   2085     1
   2070   2087     1
   2070   2088     1
   2070   2081     1
   2070   2082     1
   2071   2075     1
   2071   2076     1
   2071   2078     1
   2071   2079     1
   2071   2096     1
   2071   2097     1
   2072   2074     1
   2072   2077     1
   2072   2099     1
   2072   2095     1
   2072   2084     1
   2072   2085     1
   2073   2074     1
   2073   2077     1
   2073   2099     1
   2073   2095     1
   2073   2084     1
   2073   2085     1
   2074   2078     1
   2074   2079     1
   2074   2093     1
   2074   2094     1
   2075   2077     1
   2075   2099     1
   2075   2092     1
   2075   2087     1
   2075   2088     1
   2076   2077     1
   2076   2099     1
   2076   2092     1
   2076   2087     1
   2076   2088     1
   2077   2090     1
   2077   2091     1
   2078   2099     1
   2078   2089     1
   2078   2081     1
   2078   2082     1
   2079   2099     1
   2079   2089     1
   2079   2081     1
   2079   2082     1
   2080   2099     1
   2081   2098     1
   2081   2090     1
   2081   2091     1
   2082   2098     1
   2082   2090     1
   2082   2091     1
   2083   2099     1
   2084   4002     1
   2084   2096     1
   2084   2097     1
   2085   4002     1
   2085   2096     1
   2085   2097     1
   2086   2099     1
   2087   3988     1
   2087   2093     1
   2087   2094     1
   2088   3988     1
   2088   2093     1
   2088   2094     1
   2092   3983     1
   2092   3984     1
   2093   3982     1
   2094   3982     1
   2095   3997     1
   2095   3998     1
   2096   3996     1
   2097   3996     1
   2100   2114     1
   2100   2115     1
   2100   2117     1
   2100   2118     1
   2100   2111     1
   2100   2112     1
   2101   2105     1
   2101   2106     1
   2101   2108     1
   2101   2109     1
   2101   2126     1
   2101   2127     1
   2102   2104     1
   2102   2107     1
   2102   2129     1
   2102   2125     1
   2102   2114     1
   2102   2115     1
   2103   2104     1
   2103   2107     1
   2103   2129     1
   2103   2125     1
   2103   2114     1
   2103   2115     1
   2104   2108     1
   2104   2109     1
   2104   2123     1
   2104   2124     1
   2105   2107     1
   2105   2129     1
   2105   2122     1
   2105   2117     1
   2105   2118     1
   2106   2107     1
   2106   2129     1
   2106   2122     1
   2106   2117     1
   2106   2118     1
   2107   2120     1
   2107   2121     1
   2108   2129     1
   2108   2119     1
   2108   2111     1
   2108   2112     1
   2109   2129     1
   2109   2119     1
   2109   2111     1
   2109   2112     1
   2110   2129     1
   2111   2128     1
   2111   2120     1
   2111   2121     1
   2112   2128     1
   2112   2120     1
   2112   2121     1
   2113   2129     1
   2114   4030     1
   2114   2126     1
   2114   2127     1
   2115   4030     1
   2115   2126     1
   2115   2127     1
   2116   2129     1
   2117   4016     1
   2117   2123     1
   2117   2124     1
   2118   4016     1
   2118   2123     1
   2118   2124     1
   2122   4011     1
   2122   4012     1
   2123   4010     1
   2124   4010     1
   2125   4025     1
   2125   4026     1
   2126   4024     1
   2127   4024     1
   2130   2144     1
   2130   2145     1
   2130   2147     1
   2130   2148     1
   2130   2141     1
   2130   2142     1
   2131   2135     1
   2131   2136     1
   2131   2138     1
   2131   2139     1
   2131   2156     1
   2131   2157     1
   2132   2134     1
   2132   2137     1
   2132   2159     1
   2132   2155     1
   2132   2144     1
   2132   2145     1
   2133   2134     1
   2133   2137     1
   2133   2159     1
   2133   2155     1
   2133   2144     1
   2133   2145     1
   2134   2138     1
   2134   2139     1
   2134   2153     1
   2134   2154     1
   2135   2137     1
   2135   2159     1
   2135   2152     1
   2135   2147     1
   2135   2148     1
   2136   2137     1
   2136   2159     1
   2136   2152     1
   2136   2147     1
   2136   2148     1
   2137   2150     1
   2137   2151     1
   2138   2159     1
   2138   2149     1
   2138   2141     1
   2138   2142     1
   2139   2159     1
   2139   2149     1
   2139   2141     1
   2139   2142     1
   2140   2159     1
   2141   2158     1
   2141   2150     1
   2141   2151     1
   2142   2158     1
   2142   2150     1
   2142   2151     1
   2143   2159     1
   2144   4058     1
   2144   2156     1
   2144   2157     1
   2145   4058     1
   2145   2156     1
   2145   2157     1
   2146   2159     1
   2147   4044     1
   2147   2153     1
   2147   2154     1
   2148   4044     1
   2148   2153     1
   2148   2154     1
   2152   4039     1
   2152   4040     1
   2153   4038     1
   2154   4038     1
   2155   4053     1
   2155   4054     1
   2156   4052     1
   2157   4052     1
   2160   2174     1
   2160   2175     1
   2160   2177     1
   2160   2178     1
   2160   2171     1
   2160   2172     1
   2161   2165     1
   2161   2166     1
   2161   2168     1
   2161   2169     1
   2161   2186     1
   2161   2187     1
   2162   2164     1
   2162   2167     1
   2162   2189     1
   2162   2185     1
   2162   2174     1
   2162   2175     1
   2163   2164     1
   2163   2167     1
   2163   2189     1
   2163   2185     1
   2163   2174     1
   2163   2175     1
   2164   2168     1
   2164   2169     1
   2164   2183     1
   2164   2184     1
   2165   2167     1
   2165   2189     1
   2165   2182     1
   2165   2177     1
   2165   2178     1
   2166   2167     1
   2166   2189     1
   2166   2182     1
   2166   2177     1
   2166   2178     1
   2167   2180     1
   2167   2181     1
   2168   2189     1
   2168   2179     1
   2168   2171     1
   2168   2172     1
   2169   2189     1
   2169   2179     1
   2169   2171     1
   2169   2172     1
   2170   2189     1
   2171   2188     1
   2171   2180     1
   2171   2181     1
   2172   2188     1
   2172   2180     1
   2172   2181     1
   2173   2189     1
   2174   4086     1
   2174   2186     1
   2174   2187     1
   2175   4086     1
   2175   2186     1
   2175   2187     1
   2176   2189     1
   2177   4072     1
   2177   2183     1
   2177   2184     1
   2178   4072     1
   2178   2183     1
   2178   2184     1
   2182   4067     1
   2182   4068     1
   2183   4066     1
   2184   4066     1
   2185   4081     1
   2185   4082     1
   2186   4080     1
   2187   4080     1
   2190   2204     1
   2190   2205     1
   2190   2207     1
   2190   2208     1
   2190   2201     1
   2190   2202     1
   2191   2195     1
   2191   2196     1
   2191   2198     1
   2191   2199     1
   2191   2216     1
   2191   2217     1
   2192   2194     1
   2192   2197     1
   2192   2219     1
   2192   2215     1
   2192   2204     1
   2192   2205     1
   2193   2194     1
   2193   2197     1
   2193   2219     1
   2193   2215     1
   2193   2204     1
   2193   2205     1
   2194   2198     1
   2194   2199     1
   2194   2213     1
   2194   2214     1
   2195   2197     1
   2195   2219     1
   2195   2212     1
   2195   2207     1
   2195   2208     1
   2196   2197     1
   2196   2219     1
   2196   2212     1
   2196   2207     1
   2196   2208     1
   2197   2210     1
   2197   2211     1
   2198   2219     1
   2198   2209     1
   2198   2201     1
   2198   2202     1
   2199   2219     1
   2199   2209     1
   2199   2201     1
   2199   2202     1
   2200   2219     1
   2201   2218     1
   2201   2210     1
   2201   2211     1
   2202   2218     1
   2202   2210     1
   2202   2211     1
   2203   2219     1
   2204   4114     1
   2204   2216     1
   2204   2217     1
   2205   4114     1
   2205   2216     1
   2205   2217     1
   2206   2219     1
   2207   4100     1
   2207   2213     1
   2207   2214     1
   2208   4100     1
   2208   2213     1
   2208   2214     1
   2212   4095     1
   2212   4096     1
   2213   4094     1
   2214   4094     1
   2215   4109     1
   2215   4110     1
   2216   4108     1
   2217   4108     1
   2220   2234     1
   2220   2235     1
   2220   2237     1
   2220   2238     1
   2220   2231     1
   2220   2232     1
   2221   2225     1
   2221   2226     1
   2221   2228     1
   2221   2229     1
   2221   2246     1
   2221   2247     1
   2222   2224     1
   2222   2227     1
   2222   2249     1
   2222   2245     1
   2222   2234     1
   2222   2235     1
   2223   2224     1
   2223   2227     1
   2223   2249     1
   2223   2245     1
   2223   2234     1
   2223   2235     1
   2224   2228     1
   2224   2229     1
   2224   2243     1
   2224   2244     1
   2225   2227     1
   2225   2249     1
   2225   2242     1
   2225   2237     1
   2225   2238     1
   2226   2227     1
   2226   2249     1
   2226   2242     1
   2226   2237     1
   2226   2238     1
   2227   2240     1
   2227   2241     1
   2228   2249     1
   2228   2239     1
   2228   2231     1
   2228   2232     1
   2229   2249     1
   2229   2239     1
   2229   2231     1
   2229   2232     1
   2230   2249     1
   2231   2248     1
   2231   2240     1
   2231   2241     1
   2232   2248     1
   2232   2240     1
   2232   2241     1
   2233   2249     1
   2234   4142     1
   2234   2246     1
   2234   2247     1
   2235   4142     1
   2235   2246     1
   2235   2247     1
   2236   2249     1
   2237   4128     1
   2237   2243     1
   2237   2244     1
   2238   4128     1
   2238   2243     1
   2238   2244     1
   2242   4123     1
   2242   4124     1
   2243   4122     1
   2244   4122     1
   2245   4137     1
   2245   4138     1
   2246   4136     1
   2247   4136     1
   2250   2264     1
   2250   2265     1
   2250   2267     1
   2250   2268     1
   2250   2261     1
   2250   2262     1
   2251   2255     1
   2251   2256     1
   2251   2258     1
   2251   2259     1
   2251   2276     1
   2251   2277     1
   2252   2254     1
   2252   2257     1
   2252   2279     1
   2252   2275     1
   2252   2264     1
   2252   2265     1
   2253   2254     1
   2253   2257     1
   2253   2279     1
   2253   2275     1
   2253   2264     1
   2253   2265     1
   2254   2258     1
   2254   2259     1
   2254   2273     1
   2254   2274     1
   2255   2257     1
   2255   2279     1
   2255   2272     1
   2255   2267     1
   2255   2268     1
   2256   2257     1
   2256   2279     1
   2256   2272     1
   2256   2267     1
   2256   2268     1
   2257   2270     1
   2257   2271     1
   2258   2279     1
   2258   2269     1
   2258   2261     1
   2258   2262     1
   2259   2279     1
   2259   2269     1
   2259   2261     1
   2259   2262     1
   2260   2279     1
   2261   2278     1
   2261   2270     1
   2261   2271     1
   2262   2278     1
   2262   2270     1
   2262   2271     1
   2263   2279     1
   2264   4170     1
   2264   2276     1
   2264   2277     1
   2265   4170     1
   2265   2276     1
   2265   2277     1
   2266   2279     1
   2267   4156     1
   2267   2273     1
   2267   2274     1
   2268   4156     1
   2268   2273     1
   2268   2274     1
   2272   4151     1
   2272   4152     1
   2273   4150     1
   2274   4150     1
   2275   4165     1
   2275   4166     1
   2276   4164     1
   2277   4164     1
   2280   2294     1
   2280   2295     1
   2280   2297     1
   2280   2298     1
   2280   2291     1
   2280   2292     1
   2281   2285     1
   2281   2286     1
   2281   2288     1
   2281   2289     1
   2281   2306     1
   2281   2307     1
   2282   2284     1
   2282   2287     1
   2282   2309     1
   2282   2305     1
   2282   2294     1
   2282   2295     1
   2283   2284     1
   2283   2287     1
   2283   2309     1
   2283   2305     1
   2283   2294     1
   2283   2295     1
   2284   2288     1
   2284   2289     1
   2284   2303     1
   2284   2304     1
   2285   2287     1
   2285   2309     1
   2285   2302     1
   2285   2297     1
   2285   2298     1
   2286   2287     1
   2286   2309     1
   2286   2302     1
   2286   2297     1
   2286   2298     1
   2287   2300     1
   2287   2301     1
   2288   2309     1
   2288   2299     1
   2288   2291     1
   2288   2292     1
   2289   2309     1
   2289   2299     1
   2289   2291     1
   2289   2292     1
   2290   2309     1
   2291   2308     1
   2291   2300     1
   2291   2301     1
   2292   2308     1
   2292   2300     1
   2292   2301     1
   2293   2309     1
   2294   4198     1
   2294   2306     1
   2294   2307     1
   2295   4198     1
   2295   2306     1
   2295   2307     1
   2296   2309     1
   2297   4184     1
   2297   2303     1
   2297   2304     1
   2298   4184     1
   2298   2303     1
   2298   2304     1
   2302   4179     1
   2302   4180     1
   2303   4178     1
   2304   4178     1
   2305   4193     1
   2305   4194     1
   2306   4192     1
   2307   4192     1
   2310   2324     1
   2310   2325     1
   2310   2327     1
   2310   2328     1
   2310   2321     1
   2310   2322     1
   2311   2315     1
   2311   2316     1
   2311   2318     1
   2311   2319     1
   2311   2336     1
   2311   2337     1
   2312   2314     1
   2312   2317     1
   2312   2339     1
   2312   2335     1
   2312   2324     1
   2312   2325     1
   2313   2314     1
   2313   2317     1
   2313   2339     1
   2313   2335     1
   2313   2324     1
   2313   2325     1
   2314   2318     1
   2314   2319     1
   2314   2333     1
   2314   2334     1
   2315   2317     1
   2315   2339     1
   2315   2332     1
   2315   2327     1
   2315   2328     1
   2316   2317     1
   2316   2339     1
   2316   2332     1
   2316   2327     1
   2316   2328     1
   2317   2330     1
   2317   2331     1
   2318   2339     1
   2318   2329     1
   2318   2321     1
   2318   2322     1
   2319   2339     1
   2319   2329     1
   2319   2321     1
   2319   2322     1
   2320   2339     1
   2321   2338     1
   2321   2330     1
   2321   2331     1
   2322   2338     1
   2322   2330     1
   2322   2331     1
   2323   2339     1
   2324   4226     1
   2324   2336     1
   2324   2337     1
   2325   4226     1
   2325   2336     1
   2325   2337     1
   2326   2339     1
   2327   4212     1
   2327   2333     1
   2327   2334     1
   2328   4212     1
   2328   2333     1
   2328   2334     1
   2332   4207     1
   2332   4208     1
   2333   4206     1
   2334   4206     1
   2335   4221     1
   2335   4222     1
   2336   4220     1
   2337   4220     1
   2340   2354     1
   2340   2355     1
   2340   2357     1
   2340   2358     1
   2340   2351     1
   2340   2352     1
   2341   2345     1
   2341   2346     1
   2341   2348     1
   2341   2349     1
   2341   2366     1
   2341   2367     1
   2342   2344     1
   2342   2347     1
   2342   2369     1
   2342   2365     1
   2342   2354     1
   2342   2355     1
   2343   2344     1
   2343   2347     1
   2343   2369     1
   2343   2365     1
   2343   2354     1
   2343   2355     1
   2344   2348     1
   2344   2349     1
   2344   2363     1
   2344   2364     1
   2345   2347     1
   2345   2369     1
   2345   2362     1
   2345   2357     1
   2345   2358     1
   2346   2347     1
   2346   2369     1
   2346   2362     1
   2346   2357     1
   2346   2358     1
   2347   2360     1
   2347   2361     1
   2348   2369     1
   2348   2359     1
   2348   2351     1
   2348   2352     1
   2349   2369     1
   2349   2359     1
   2349   2351     1
   2349   2352     1
   2350   2369     1
   2351   2368     1
   2351   2360     1
   2351   2361     1
   2352   2368     1
   2352   2360     1
   2352   2361     1
   2353   2369     1
   2354   4254     1
   2354   2366     1
   2354   2367     1
   2355   4254     1
   2355   2366     1
   2355   2367     1
   2356   2369     1
   2357   4240     1
   2357   2363     1
   2357   2364     1
   2358   4240     1
   2358   2363     1
   2358   2364     1
   2362   4235     1
   2362   4236     1
   2363   4234     1
   2364   4234     1
   2365   4249     1
   2365   4250     1
   2366   4248     1
   2367   4248     1
   2370   2384     1
   2370   2385     1
   2370   2387     1
   2370   2388     1
   2370   2381     1
   2370   2382     1
   2371   2375     1
   2371   2376     1
   2371   2378     1
   2371   2379     1
   2371   2396     1
   2371   2397     1
   2372   2374     1
   2372   2377     1
   2372   2399     1
   2372   2395     1
   2372   2384     1
   2372   2385     1
   2373   2374     1
   2373   2377     1
   2373   2399     1
   2373   2395     1
   2373   2384     1
   2373   2385     1
   2374   2378     1
   2374   2379     1
   2374   2393     1
   2374   2394     1
   2375   2377     1
   2375   2399     1
   2375   2392     1
   2375   2387     1
   2375   2388     1
   2376   2377     1
   2376   2399     1
   2376   2392     1
   2376   2387     1
   2376   2388     1
   2377   2390     1
   2377   2391     1
   2378   2399     1
   2378   2389     1
   2378   2381     1
   2378   2382     1
   2379   2399     1
   2379   2389     1
   2379   2381     1
   2379   2382     1
   2380   2399     1
   2381   2398     1
   2381   2390     1
   2381   2391     1
   2382   2398     1
   2382   2390     1
   2382   2391     1
   2383   2399     1
   2384   4282     1
   2384   2396     1
   2384   2397     1
   2385   4282     1
   2385   2396     1
   2385   2397     1
   2386   2399     1
   2387   4268     1
   2387   2393     1
   2387   2394     1
   2388   4268     1
   2388   2393     1
   2388   2394     1
   2392   4263     1
   2392   4264     1
   2393   4262     1
   2394   4262     1
   2395   4277     1
   2395   4278     1
   2396   4276     1
   2397   4276     1
   2400   2414     1
   2400   2415     1
   2400   2417     1
   2400   2418     1
   2400   2411     1
   2400   2412     1
   2401   2405     1
   2401   2406     1
   2401   2408     1
   2401   2409     1
   2401   2426     1
   2401   2427     1
   2402   2404     1
   2402   2407     1
   2402   2429     1
   2402   2425     1
   2402   2414     1
   2402   2415     1
   2403   2404     1
   2403   2407     1
   2403   2429     1
   2403   2425     1
   2403   2414     1
   2403   2415     1
   2404   2408     1
   2404   2409     1
   2404   2423     1
   2404   2424     1
   2405   2407     1
   2405   2429     1
   2405   2422     1
   2405   2417     1
   2405   2418     1
   2406   2407     1
   2406   2429     1
   2406   2422     1
   2406   2417     1
   2406   2418     1
   2407   2420     1
   2407   2421     1
   2408   2429     1
   2408   2419     1
   2408   2411     1
   2408   2412     1
   2409   2429     1
   2409   2419     1
   2409   2411     1
   2409   2412     1
   2410   2429     1
   2411   2428     1
   2411   2420     1
   2411   2421     1
   2412   2428     1
   2412   2420     1
   2412   2421     1
   2413   2429     1
   2414   4310     1
   2414   2426     1
   2414   2427     1
   2415   4310     1
   2415   2426     1
   2415   2427     1
   2416   2429     1
   2417   4296     1
   2417   2423     1
   2417   2424     1
   2418   4296     1
   2418   2423     1
   2418   2424     1
   2422   4291     1
   2422   4292     1
   2423   4290     1
   2424   4290     1
   2425   4305     1
   2425   4306     1
   2426   4304     1
   2427   4304     1
   2430   2444     1
   2430   2445     1
   2430   2447     1
   2430   2448     1
   2430   2441     1
   2430   2442     1
   2431   2435     1
   2431   2436     1
   2431   2438     1
   2431   2439     1
   2431   2456     1
   2431   2457     1
   2432   2434     1
   2432   2437     1
   2432   2459     1
   2432   2455     1
   2432   2444     1
   2432   2445     1
   2433   2434     1
   2433   2437     1
   2433   2459     1
   2433   2455     1
   2433   2444     1
   2433   2445     1
   2434   2438     1
   2434   2439     1
   2434   2453     1
   2434   2454     1
   2435   2437     1
   2435   2459     1
   2435   2452     1
   2435   2447     1
   2435   2448     1
   2436   2437     1
   2436   2459     1
   2436   2452     1
   2436   2447     1
   2436   2448     1
   2437   2450     1
   2437   2451     1
   2438   2459     1
   2438   2449     1
   2438   2441     1
   2438   2442     1
   2439   2459     1
   2439   2449     1
   2439   2441     1
   2439   2442     1
   2440   2459     1
   2441   2458     1
   2441   2450     1
   2441   2451     1
   2442   2458     1
   2442   2450     1
   2442   2451     1
   2443   2459     1
   2444   4338     1
   2444   2456     1
   2444   2457     1
   2445   4338     1
   2445   2456     1
   2445   2457     1
   2446   2459     1
   2447   4324     1
   2447   2453     1
   2447   2454     1
   2448   4324     1
   2448   2453     1
   2448   2454     1
   2452   4319     1
   2452   4320     1
   2453   4318     1
   2454   4318     1
   2455   4333     1
   2455   4334     1
   2456   4332     1
   2457   4332     1
   2460   2474     1
   2460   2475     1
   2460   2477     1
   2460   2478     1
   2460   2471     1
   2460   2472     1
   2461   2465     1
   2461   2466     1
   2461   2468     1
   2461   2469     1
   2461   2486     1
   2461   2487     1
   2462   2464     1
   2462   2467     1
   2462   2489     1
   2462   2485     1
   2462   2474     1
   2462   2475     1
   2463   2464     1
   2463   2467     1
   2463   2489     1
   2463   2485     1
   2463   2474     1
   2463   2475     1
   2464   2468     1
   2464   2469     1
   2464   2483     1
   2464   2484     1
   2465   2467     1
   2465   2489     1
   2465   2482     1
   2465   2477     1
   2465   2478     1
   2466   2467     1
   2466   2489     1
   2466   2482     1
   2466   2477     1
   2466   2478     1
   2467   2480     1
   2467   2481     1
   2468   2489     1
   2468   2479     1
   2468   2471     1
   2468   2472     1
   2469   2489     1
   2469   2479     1
   2469   2471     1
   2469   2472     1
   2470   2489     1
   2471   2488     1
   2471   2480     1
   2471   2481     1
   2472   2488     1
   2472   2480     1
   2472   2481     1
   2473   2489     1
   2474   4366     1
   2474   2486     1
   2474   2487     1
   2475   4366     1
   2475   2486     1
   2475   2487     1
   2476   2489     1
   2477   4352     1
   2477   2483     1
   2477   2484     1
   2478   4352     1
   2478   2483     1
   2478   2484     1
   2482   4347     1
   2482   4348     1
   2483   4346     1
   2484   4346     1
   2485   4361     1
   2485   4362     1
   2486   4360     1
   2487   4360     1
   2490   2504     1
   2490   2505     1
   2490   2507     1
   2490   2508     1
   2490   2501     1
   2490   2502     1
   2491   2495     1
   2491   2496     1
   2491   2498     1
   2491   2499     1
   2491   2516     1
   2491   2517     1
   2492   2494     1
   2492   2497     1
   2492   2519     1
   2492   2515     1
   2492   2504     1
   2492   2505     1
   2493   2494     1
   2493   2497     1
   2493   2519     1
   2493   2515     1
   2493   2504     1
   2493   2505     1
   2494   2498     1
   2494   2499     1
   2494   2513     1
   2494   2514     1
   2495   2497     1
   2495   2519     1
   2495   2512     1
   2495   2507     1
   2495   2508     1
   2496   2497     1
   2496   2519     1
   2496   2512     1
   2496   2507     1
   2496   2508     1
   2497   2510     1
   2497   2511     1
   2498   2519     1
   2498   2509     1
   2498   2501     1
   2498   2502     1
   2499   2519     1
   2499   2509     1
   2499   2501     1
   2499   2502     1
   2500   2519     1
   2501   2518     1
   2501   2510     1
   2501   2511     1
   2502   2518     1
   2502   2510     1
   2502   2511     1
   2503   2519     1
   2504   4394     1
   2504   2516     1
   2504   2517     1
   2505   4394     1
   2505   2516     1
   2505   2517     1
   2506   2519     1
   2507   4380     1
   2507   2513     1
   2507   2514     1
   2508   4380     1
   2508   2513     1
   2508   2514     1
   2512   4375     1
   2512   4376     1
   2513   4374     1
   2514   4374     1
   2515   4389     1
   2515   4390     1
   2516   4388     1
   2517   4388     1
   2520   2534     1
   2520   2535     1
   2520   2537     1
   2520   2538     1
   2520   2531     1
   2520   2532     1
   2521   2525     1
   2521   2526     1
   2521   2528     1
   2521   2529     1
   2521   2546     1
   2521   2547     1
   2522   2524     1
   2522   2527     1
   2522   2549     1
   2522   2545     1
   2522   2534     1
   2522   2535     1
   2523   2524     1
   2523   2527     1
   2523   2549     1
   2523   2545     1
   2523   2534     1
   2523   2535     1
   2524   2528     1
   2524   2529     1
   2524   2543     1
   2524   2544     1
   2525   2527     1
   2525   2549     1
   2525   2542     1
   2525   2537     1
   2525   2538     1
   2526   2527     1
   2526   2549     1
   2526   2542     1
   2526   2537     1
   2526   2538     1
   2527   2540     1
   2527   2541     1
   2528   2549     1
   2528   2539     1
   2528   2531     1
   2528   2532     1
   2529   2549     1
   2529   2539     1
   2529   2531     1
   2529   2532     1
   2530   2549     1
   2531   2548     1
   2531   2540     1
   2531   2541     1
   2532   2548     1
   2532   2540     1
   2532   2541     1
   2533   2549     1
   2534   4422     1
   2534   2546     1
   2534   2547     1
   2535   4422     1
   2535   2546     1
   2535   2547     1
   2536   2549     1
   2537   4408     1
   2537   2543     1
   2537   2544     1
   2538   4408     1
   2538   2543     1
   2538   2544     1
   2542   4403     1
   2542   4404     1
   2543   4402     1
   2544   4402     1
   2545   4417     1
   2545   4418     1
   2546   4416     1
   2547   4416     1
   2550   2564     1
   2550   2565     1
   2550   2567     1
   2550   2568     1
   2550   2561     1
   2550   2562     1
   2551   2555     1
   2551   2556     1
   2551   2558     1
   2551   2559     1
   2551   2576     1
   2551   2577     1
   2552   2554     1
   2552   2557     1
   2552   2579     1
   2552   2575     1
   2552   2564     1
   2552   2565     1
   2553   2554     1
   2553   2557     1
   2553   2579     1
   2553   2575     1
   2553   2564     1
   2553   2565     1
   2554   2558     1
   2554   2559     1
   2554   2573     1
   2554   2574     1
   2555   2557     1
   2555   2579     1
   2555   2572     1
   2555   2567     1
   2555   2568     1
   2556   2557     1
   2556   2579     1
   2556   2572     1
   2556   2567     1
   2556   2568     1
   2557   2570     1
   2557   2571     1
   2558   2579     1
   2558   2569     1
   2558   2561     1
   2558   2562     1
   2559   2579     1
   2559   2569     1
   2559   2561     1
   2559   2562     1
   2560   2579     1
   2561   2578     1
   2561   2570     1
   2561   2571     1
   2562   2578     1
   2562   2570     1
   2562   2571     1
   2563   2579     1
   2564   4450     1
   2564   2576     1
   2564   2577     1
   2565   4450     1
   2565   2576     1
   2565   2577     1
   2566   2579     1
   2567   4436     1
   2567   2573     1
   2567   2574     1
   2568   4436     1
   2568   2573     1
   2568   2574     1
   2572   4431     1
   2572   4432     1
   2573   4430     1
   2574   4430     1
   2575   4445     1
   2575   4446     1
   2576   4444     1
   2577   4444     1
   2580   2594     1
   2580   2595     1
   2580   2597     1
   2580   2598     1
   2580   2591     1
   2580   2592     1
   2581   2585     1
   2581   2586     1
   2581   2588     1
   2581   2589     1
   2581   2606     1
   2581   2607     1
   2582   2584     1
   2582   2587     1
   2582   2609     1
   2582   2605     1
   2582   2594     1
   2582   2595     1
   2583   2584     1
   2583   2587     1
   2583   2609     1
   2583   2605     1
   2583   2594     1
   2583   2595     1
   2584   2588     1
   2584   2589     1
   2584   2603     1
   2584   2604     1
   2585   2587     1
   2585   2609     1
   2585   2602     1
   2585   2597     1
   2585   2598     1
   2586   2587     1
   2586   2609     1
   2586   2602     1
   2586   2597     1
   2586   2598     1
   2587   2600     1
   2587   2601     1
   2588   2609     1
   2588   2599     1
   2588   2591     1
   2588   2592     1
   2589   2609     1
   2589   2599     1
   2589   2591     1
   2589   2592     1
   2590   2609     1
   2591   2608     1
   2591   2600     1
   2591   2601     1
   2592   2608     1
   2592   2600     1
   2592   2601     1
   2593   2609     1
   2594   4478     1
   2594   2606     1
   2594   2607     1
   2595   4478     1
   2595   2606     1
   2595   2607     1
   2596   2609     1
   2597   4464     1
   2597   2603     1
   2597   2604     1
   2598   4464     1
   2598   2603     1
   2598   2604     1
   2602   4459     1
   2602   4460     1
   2603   4458     1
   2604   4458     1
   2605   4473     1
   2605   4474     1
   2606   4472     1
   2607   4472     1
   2610   2624     1
   2610   2625     1
   2610   2627     1
   2610   2628     1
   2610   2621     1
   2610   2622     1
   2611   2615     1
   2611   2616     1
   2611   2618     1
   2611   2619     1
   2611   2636     1
   2611   2637     1
   2612   2614     1
   2612   2617     1
   2612   2639     1
   2612   2635     1
   2612   2624     1
   2612   2625     1
   2613   2614     1
   2613   2617     1
   2613   2639     1
   2613   2635     1
   2613   2624     1
   2613   2625     1
   2614   2618     1
   2614   2619     1
   2614   2633     1
   2614   2634     1
   2615   2617     1
   2615   2639     1
   2615   2632     1
   2615   2627     1
   2615   2628     1
   2616   2617     1
   2616   2639     1
   2616   2632     1
   2616   2627     1
   2616   2628     1
   2617   2630     1
   2617   2631     1
   2618   2639     1
   2618   2629     1
   2618   2621     1
   2618   2622     1
   2619   2639     1
   2619   2629     1
   2619   2621     1
   2619   2622     1
   2620   2639     1
   2621   2638     1
   2621   2630     1
   2621   2631     1
   2622   2638     1
   2622   2630     1
   2622   2631     1
   2623   2639     1
   2624   4506     1
   2624   2636     1
   2624   2637     1
   2625   4506     1
   2625   2636     1
   2625   2637     1
   2626   2639     1
   2627   4492     1
   2627   2633     1
   2627   2634     1
   2628   4492     1
   2628   2633     1
   2628   2634     1
   2632   4487     1
   2632   4488     1
   2633   4486     1
   2634   4486     1
   2635   4501     1
   2635   4502     1
   2636   4500     1
   2637   4500     1
   2640   2654     1
   2640   2655     1
   2640   2657     1
   2640   2658     1
   2640   2651     1
   2640   2652     1
   2641   2645     1
   2641   2646     1
   2641   2648     1
   2641   2649     1
   2641   2666     1
   2641   2667     1
   2642   2644     1
   2642   2647     1
   2642   2669     1
   2642   2665     1
   2642   2654     1
   2642   2655     1
   2643   2644     1
   2643   2647     1
   2643   2669     1
   2643   2665     1
   2643   2654     1
   2643   2655     1
   2644   2648     1
   2644   2649     1
   2644   2663     1
   2644   2664     1
   2645   2647     1
   2645   2669     1
   2645   2662     1
   2645   2657     1
   2645   2658     1
   2646   2647     1
   2646   2669     1
   2646   2662     1
   2646   2657     1
   2646   2658     1
   2647   2660     1
   2647   2661     1
   2648   2669     1
   2648   2659     1
   2648   2651     1
   2648   2652     1
   2649   2669     1
   2649   2659     1
   2649   2651     1
   2649   2652     1
   2650   2669     1
   2651   2668     1
   2651   2660     1
   2651   2661     1
   2652   2668     1
   2652   2660     1
   2652   2661     1
   2653   2669     1
   2654   4534     1
   2654   2666     1
   2654   2667     1
   2655   4534     1
   2655   2666     1
   2655   2667     1
   2656   2669     1
   2657   4520     1
   2657   2663     1
   2657   2664     1
   2658   4520     1
   2658   2663     1
   2658   2664     1
   2662   4515     1
   2662   4516     1
   2663   4514     1
   2664   4514     1
   2665   4529     1
   2665   4530     1
   2666   4528     1
   2667   4528     1
   2670   2684     1
   2670   2685     1
   2670   2687     1
   2670   2688     1
   2670   2681     1
   2670   2682     1
   2671   2675     1
   2671   2676     1
   2671   2678     1
   2671   2679     1
   2671   2696     1
   2671   2697     1
   2672   2674     1
   2672   2677     1
   2672   2699     1
   2672   2695     1
   2672   2684     1
   2672   2685     1
   2673   2674     1
   2673   2677     1
   2673   2699     1
   2673   2695     1
   2673   2684     1
   2673   2685     1
   2674   2678     1
   2674   2679     1
   2674   2693     1
   2674   2694     1
   2675   2677     1
   2675   2699     1
   2675   2692     1
   2675   2687     1
   2675   2688     1
   2676   2677     1
   2676   2699     1
   2676   2692     1
   2676   2687     1
   2676   2688     1
   2677   2690     1
   2677   2691     1
   2678   2699     1
   2678   2689     1
   2678   2681     1
   2678   2682     1
   2679   2699     1
   2679   2689     1
   2679   2681     1
   2679   2682     1
   2680   2699     1
   2681   2698     1
   2681   2690     1
   2681   2691     1
   2682   2698     1
   2682   2690     1
   2682   2691     1
   2683   2699     1
   2684   4562     1
   2684   2696     1
   2684   2697     1
   2685   4562     1
   2685   2696     1
   2685   2697     1
   2686   2699     1
   2687   4548     1
   2687   2693     1
   2687   2694     1
   2688   4548     1
   2688   2693     1
   2688   2694     1
   2692   4543     1
   2692   4544     1
   2693   4542     1
   2694   4542     1
   2695   4557     1
   2695   4558     1
   2696   4556     1
   2697   4556     1
   2700   2714     1
   2700   2715     1
   2700   2717     1
   2700   2718     1
   2700   2711     1
   2700   2712     1
   2701   2705     1
   2701   2706     1
   2701   2708     1
   2701   2709     1
   2701   2726     1
   2701   2727     1
   2702   2704     1
   2702   2707     1
   2702   2729     1
   2702   2725     1
   2702   2714     1
   2702   2715     1
   2703   2704     1
   2703   2707     1
   2703   2729     1
   2703   2725     1
   2703   2714     1
   2703   2715     1
   2704   2708     1
   2704   2709     1
   2704   2723     1
   2704   2724     1
   2705   2707     1
   2705   2729     1
   2705   2722     1
   2705   2717     1
   2705   2718     1
   2706   2707     1
   2706   2729     1
   2706   2722     1
   2706   2717     1
   2706   2718     1
   2707   2720     1
   2707   2721     1
   2708   2729     1
   2708   2719     1
   2708   2711     1
   2708   2712     1
   2709   2729     1
   2709   2719     1
   2709   2711     1
   2709   2712     1
   2710   2729     1
   2711   2728     1
   2711   2720     1
   2711   2721     1
   2712   2728     1
   2712   2720     1
   2712   2721     1
   2713   2729     1
   2714   4590     1
   2714   2726     1
   2714   2727     1
   2715   4590     1
   2715   2726     1
   2715   2727     1
   2716   2729     1
   2717   4576     1
   2717   2723     1
   2717   2724     1
   2718   4576     1
   2718   2723     1
   2718   2724     1
   2722   4571     1
   2722   4572     1
   2723   4570     1
   2724   4570     1
   2725   4585     1
   2725   4586     1
   2726   4584     1
   2727   4584     1
   2730   2744     1
   2730   2745     1
   2730   2747     1
   2730   2748     1
   2730   2741     1
   2730   2742     1
   2731   2735     1
   2731   2736     1
   2731   2738     1
   2731   2739     1
   2731   2756     1
   2731   2757     1
   2732   2734     1
   2732   2737     1
   2732   2759     1
   2732   2755     1
   2732   2744     1
   2732   2745     1
   2733   2734     1
   2733   2737     1
   2733   2759     1
   2733   2755     1
   2733   2744     1
   2733   2745     1
   2734   2738     1
   2734   2739     1
   2734   2753     1
   2734   2754     1
   2735   2737     1
   2735   2759     1
   2735   2752     1
   2735   2747     1
   2735   2748     1
   2736   2737     1
   2736   2759     1
   2736   2752     1
   2736   2747     1
   2736   2748     1
   2737   2750     1
   2737   2751     1
   2738   2759     1
   2738   2749     1
   2738   2741     1
   2738   2742     1
   2739   2759     1
   2739   2749     1
   2739   2741     1
   2739   2742     1
   2740   2759     1
   2741   2758     1
   2741   2750     1
   2741   2751     1
   2742   2758     1
   2742   2750     1
   2742   2751     1
   2743   2759     1
   2744   4618     1
   2744   2756     1
   2744   2757     1
   2745   4618     1
   2745   2756     1
   2745   2757     1
   2746   2759     1
   2747   4604     1
   2747   2753     1
   2747   2754     1
   2748   4604     1
   2748   2753     1
   2748   2754     1
   2752   4599     1
   2752   4600     1
   2753   4598     1
   2754   4598     1
   2755   4613     1
   2755   4614     1
   2756   4612     1
   2757   4612     1
   2760   2774     1
   2760   2775     1
   2760   2777     1
   2760   2778     1
   2760   2771     1
   2760   2772     1
   2761   2765     1
   2761   2766     1
   2761   2768     1
   2761   2769     1
   2761   2786     1
   2761   2787     1
   2762   2764     1
   2762   2767     1
   2762   2789     1
   2762   2785     1
   2762   2774     1
   2762   2775     1
   2763   2764     1
   2763   2767     1
   2763   2789     1
   2763   2785     1
   2763   2774     1
   2763   2775     1
   2764   2768     1
   2764   2769     1
   2764   2783     1
   2764   2784     1
   2765   2767     1
   2765   2789     1
   2765   2782     1
   2765   2777     1
   2765   2778     1
   2766   2767     1
   2766   2789     1
   2766   2782     1
   2766   2777     1
   2766   2778     1
   2767   2780     1
   2767   2781     1
   2768   2789     1
   2768   2779     1
   2768   2771     1
   2768   2772     1
   2769   2789     1
   2769   2779     1
   2769   2771     1
   2769   2772     1
   2770   2789     1
   2771   2788     1
   2771   2780     1
   2771   2781     1
   2772   2788     1
   2772   2780     1
   2772   2781     1
   2773   2789     1
   2774   4646     1
   2774   2786     1
   2774   2787     1
   2775   4646     1
   2775   2786     1
   2775   2787     1
   2776   2789     1
   2777   4632     1
   2777   2783     1
   2777   2784     1
   2778   4632     1
   2778   2783     1
   2778   2784     1
   2782   4627     1
   2782   4628     1
   2783   4626     1
   2784   4626     1
   2785   4641     1
   2785   4642     1
   2786   4640     1
   2787   4640     1
   2790   2804     1
   2790   2805     1
   2790   2807     1
   2790   2808     1
   2790   2801     1
   2790   2802     1
   2791   2795     1
   2791   2796     1
   2791   2798     1
   2791   2799     1
   2791   2816     1
   2791   2817     1
   2792   2794     1
   2792   2797     1
   2792   2819     1
   2792   2815     1
   2792   2804     1
   2792   2805     1
   2793   2794     1
   2793   2797     1
   2793   2819     1
   2793   2815     1
   2793   2804     1
   2793   2805     1
   2794   2798     1
   2794   2799     1
   2794   2813     1
   2794   2814     1
   2795   2797     1
   2795   2819     1
   2795   2812     1
   2795   2807     1
   2795   2808     1
   2796   2797     1
   2796   2819     1
   2796   2812     1
   2796   2807     1
   2796   2808     1
   2797   2810     1
   2797   2811     1
   2798   2819     1
   2798   2809     1
   2798   2801     1
   2798   2802     1
   2799   2819     1
   2799   2809     1
   2799   2801     1
   2799   2802     1
   2800   2819     1
   2801   2818     1
   2801   2810     1
   2801   2811     1
   2802   2818     1
   2802   2810     1
   2802   2811     1
   2803   2819     1
   2804   4674     1
   2804   2816     1
   2804   2817     1
   2805   4674     1
   2805   2816     1
   2805   2817     1
   2806   2819     1
   2807   4660     1
   2807   2813     1
   2807   2814     1
   2808   4660     1
   2808   2813     1
   2808   2814     1
   2812   4655     1
   2812   4656     1
   2813   4654     1
   2814   4654     1
   2815   4669     1
   2815   4670     1
   2816   4668     1
   2817   4668     1
   2820   2834     1
   2820   2835     1
   2820   2837     1
   2820   2838     1
   2820   2831     1
   2820   2832     1
   2821   2825     1
   2821   2826     1
   2821   2828     1
   2821   2829     1
   2821   2846     1
   2821   2847     1
   2822   2824     1
   2822   2827     1
   2822   2849     1
   2822   2845     1
   2822   2834     1
   2822   2835     1
   2823   2824     1
   2823   2827     1
   2823   2849     1
   2823   2845     1
   2823   2834     1
   2823   2835     1
   2824   2828     1
   2824   2829     1
   2824   2843     1
   2824   2844     1
   2825   2827     1
   2825   2849     1
   2825   2842     1
   2825   2837     1
   2825   2838     1
   2826   2827     1
   2826   2849     1
   2826   2842     1
   2826   2837     1
   2826   2838     1
   2827   2840     1
   2827   2841     1
   2828   2849     1
   2828   2839     1
   2828   2831     1
   2828   2832     1
   2829   2849     1
   2829   2839     1
   2829   2831     1
   2829   2832     1
   2830   2849     1
   2831   2848     1
   2831   2840     1
   2831   2841     1
   2832   2848     1
   2832   2840     1
   2832   2841     1
   2833   2849     1
   2834   4702     1
   2834   2846     1
   2834   2847     1
   2835   4702     1
   2835   2846     1
   2835   2847     1
   2836   2849     1
   2837   4688     1
   2837   2843     1
   2837   2844     1
   2838   4688     1
   2838   2843     1
   2838   2844     1
   2842   4683     1
   2842   4684     1
   2843   4682     1
   2844   4682     1
   2845   4697     1
   2845   4698     1
   2846   4696     1
   2847   4696     1
   2850   2864     1
   2850   2865     1
   2850   2867     1
   2850   2868     1
   2850   2861     1
   2850   2862     1
   2851   2855     1
   2851   2856     1
   2851   2858     1
   2851   2859     1
   2851   2876     1
   2851   2877     1
   2852   2854     1
   2852   2857     1
   2852   2879     1
   2852   2875     1
   2852   2864     1
   2852   2865     1
   2853   2854     1
   2853   2857     1
   2853   2879     1
   2853   2875     1
   2853   2864     1
   2853   2865     1
   2854   2858     1
   2854   2859     1
   2854   2873     1
   2854   2874     1
   2855   2857     1
   2855   2879     1
   2855   2872     1
   2855   2867     1
   2855   2868     1
   2856   2857     1
   2856   2879     1
   2856   2872     1
   2856   2867     1
   2856   2868     1
   2857   2870     1
   2857   2871     1
   2858   2879     1
   2858   2869     1
   2858   2861     1
   2858   2862     1
   2859   2879     1
   2859   2869     1
   2859   2861     1
   2859   2862     1
   2860   2879     1
   2861   2878     1
   2861   2870     1
   2861   2871     1
   2862   2878     1
   2862   2870     1
   2862   2871     1
   2863   2879     1
   2864   4730     1
   2864   2876     1
   2864   2877     1
   2865   4730     1
   2865   2876     1
   2865   2877     1
   2866   2879     1
   2867   4716     1
   2867   2873     1
   2867   2874     1
   2868   4716     1
   2868   2873     1
   2868   2874     1
   2872   4711     1
   2872   4712     1
   2873   4710     1
   2874   4710     1
   2875   4725     1
   2875   4726     1
   2876   4724     1
   2877   4724     1
   2880   2894     1
   2880   2895     1
   2880   2897     1
   2880   2898     1
   2880   2891     1
   2880   2892     1
   2881   2885     1
   2881   2886     1
   2881   2888     1
   2881   2889     1
   2881   2906     1
   2881   2907     1
   2882   2884     1
   2882   2887     1
   2882   2909     1
   2882   2905     1
   2882   2894     1
   2882   2895     1
   2883   2884     1
   2883   2887     1
   2883   2909     1
   2883   2905     1
   2883   2894     1
   2883   2895     1
   2884   2888     1
   2884   2889     1
   2884   2903     1
   2884   2904     1
   2885   2887     1
   2885   2909     1
   2885   2902     1
   2885   2897     1
   2885   2898     1
   2886   2887     1
   2886   2909     1
   2886   2902     1
   2886   2897     1
   2886   2898     1
   2887   2900     1
   2887   2901     1
   2888   2909     1
   2888   2899     1
   2888   2891     1
   2888   2892     1
   2889   2909     1
   2889   2899     1
   2889   2891     1
   2889   2892     1
   2890   2909     1
   2891   2908     1
   2891   2900     1
   2891   2901     1
   2892   2908     1
   2892   2900     1
   2892   2901     1
   2893   2909     1
   2894   4758     1
   2894   2906     1
   2894   2907     1
   2895   4758     1
   2895   2906     1
   2895   2907     1
   2896   2909     1
   2897   4744     1
   2897   2903     1
   2897   2904     1
   2898   4744     1
   2898   2903     1
   2898   2904     1
   2902   4739     1
   2902   4740     1
   2903   4738     1
   2904   4738     1
   2905   4753     1
   2905   4754     1
   2906   4752     1
   2907   4752     1
   2910   2924     1
   2910   2925     1
   2910   2927     1
   2910   2928     1
   2910   2921     1
   2910   2922     1
   2911   2915     1
   2911   2916     1
   2911   2918     1
   2911   2919     1
   2911   2936     1
   2911   2937     1
   2912   2914     1
   2912   2917     1
   2912   2939     1
   2912   2935     1
   2912   2924     1
   2912   2925     1
   2913   2914     1
   2913   2917     1
   2913   2939     1
   2913   2935     1
   2913   2924     1
   2913   2925     1
   2914   2918     1
   2914   2919     1
   2914   2933     1
   2914   2934     1
   2915   2917     1
   2915   2939     1
   2915   2932     1
   2915   2927     1
   2915   2928     1
   2916   2917     1
   2916   2939     1
   2916   2932     1
   2916   2927     1
   2916   2928     1
   2917   2930     1
   2917   2931     1
   2918   2939     1
   2918   2929     1
   2918   2921     1
   2918   2922     1
   2919   2939     1
   2919   2929     1
   2919   2921     1
   2919   2922     1
   2920   2939     1
   2921   2938     1
   2921   2930     1
   2921   2931     1
   2922   2938     1
   2922   2930     1
   2922   2931     1
   2923   2939     1
   2924   4786     1
   2924   2936     1
   2924   2937     1
   2925   4786     1
   2925   2936     1
   2925   2937     1
   2926   2939     1
   2927   4772     1
   2927   2933     1
   2927   2934     1
   2928   4772     1
   2928   2933     1
   2928   2934     1
   2932   4767     1
   2932   4768     1
   2933   4766     1
   2934   4766     1
   2935   4781     1
   2935   4782     1
   2936   4780     1
   2937   4780     1
   2940   2954     1
   2940   2955     1
   2940   2957     1
   2940   2958     1
   2940   2951     1
   2940   2952     1
   2941   2945     1
   2941   2946     1
   2941   2948     1
   2941   2949     1
   2941   2966     1
   2941   2967     1
   2942   2944     1
   2942   2947     1
   2942   2969     1
   2942   2965     1
   2942   2954     1
   2942   2955     1
   2943   2944     1
   2943   2947     1
   2943   2969     1
   2943   2965     1
   2943   2954     1
   2943   2955     1
   2944   2948     1
   2944   2949     1
   2944   2963     1
   2944   2964     1
   2945   2947     1
   2945   2969     1
   2945   2962     1
   2945   2957     1
   2945   2958     1
   2946   2947     1
   2946   2969     1
   2946   2962     1
   2946   2957     1
   2946   2958     1
   2947   2960     1
   2947   2961     1
   2948   2969     1
   2948   2959     1
   2948   2951     1
   2948   2952     1
   2949   2969     1
   2949   2959     1
   2949   2951     1
   2949   2952     1
   2950   2969     1
   2951   2968     1
   2951   2960     1
   2951   2961     1
   2952   2968     1
   2952   2960     1
   2952   2961     1
   2953   2969     1
   2954   4814     1
   2954   2966     1
   2954   2967     1
   2955   4814     1
   2955   2966     1
   2955   2967     1
   2956   2969     1
   2957   4800     1
   2957   2963     1
   2957   2964     1
   2958   4800     1
   2958   2963     1
   2958   2964     1
   2962   4795     1
   2962   4796     1
   2963   4794     1
   2964   4794     1
   2965   4809     1
   2965   4810     1
   2966   4808     1
   2967   4808     1
   2970   2984     1
   2970   2985     1
   2970   2987     1
   2970   2988     1
   2970   2981     1
   2970   2982     1
   2971   2975     1
   2971   2976     1
   2971   2978     1
   2971   2979     1
   2971   2996     1
   2971   2997     1
   2972   2974     1
   2972   2977     1
   2972   2999     1
   2972   2995     1
   2972   2984     1
   2972   2985     1
   2973   2974     1
   2973   2977     1
   2973   2999     1
   2973   2995     1
   2973   2984     1
   2973   2985     1
   2974   2978     1
   2974   2979     1
   2974   2993     1
   2974   2994     1
   2975   2977     1
   2975   2999     1
   2975   2992     1
   2975   2987     1
   2975   2988     1
   2976   2977     1
   2976   2999     1
   2976   2992     1
   2976   2987     1
   2976   2988     1
   2977   2990     1
   2977   2991     1
   2978   2999     1
   2978   2989     1
   2978   2981     1
   2978   2982     1
   2979   2999     1
   2979   2989     1
   2979   2981     1
   2979   2982     1
   2980   2999     1
   2981   2998     1
   2981   2990     1
   2981   2991     1
   2982   2998     1
   2982   2990     1
   2982   2991     1
   2983   2999     1
   2984   4842     1
   2984   2996     1
   2984   2997     1
   2985   4842     1
   2985   2996     1
   2985   2997     1
   2986   2999     1
   2987   4828     1
   2987   2993     1
   2987   2994     1
   2988   4828     1
   2988   2993     1
   2988   2994     1
   2992   4823     1
   2992   4824     1
   2993   4822     1
   2994   4822     1
   2995   4837     1
   2995   4838     1
   2996   4836     1
   2997   4836     1
   3000   3014     1
   3000   3015     1
   3000   3017     1
   3000   3018     1
   3000   3011     1
   3000   3012     1
   3001   3005     1
   3001   3006     1
   3001   3008     1
   3001   3009     1
   3001   3026     1
   3001   3027     1
   3002   3004     1
   3002   3007     1
   3002   3029     1
   3002   3025     1
   3002   3014     1
   3002   3015     1
   3003   3004     1
   3003   3007     1
   3003   3029     1
   3003   3025     1
   3003   3014     1
   3003   3015     1
   3004   3008     1
   3004   3009     1
   3004   3023     1
   3004   3024     1
   3005   3007     1
   3005   3029     1
   3005   3022     1
   3005   3017     1
   3005   3018     1
   3006   3007     1
   3006   3029     1
   3006   3022     1
   3006   3017     1
   3006   3018     1
   3007   3020     1
   3007   3021     1
   3008   3029     1
   3008   3019     1
   3008   3011     1
   3008   3012     1
   3009   3029     1
   3009   3019     1
   3009   3011     1
   3009   3012     1
   3010   3029     1
   3011   3028     1
   3011   3020     1
   3011   3021     1
   3012   3028     1
   3012   3020     1
   3012   3021     1
   3013   3029     1
   3014   4870     1
   3014   3026     1
   3014   3027     1
   3015   4870     1
   3015   3026     1
   3015   3027     1
   3016   3029     1
   3017   4856     1
   3017   3023     1
   3017   3024     1
   3018   4856     1
   3018   3023     1
   3018   3024     1
   3022   4851     1
   3022   4852     1
   3023   4850     1
   3024   4850     1
   3025   4865     1
   3025   4866     1
   3026   4864     1
   3027   4864     1
   3030   3044     1
   3030   3045     1
   3030   3047     1
   3030   3048     1
   3030   3041     1
   3030   3042     1
   3031   3035     1
   3031   3036     1
   3031   3038     1
   3031   3039     1
   3031   3056     1
   3031   3057     1
   3032   3034     1
   3032   3037     1
   3032   3059     1
   3032   3055     1
   3032   3044     1
   3032   3045     1
   3033   3034     1
   3033   3037     1
   3033   3059     1
   3033   3055     1
   3033   3044     1
   3033   3045     1
   3034   3038     1
   3034   3039     1
   3034   3053     1
   3034   3054     1
   3035   3037     1
   3035   3059     1
   3035   3052     1
   3035   3047     1
   3035   3048     1
   3036   3037     1
   3036   3059     1
   3036   3052     1
   3036   3047     1
   3036   3048     1
   3037   3050     1
   3037   3051     1
   3038   3059     1
   3038   3049     1
   3038   3041     1
   3038   3042     1
   3039   3059     1
   3039   3049     1
   3039   3041     1
   3039   3042     1
   3040   3059     1
   3041   3058     1
   3041   3050     1
   3041   3051     1
   3042   3058     1
   3042   3050     1
   3042   3051     1
   3043   3059     1
   3044   4898     1
   3044   3056     1
   3044   3057     1
   3045   4898     1
   3045   3056     1
   3045   3057     1
   3046   3059     1
   3047   4884     1
   3047   3053     1
   3047   3054     1
   3048   4884     1
   3048   3053     1
   3048   3054     1
   3052   4879     1
   3052   4880     1
   3053   4878     1
   3054   4878     1
   3055   4893     1
   3055   4894     1
   3056   4892     1
   3057   4892     1
   3060   3074     1
   3060   3075     1
   3060   3077     1
   3060   3078     1
   3060   3071     1
   3060   3072     1
   3061   3065     1
   3061   3066     1
   3061   3068     1
   3061   3069     1
   3061   3086     1
   3061   3087     1
   3062   3064     1
   3062   3067     1
   3062   3089     1
   3062   3085     1
   3062   3074     1
   3062   3075     1
   3063   3064     1
   3063   3067     1
   3063   3089     1
   3063   3085     1
   3063   3074     1
   3063   3075     1
   3064   3068     1
   3064   3069     1
   3064   3083     1
   3064   3084     1
   3065   3067     1
   3065   3089     1
   3065   3082     1
   3065   3077     1
   3065   3078     1
   3066   3067     1
   3066   3089     1
   3066   3082     1
   3066   3077     1
   3066   3078     1
   3067   3080     1
   3067   3081     1
   3068   3089     1
   3068   3079     1
   3068   3071     1
   3068   3072     1
   3069   3089     1
   3069   3079     1
   3069   3071     1
   3069   3072     1
   3070   3089     1
   3071   3088     1
   3071   3080     1
   3071   3081     1
   3072   3088     1
   3072   3080     1
   3072   3081     1
   3073   3089     1
   3074   4926     1
   3074   3086     1
   3074   3087     1
   3075   4926     1
   3075   3086     1
   3075   3087     1
   3076   3089     1
   3077   4912     1
   3077   3083     1
   3077   3084     1
   3078   4912     1
   3078   3083     1
   3078   3084     1
   3082   4907     1
   3082   4908     1
   3083   4906     1
   3084   4906     1
   3085   4921     1
   3085   4922     1
   3086   4920     1
   3087   4920     1
   3090   3104     1
   3090   3105     1
   3090   3107     1
   3090   3108     1
   3090   3101     1
   3090   3102     1
   3091   3095     1
   3091   3096     1
   3091   3098     1
   3091   3099     1
   3091   3116     1
   3091   3117     1
   3092   3094     1
   3092   3097     1
   3092   3119     1
   3092   3115     1
   3092   3104     1
   3092   3105     1
   3093   3094     1
   3093   3097     1
   3093   3119     1
   3093   3115     1
   3093   3104     1
   3093   3105     1
   3094   3098     1
   3094   3099     1
   3094   3113     1
   3094   3114     1
   3095   3097     1
   3095   3119     1
   3095   3112     1
   3095   3107     1
   3095   3108     1
   3096   3097     1
   3096   3119     1
   3096   3112     1
   3096   3107     1
   3096   3108     1
   3097   3110     1
   3097   3111     1
   3098   3119     1
   3098   3109     1
   3098   3101     1
   3098   3102     1
   3099   3119     1
   3099   3109     1
   3099   3101     1
   3099   3102     1
   3100   3119     1
   3101   3118     1
   3101   3110     1
   3101   3111     1
   3102   3118     1
   3102   3110     1
   3102   3111     1
   3103   3119     1
   3104   4954     1
   3104   3116     1
   3104   3117     1
   3105   4954     1
   3105   3116     1
   3105   3117     1
   3106   3119     1
   3107   4940     1
   3107   3113     1
   3107   3114     1
   3108   4940     1
   3108   3113     1
   3108   3114     1
   3112   4935     1
   3112   4936     1
   3113   4934     1
   3114   4934     1
   3115   4949     1
   3115   4950     1
   3116   4948     1
   3117   4948     1
   3120   3134     1
   3120   3135     1
   3120   3137     1
   3120   3138     1
   3120   3131     1
   3120   3132     1
   3121   3125     1
   3121   3126     1
   3121   3128     1
   3121   3129     1
   3121   3146     1
   3121   3147     1
   3122   3124     1
   3122   3127     1
   3122   3149     1
   3122   3145     1
   3122   3134     1
   3122   3135     1
   3123   3124     1
   3123   3127     1
   3123   3149     1
   3123   3145     1
   3123   3134     1
   3123   3135     1
   3124   3128     1
   3124   3129     1
   3124   3143     1
   3124   3144     1
   3125   3127     1
   3125   3149     1
   3125   3142     1
   3125   3137     1
   3125   3138     1
   3126   3127     1
   3126   3149     1
   3126   3142     1
   3126   3137     1
   3126   3138     1
   3127   3140     1
   3127   3141     1
   3128   3149     1
   3128   3139     1
   3128   3131     1
   3128   3132     1
   3129   3149     1
   3129   3139     1
   3129   3131     1
   3129   3132     1
   3130   3149     1
   3131   3148     1
   3131   3140     1
   3131   3141     1
   3132   3148     1
   3132   3140     1
   3132   3141     1
   3133   3149     1
   3134   4982     1
   3134   3146     1
   3134   3147     1
   3135   4982     1
   3135   3146     1
   3135   3147     1
   3136   3149     1
   3137   4968     1
   3137   3143     1
   3137   3144     1
   3138   4968     1
   3138   3143     1
   3138   3144     1
   3142   4963     1
   3142   4964     1
   3143   4962     1
   3144   4962     1
   3145   4977     1
   3145   4978     1
   3146   4976     1
   3147   4976     1
   3150   3164     1
   3150   3165     1
   3150   3167     1
   3150   3168     1
   3150   3161     1
   3150   3162     1
   3151   3155     1
   3151   3156     1
   3151   3158     1
   3151   3159     1
   3151   3176     1
   3151   3177     1
   3152   3154     1
   3152   3157     1
   3152   3179     1
   3152   3175     1
   3152   3164     1
   3152   3165     1
   3153   3154     1
   3153   3157     1
   3153   3179     1
   3153   3175     1
   3153   3164     1
   3153   3165     1
   3154   3158     1
   3154   3159     1
   3154   3173     1
   3154   3174     1
   3155   3157     1
   3155   3179     1
   3155   3172     1
   3155   3167     1
   3155   3168     1
   3156   3157     1
   3156   3179     1
   3156   3172     1
   3156   3167     1
   3156   3168     1
   3157   3170     1
   3157   3171     1
   3158   3179     1
   3158   3169     1
   3158   3161     1
   3158   3162     1
   3159   3179     1
   3159   3169     1
   3159   3161     1
   3159   3162     1
   3160   3179     1
   3161   3178     1
   3161   3170     1
   3161   3171     1
   3162   3178     1
   3162   3170     1
   3162   3171     1
   3163   3179     1
   3164   5010     1
   3164   3176     1
   3164   3177     1
   3165   5010     1
   3165   3176     1
   3165   3177     1
   3166   3179     1
   3167   4996     1
   3167   3173     1
   3167   3174     1
   3168   4996     1
   3168   3173     1
   3168   3174     1
   3172   4991     1
   3172   4992     1
   3173   4990     1
   3174   4990     1
   3175   5005     1
   3175   5006     1
   3176   5004     1
   3177   5004     1
   3180   3194     1
   3180   3195     1
   3180   3197     1
   3180   3198     1
   3180   3191     1
   3180   3192     1
   3181   3185     1
   3181   3186     1
   3181   3188     1
   3181   3189     1
   3181   3206     1
   3181   3207     1
   3182   3184     1
   3182   3187     1
   3182   3209     1
   3182   3205     1
   3182   3194     1
   3182   3195     1
   3183   3184     1
   3183   3187     1
   3183   3209     1
   3183   3205     1
   3183   3194     1
   3183   3195     1
   3184   3188     1
   3184   3189     1
   3184   3203     1
   3184   3204     1
   3185   3187     1
   3185   3209     1
   3185   3202     1
   3185   3197     1
   3185   3198     1
   3186   3187     1
   3186   3209     1
   3186   3202     1
   3186   3197     1
   3186   3198     1
   3187   3200     1
   3187   3201     1
   3188   3209     1
   3188   3199     1
   3188   3191     1
   3188   3192     1
   3189   3209     1
   3189   3199     1
   3189   3191     1
   3189   3192     1
   3190   3209     1
   3191   3208     1
   3191   3200     1
   3191   3201     1
   3192   3208     1
   3192   3200     1
   3192   3201     1
   3193   3209     1
   3194   5038     1
   3194   3206     1
   3194   3207     1
   3195   5038     1
   3195   3206     1
   3195   3207     1
   3196   3209     1
   3197   5024     1
   3197   3203     1
   3197   3204     1
   3198   5024     1
   3198   3203     1
   3198   3204     1
   3202   5019     1
   3202   5020     1
   3203   5018     1
   3204   5018     1
   3205   5033     1
   3205   5034     1
   3206   5032     1
   3207   5032     1
   3210   3224     1
   3210   3225     1
   3210   3227     1
   3210   3228     1
   3210   3221     1
   3210   3222     1
   3211   3215     1
   3211   3216     1
   3211   3218     1
   3211   3219     1
   3211   3236     1
   3211   3237     1
   3212   3214     1
   3212   3217     1
   3212   3239     1
   3212   3235     1
   3212   3224     1
   3212   3225     1
   3213   3214     1
   3213   3217     1
   3213   3239     1
   3213   3235     1
   3213   3224     1
   3213   3225     1
   3214   3218     1
   3214   3219     1
   3214   3233     1
   3214   3234     1
   3215   3217     1
   3215   3239     1
   3215   3232     1
   3215   3227     1
   3215   3228     1
   3216   3217     1
   3216   3239     1
   3216   3232     1
   3216   3227     1
   3216   3228     1
   3217   3230     1
   3217   3231     1
   3218   3239     1
   3218   3229     1
   3218   3221     1
   3218   3222     1
   3219   3239     1
   3219   3229     1
   3219   3221     1
   3219   3222     1
   3220   3239     1
   3221   3238     1
   3221   3230     1
   3221   3231     1
   3222   3238     1
   3222   3230     1
   3222   3231     1
   3223   3239     1
   3224   5066     1
   3224   3236     1
   3224   3237     1
   3225   5066     1
   3225   3236     1
   3225   3237     1
   3226   3239     1
   3227   5052     1
   3227   3233     1
   3227   3234     1
   3228   5052     1
   3228   3233     1
   3228   3234     1
   3232   5047     1
   3232   5048     1
   3233   5046     1
   3234   5046     1
   3235   5061     1
   3235   5062     1
   3236   5060     1
   3237   5060     1
   3240   3254     1
   3240   3255     1
   3240   3257     1
   3240   3258     1
   3240   3251     1
   3240   3252     1
   3241   3245     1
   3241   3246     1
   3241   3248     1
   3241   3249     1
   3241   3266     1
   3241   3267     1
   3242   3244     1
   3242   3247     1
   3242   3269     1
   3242   3265     1
   3242   3254     1
   3242   3255     1
   3243   3244     1
   3243   3247     1
   3243   3269     1
   3243   3265     1
   3243   3254     1
   3243   3255     1
   3244   3248     1
   3244   3249     1
   3244   3263     1
   3244   3264     1
   3245   3247     1
   3245   3269     1
   3245   3262     1
   3245   3257     1
   3245   3258     1
   3246   3247     1
   3246   3269     1
   3246   3262     1
   3246   3257     1
   3246   3258     1
   3247   3260     1
   3247   3261     1
   3248   3269     1
   3248   3259     1
   3248   3251     1
   3248   3252     1
   3249   3269     1
   3249   3259     1
   3249   3251     1
   3249   3252     1
   3250   3269     1
   3251   3268     1
   3251   3260     1
   3251   3261     1
   3252   3268     1
   3252   3260     1
   3252   3261     1
   3253   3269     1
   3254   5094     1
   3254   3266     1
   3254   3267     1
   3255   5094     1
   3255   3266     1
   3255   3267     1
   3256   3269     1
   3257   5080     1
   3257   3263     1
   3257   3264     1
   3258   5080     1
   3258   3263     1
   3258   3264     1
   3262   5075     1
   3262   5076     1
   3263   5074     1
   3264   5074     1
   3265   5089     1
   3265   5090     1
   3266   5088     1
   3267   5088     1
   3270   3284     1
   3270   3285     1
   3270   3287     1
   3270   3288     1
   3270   3281     1
   3270   3282     1
   3271   3275     1
   3271   3276     1
   3271   3278     1
   3271   3279     1
   3271   3296     1
   3271   3297     1
   3272   3274     1
   3272   3277     1
   3272   3299     1
   3272   3295     1
   3272   3284     1
   3272   3285     1
   3273   3274     1
   3273   3277     1
   3273   3299     1
   3273   3295     1
   3273   3284     1
   3273   3285     1
   3274   3278     1
   3274   3279     1
   3274   3293     1
   3274   3294     1
   3275   3277     1
   3275   3299     1
   3275   3292     1
   3275   3287     1
   3275   3288     1
   3276   3277     1
   3276   3299     1
   3276   3292     1
   3276   3287     1
   3276   3288     1
   3277   3290     1
   3277   3291     1
   3278   3299     1
   3278   3289     1
   3278   3281     1
   3278   3282     1
   3279   3299     1
   3279   3289     1
   3279   3281     1
   3279   3282     1
   3280   3299     1
   3281   3298     1
   3281   3290     1
   3281   3291     1
   3282   3298     1
   3282   3290     1
   3282   3291     1
   3283   3299     1
   3284   5122     1
   3284   3296     1
   3284   3297     1
   3285   5122     1
   3285   3296     1
   3285   3297     1
   3286   3299     1
   3287   5108     1
   3287   3293     1
   3287   3294     1
   3288   5108     1
   3288   3293     1
   3288   3294     1
   3292   5103     1
   3292   5104     1
   3293   5102     1
   3294   5102     1
   3295   5117     1
   3295   5118     1
   3296   5116     1
   3297   5116     1
   3300   3314     1
   3300   3315     1
   3300   3317     1
   3300   3318     1
   3300   3311     1
   3300   3312     1
   3301   3305     1
   3301   3306     1
   3301   3308     1
   3301   3309     1
   3301   3326     1
   3301   3327     1
   3302   3304     1
   3302   3307     1
   3302   3329     1
   3302   3325     1
   3302   3314     1
   3302   3315     1
   3303   3304     1
   3303   3307     1
   3303   3329     1
   3303   3325     1
   3303   3314     1
   3303   3315     1
   3304   3308     1
   3304   3309     1
   3304   3323     1
   3304   3324     1
   3305   3307     1
   3305   3329     1
   3305   3322     1
   3305   3317     1
   3305   3318     1
   3306   3307     1
   3306   3329     1
   3306   3322     1
   3306   3317     1
   3306   3318     1
   3307   3320     1
   3307   3321     1
   3308   3329     1
   3308   3319     1
   3308   3311     1
   3308   3312     1
   3309   3329     1
   3309   3319     1
   3309   3311     1
   3309   3312     1
   3310   3329     1
   3311   3328     1
   3311   3320     1
   3311   3321     1
   3312   3328     1
   3312   3320     1
   3312   3321     1
   3313   3329     1
   3314   5150     1
   3314   3326     1
   3314   3327     1
   3315   5150     1
   3315   3326     1
   3315   3327     1
   3316   3329     1
   3317   5136     1
   3317   3323     1
   3317   3324     1
   3318   5136     1
   3318   3323     1
   3318   3324     1
   3322   5131     1
   3322   5132     1
   3323   5130     1
   3324   5130     1
   3325   5145     1
   3325   5146     1
   3326   5144     1
   3327   5144     1
   3330   3344     1
   3330   3345     1
   3330   3347     1
   3330   3348     1
   3330   3341     1
   3330   3342     1
   3331   3335     1
   3331   3336     1
   3331   3338     1
   3331   3339     1
   3331   3356     1
   3331   3357     1
   3332   3334     1
   3332   3337     1
   3332   3359     1
   3332   3355     1
   3332   3344     1
   3332   3345     1
   3333   3334     1
   3333   3337     1
   3333   3359     1
   3333   3355     1
   3333   3344     1
   3333   3345     1
   3334   3338     1
   3334   3339     1
   3334   3353     1
   3334   3354     1
   3335   3337     1
   3335   3359     1
   3335   3352     1
   3335   3347     1
   3335   3348     1
   3336   3337     1
   3336   3359     1
   3336   3352     1
   3336   3347     1
   3336   3348     1
   3337   3350     1
   3337   3351     1
   3338   3359     1
   3338   3349     1
   3338   3341     1
   3338   3342     1
   3339   3359     1
   3339   3349     1
   3339   3341     1
   3339   3342     1
   3340   3359     1
   3341   3358     1
   3341   3350     1
   3341   3351     1
   3342   3358     1
   3342   3350     1
   3342   3351     1
   3343   3359     1
   3344   5178     1
   3344   3356     1
   3344   3357     1
   3345   5178     1
   3345   3356     1
   3345   3357     1
   3346   3359     1
   3347   5164     1
   3347   3353     1
   3347   3354     1
   3348   5164     1
   3348   3353     1
   3348   3354     1
   3352   5159     1
   3352   5160     1
   3353   5158     1
   3354   5158     1
   3355   5173     1
   3355   5174     1
   3356   5172     1
   3357   5172     1
   3360   3374     1
   3360   3375     1
   3360   3377     1
   3360   3378     1
   3360   3371     1
   3360   3372     1
   3361   3365     1
   3361   3366     1
   3361   3368     1
   3361   3369     1
   3361   3386     1
   3361   3387     1
   3362   3364     1
   3362   3367     1
   3362   3389     1
   3362   3385     1
   3362   3374     1
   3362   3375     1
   3363   3364     1
   3363   3367     1
   3363   3389     1
   3363   3385     1
   3363   3374     1
   3363   3375     1
   3364   3368     1
   3364   3369     1
   3364   3383     1
   3364   3384     1
   3365   3367     1
   3365   3389     1
   3365   3382     1
   3365   3377     1
   3365   3378     1
   3366   3367     1
   3366   3389     1
   3366   3382     1
   3366   3377     1
   3366   3378     1
   3367   3380     1
   3367   3381     1
   3368   3389     1
   3368   3379     1
   3368   3371     1
   3368   3372     1
   3369   3389     1
   3369   3379     1
   3369   3371     1
   3369   3372     1
   3370   3389     1
   3371   3388     1
   3371   3380     1
   3371   3381     1
   3372   3388     1
   3372   3380     1
   3372   3381     1
   3373   3389     1
   3374   5206     1
   3374   3386     1
   3374   3387     1
   3375   5206     1
   3375   3386     1
   3375   3387     1
   3376   3389     1
   3377   5192     1
   3377   3383     1
   3377   3384     1
   3378   5192     1
   3378   3383     1
   3378   3384     1
   3382   5187     1
   3382   5188     1
   3383   5186     1
   3384   5186     1
   3385   5201     1
   3385   5202     1
   3386   5200     1
   3387   5200     1
   3390   3404     1
   3390   3405     1
   3390   3407     1
   3390   3408     1
   3390   3401     1
   3390   3402     1
   3391   3395     1
   3391   3396     1
   3391   3398     1
   3391   3399     1
   3391   3416     1
   3391   3417     1
   3392   3394     1
   3392   3397     1
   3392   3419     1
   3392   3415     1
   3392   3404     1
   3392   3405     1
   3393   3394     1
   3393   3397     1
   3393   3419     1
   3393   3415     1
   3393   3404     1
   3393   3405     1
   3394   3398     1
   3394   3399     1
   3394   3413     1
   3394   3414     1
   3395   3397     1
   3395   3419     1
   3395   3412     1
   3395   3407     1
   3395   3408     1
   3396   3397     1
   3396   3419     1
   3396   3412     1
   3396   3407     1
   3396   3408     1
   3397   3410     1
   3397   3411     1
   3398   3419     1
   3398   3409     1
   3398   3401     1
   3398   3402     1
   3399   3419     1
   3399   3409     1
   3399   3401     1
   3399   3402     1
   3400   3419     1
   3401   3418     1
   3401   3410     1
   3401   3411     1
   3402   3418     1
   3402   3410     1
   3402   3411     1
   3403   3419     1
   3404   5234     1
   3404   3416     1
   3404   3417     1
   3405   5234     1
   3405   3416     1
   3405   3417     1
   3406   3419     1
   3407   5220     1
   3407   3413     1
   3407   3414     1
   3408   5220     1
   3408   3413     1
   3408   3414     1
   3412   5215     1
   3412   5216     1
   3413   5214     1
   3414   5214     1
   3415   5229     1
   3415   5230     1
   3416   5228     1
   3417   5228     1
   3420   3434     1
   3420   3435     1
   3420   3437     1
   3420   3438     1
   3420   3431     1
   3420   3432     1
   3421   3425     1
   3421   3426     1
   3421   3428     1
   3421   3429     1
   3421   3446     1
   3421   3447     1
   3422   3424     1
   3422   3427     1
   3422   3449     1
   3422   3445     1
   3422   3434     1
   3422   3435     1
   3423   3424     1
   3423   3427     1
   3423   3449     1
   3423   3445     1
   3423   3434     1
   3423   3435     1
   3424   3428     1
   3424   3429     1
   3424   3443     1
   3424   3444     1
   3425   3427     1
   3425   3449     1
   3425   3442     1
   3425   3437     1
   3425   3438     1
   3426   3427     1
   3426   3449     1
   3426   3442     1
   3426   3437     1
   3426   3438     1
   3427   3440     1
   3427   3441     1
   3428   3449     1
   3428   3439     1
   3428   3431     1
   3428   3432     1
   3429   3449     1
   3429   3439     1
   3429   3431     1
   3429   3432     1
   3430   3449     1
   3431   3448     1
   3431   3440     1
   3431   3441     1
   3432   3448     1
   3432   3440     1
   3432   3441     1
   3433   3449     1
   3434   5262     1
   3434   3446     1
   3434   3447     1
   3435   5262     1
   3435   3446     1
   3435   3447     1
   3436   3449     1
   3437   5248     1
   3437   3443     1
   3437   3444     1
   3438   5248     1
   3438   3443     1
   3438   3444     1
   3442   5243     1
   3442   5244     1
   3443   5242     1
   3444   5242     1
   3445   5257     1
   3445   5258     1
   3446   5256     1
   3447   5256     1
   3450   3464     1
   3450   3465     1
   3450   3467     1
   3450   3468     1
   3450   3461     1
   3450   3462     1
   3451   3455     1
   3451   3456     1
   3451   3458     1
   3451   3459     1
   3451   3476     1
   3451   3477     1
   3452   3454     1
   3452   3457     1
   3452   3479     1
   3452   3475     1
   3452   3464     1
   3452   3465     1
   3453   3454     1
   3453   3457     1
   3453   3479     1
   3453   3475     1
   3453   3464     1
   3453   3465     1
   3454   3458     1
   3454   3459     1
   3454   3473     1
   3454   3474     1
   3455   3457     1
   3455   3479     1
   3455   3472     1
   3455   3467     1
   3455   3468     1
   3456   3457     1
   3456   3479     1
   3456   3472     1
   3456   3467     1
   3456   3468     1
   3457   3470     1
   3457   3471     1
   3458   3479     1
   3458   3469     1
   3458   3461     1
   3458   3462     1
   3459   3479     1
   3459   3469     1
   3459   3461     1
   3459   3462     1
   3460   3479     1
   3461   3478     1
   3461   3470     1
   3461   3471     1
   3462   3478     1
   3462   3470     1
   3462   3471     1
   3463   3479     1
   3464   5290     1
   3464   3476     1
   3464   3477     1
   3465   5290     1
   3465   3476     1
   3465   3477     1
   3466   3479     1
   3467   5276     1
   3467   3473     1
   3467   3474     1
   3468   5276     1
   3468   3473     1
   3468   3474     1
   3472   5271     1
   3472   5272     1
   3473   5270     1
   3474   5270     1
   3475   5285     1
   3475   5286     1
   3476   5284     1
   3477   5284     1
   3480   3494     1
   3480   3495     1
   3480   3497     1
   3480   3498     1
   3480   3491     1
   3480   3492     1
   3481   3485     1
   3481   3486     1
   3481   3488     1
   3481   3489     1
   3481   3506     1
   3481   3507     1
   3482   3484     1
   3482   3487     1
   3482   3509     1
   3482   3505     1
   3482   3494     1
   3482   3495     1
   3483   3484     1
   3483   3487     1
   3483   3509     1
   3483   3505     1
   3483   3494     1
   3483   3495     1
   3484   3488     1
   3484   3489     1
   3484   3503     1
   3484   3504     1
   3485   3487     1
   3485   3509     1
   3485   3502     1
   3485   3497     1
   3485   3498     1
   3486   3487     1
   3486   3509     1
   3486   3502     1
   3486   3497     1
   3486   3498     1
   3487   3500     1
   3487   3501     1
   3488   3509     1
   3488   3499     1
   3488   3491     1
   3488   3492     1
   3489   3509     1
   3489   3499     1
   3489   3491     1
   3489   3492     1
   3490   3509     1
   3491   3508     1
   3491   3500     1
   3491   3501     1
   3492   3508     1
   3492   3500     1
   3492   3501     1
   3493   3509     1
   3494   5318     1
   3494   3506     1
   3494   3507     1
   3495   5318     1
   3495   3506     1
   3495   3507     1
   3496   3509     1
   3497   5304     1
   3497   3503     1
   3497   3504     1
   3498   5304     1
   3498   3503     1
   3498   3504     1
   3502   5299     1
   3502   5300     1
   3503   5298     1
   3504   5298     1
   3505   5313     1
   3505   5314     1
   3506   5312     1
   3507   5312     1
   3510   3524     1
   3510   3525     1
   3510   3527     1
   3510   3528     1
   3510   3521     1
   3510   3522     1
   3511   3515     1
   3511   3516     1
   3511   3518     1
   3511   3519     1
   3511   3536     1
   3511   3537     1
   3512   3514     1
   3512   3517     1
   3512   3539     1
   3512   3535     1
   3512   3524     1
   3512   3525     1
   3513   3514     1
   3513   3517     1
   3513   3539     1
   3513   3535     1
   3513   3524     1
   3513   3525     1
   3514   3518     1
   3514   3519     1
   3514   3533     1
   3514   3534     1
   3515   3517     1
   3515   3539     1
   3515   3532     1
   3515   3527     1
   3515   3528     1
   3516   3517     1
   3516   3539     1
   3516   3532     1
   3516   3527     1
   3516   3528     1
   3517   3530     1
   3517   3531     1
   3518   3539     1
   3518   3529     1
   3518   3521     1
   3518   3522     1
   3519   3539     1
   3519   3529     1
   3519   3521     1
   3519   3522     1
   3520   3539     1
   3521   3538     1
   3521   3530     1
   3521   3531     1
   3522   3538     1
   3522   3530     1
   3522   3531     1
   3523   3539     1
   3524   5346     1
   3524   3536     1
   3524   3537     1
   3525   5346     1
   3525   3536     1
   3525   3537     1
   3526   3539     1
   3527   5332     1
   3527   3533     1
   3527   3534     1
   3528   5332     1
   3528   3533     1
   3528   3534     1
   3532   5327     1
   3532   5328     1
   3533   5326     1
   3534   5326     1
   3535   5341     1
   3535   5342     1
   3536   5340     1
   3537   5340     1
   3540   3554     1
   3540   3555     1
   3540   3557     1
   3540   3558     1
   3540   3551     1
   3540   3552     1
   3541   3545     1
   3541   3546     1
   3541   3548     1
   3541   3549     1
   3541   3566     1
   3541   3567     1
   3542   3544     1
   3542   3547     1
   3542   3569     1
   3542   3565     1
   3542   3554     1
   3542   3555     1
   3543   3544     1
   3543   3547     1
   3543   3569     1
   3543   3565     1
   3543   3554     1
   3543   3555     1
   3544   3548     1
   3544   3549     1
   3544   3563     1
   3544   3564     1
   3545   3547     1
   3545   3569     1
   3545   3562     1
   3545   3557     1
   3545   3558     1
   3546   3547     1
   3546   3569     1
   3546   3562     1
   3546   3557     1
   3546   3558     1
   3547   3560     1
   3547   3561     1
   3548   3569     1
   3548   3559     1
   3548   3551     1
   3548   3552     1
   3549   3569     1
   3549   3559     1
   3549   3551     1
   3549   3552     1
   3550   3569     1
   3551   3568     1
   3551   3560     1
   3551   3561     1
   3552   3568     1
   3552   3560     1
   3552   3561     1
   3553   3569     1
   3554   5374     1
   3554   3566     1
   3554   3567     1
   3555   5374     1
   3555   3566     1
   3555   3567     1
   3556   3569     1
   3557   5360     1
   3557   3563     1
   3557   3564     1
   3558   5360     1
   3558   3563     1
   3558   3564     1
   3562   5355     1
   3562   5356     1
   3563   5354     1
   3564   5354     1
   3565   5369     1
   3565   5370     1
   3566   5368     1
   3567   5368     1
   3570   3584     1
   3570   3585     1
   3570   3587     1
   3570   3588     1
   3570   3581     1
   3570   3582     1
   3571   3575     1
   3571   3576     1
   3571   3578     1
   3571   3579     1
   3571   3596     1
   3571   3597     1
   3572   3574     1
   3572   3577     1
   3572   3599     1
   3572   3595     1
   3572   3584     1
   3572   3585     1
   3573   3574     1
   3573   3577     1
   3573   3599     1
   3573   3595     1
   3573   3584     1
   3573   3585     1
   3574   3578     1
   3574   3579     1
   3574   3593     1
   3574   3594     1
   3575   3577     1
   3575   3599     1
   3575   3592     1
   3575   3587     1
   3575   3588     1
   3576   3577     1
   3576   3599     1
   3576   3592     1
   3576   3587     1
   3576   3588     1
   3577   3590     1
   3577   3591     1
   3578   3599     1
   3578   3589     1
   3578   3581     1
   3578   3582     1
   3579   3599     1
   3579   3589     1
   3579   3581     1
   3579   3582     1
   3580   3599     1
   3581   3598     1
   3581   3590     1
   3581   3591     1
   3582   3598     1
   3582   3590     1
   3582   3591     1
   3583   3599     1
   3584   5402     1
   3584   3596     1
   3584   3597     1
   3585   5402     1
   3585   3596     1
   3585   3597     1
   3586   3599     1
   3587   5388     1
   3587   3593     1
   3587   3594     1
   3588   5388     1
   3588   3593     1
   3588   3594     1
   3592   5383     1
   3592   5384     1
   3593   5382     1
   3594   5382     1
   3595   5397     1
   3595   5398     1
   3596   5396     1
   3597   5396     1
   3600   3614     1
   3600   3615     1
   3600   3617     1
   3600   3618     1
   3600   3611     1
   3600   3612     1
   3601   3605     1
   3601   3606     1
   3601   3608     1
   3601   3609     1
   3601   3626     1
   3601   3627     1
   3602   3604     1
   3602   3607     1
   3602   3629     1
   3602   3625     1
   3602   3614     1
   3602   3615     1
   3603   3604     1
   3603   3607     1
   3603   3629     1
   3603   3625     1
   3603   3614     1
   3603   3615     1
   3604   3608     1
   3604   3609     1
   3604   3623     1
   3604   3624     1
   3605   3607     1
   3605   3629     1
   3605   3622     1
   3605   3617     1
   3605   3618     1
   3606   3607     1
   3606   3629     1
   3606   3622     1
   3606   3617     1
   3606   3618     1
   3607   3620     1
   3607   3621     1
   3608   3629     1
   3608   3619     1
   3608   3611     1
   3608   3612     1
   3609   3629     1
   3609   3619     1
   3609   3611     1
   3609   3612     1
   3610   3629     1
   3611   3628     1
   3611   3620     1
   3611   3621     1
   3612   3628     1
   3612   3620     1
   3612   3621     1
   3613   3629     1
   3614   5430     1
   3614   3626     1
   3614   3627     1
   3615   5430     1
   3615   3626     1
   3615   3627     1
   3616   3629     1
   3617   5416     1
   3617   3623     1
   3617   3624     1
   3618   5416     1
   3618   3623     1
   3618   3624     1
   3622   5411     1
   3622   5412     1
   3623   5410     1
   3624   5410     1
   3625   5425     1
   3625   5426     1
   3626   5424     1
   3627   5424     1
   3630   3644     1
   3630   3645     1
   3630   3647     1
   3630   3648     1
   3630   3641     1
   3630   3642     1
   3631   3635     1
   3631   3636     1
   3631   3638     1
   3631   3639     1
   3631   3656     1
   3631   3657     1
   3632   3634     1
   3632   3637     1
   3632   3659     1
   3632   3655     1
   3632   3644     1
   3632   3645     1
   3633   3634     1
   3633   3637     1
   3633   3659     1
   3633   3655     1
   3633   3644     1
   3633   3645     1
   3634   3638     1
   3634   3639     1
   3634   3653     1
   3634   3654     1
   3635   3637     1
   3635   3659     1
   3635   3652     1
   3635   3647     1
   3635   3648     1
   3636   3637     1
   3636   3659     1
   3636   3652     1
   3636   3647     1
   3636   3648     1
   3637   3650     1
   3637   3651     1
   3638   3659     1
   3638   3649     1
   3638   3641     1
   3638   3642     1
   3639   3659     1
   3639   3649     1
   3639   3641     1
   3639   3642     1
   3640   3659     1
   3641   3658     1
   3641   3650     1
   3641   3651     1
   3642   3658     1
   3642   3650     1
   3642   3651     1
   3643   3659     1
   3644   5458     1
   3644   3656     1
   3644   3657     1
   3645   5458     1
   3645   3656     1
   3645   3657     1
   3646   3659     1
   3647   5444     1
   3647   3653     1
   3647   3654     1
   3648   5444     1
   3648   3653     1
   3648   3654     1
   3652   5439     1
   3652   5440     1
   3653   5438     1
   3654   5438     1
   3655   5453     1
   3655   5454     1
   3656   5452     1
   3657   5452     1
   3660   3674     1
   3660   3675     1
   3660   3677     1
   3660   3678     1
   3660   3671     1
   3660   3672     1
   3661   3665     1
   3661   3666     1
   3661   3668     1
   3661   3669     1
   3661   3686     1
   3661   3687     1
   3662   3664     1
   3662   3667     1
   3662   3689     1
   3662   3685     1
   3662   3674     1
   3662   3675     1
   3663   3664     1
   3663   3667     1
   3663   3689     1
   3663   3685     1
   3663   3674     1
   3663   3675     1
   3664   3668     1
   3664   3669     1
   3664   3683     1
   3664   3684     1
   3665   3667     1
   3665   3689     1
   3665   3682     1
   3665   3677     1
   3665   3678     1
   3666   3667     1
   3666   3689     1
   3666   3682     1
   3666   3677     1
   3666   3678     1
   3667   3680     1
   3667   3681     1
   3668   3689     1
   3668   3679     1
   3668   3671     1
   3668   3672     1
   3669   3689     1
   3669   3679     1
   3669   3671     1
   3669   3672     1
   3670   3689     1
   3671   3688     1
   3671   3680     1
   3671   3681     1
   3672   3688     1
   3672   3680     1
   3672   3681     1
   3673   3689     1
   3674   5486     1
   3674   3686     1
   3674   3687     1
   3675   5486     1
   3675   3686     1
   3675   3687     1
   3676   3689     1
   3677   5472     1
   3677   3683     1
   3677   3684     1
   3678   5472     1
   3678   3683     1
   3678   3684     1
   3682   5467     1
   3682   5468     1
   3683   5466     1
   3684   5466     1
   3685   5481     1
   3685   5482     1
   3686   5480     1
   3687   5480     1
   3690   3704     1
   3690   3705     1
   3690   3707     1
   3690   3708     1
   3690   3701     1
   3690   3702     1
   3691   3695     1
   3691   3696     1
   3691   3698     1
   3691   3699     1
   3691   3716     1
   3691   3717     1
   3692   3694     1
   3692   3697     1
   3692   3719     1
   3692   3715     1
   3692   3704     1
   3692   3705     1
   3693   3694     1
   3693   3697     1
   3693   3719     1
   3693   3715     1
   3693   3704     1
   3693   3705     1
   3694   3698     1
   3694   3699     1
   3694   3713     1
   3694   3714     1
   3695   3697     1
   3695   3719     1
   3695   3712     1
   3695   3707     1
   3695   3708     1
   3696   3697     1
   3696   3719     1
   3696   3712     1
   3696   3707     1
   3696   3708     1
   3697   3710     1
   3697   3711     1
   3698   3719     1
   3698   3709     1
   3698   3701     1
   3698   3702     1
   3699   3719     1
   3699   3709     1
   3699   3701     1
   3699   3702     1
   3700   3719     1
   3701   3718     1
   3701   3710     1
   3701   3711     1
   3702   3718     1
   3702   3710     1
   3702   3711     1
   3703   3719     1
   3704   5514     1
   3704   3716     1
   3704   3717     1
   3705   5514     1
   3705   3716     1
   3705   3717     1
   3706   3719     1
   3707   5500     1
   3707   3713     1
   3707   3714     1
   3708   5500     1
   3708   3713     1
   3708   3714     1
   3712   5495     1
   3712   5496     1
   3713   5494     1
   3714   5494     1
   3715   5509     1
   3715   5510     1
   3716   5508     1
   3717   5508     1
   3720   3734     1
   3720   3735     1
   3720   3737     1
   3720   3738     1
   3720   3731     1
   3720   3732     1
   3721   3725     1
   3721   3726     1
   3721   3728     1
   3721   3729     1
   3721   3746     1
   3721   3747     1
   3722   3724     1
   3722   3727     1
   3722   3749     1
   3722   3745     1
   3722   3734     1
   3722   3735     1
   3723   3724     1
   3723   3727     1
   3723   3749     1
   3723   3745     1
   3723   3734     1
   3723   3735     1
   3724   3728     1
   3724   3729     1
   3724   3743     1
   3724   3744     1
   3725   3727     1
   3725   3749     1
   3725   3742     1
   3725   3737     1
   3725   3738     1
   3726   3727     1
   3726   3749     1
   3726   3742     1
   3726   3737     1
   3726   3738     1
   3727   3740     1
   3727   3741     1
   3728   3749     1
   3728   3739     1
   3728   3731     1
   3728   3732     1
   3729   3749     1
   3729   3739     1
   3729   3731     1
   3729   3732     1
   3730   3749     1
   3731   3748     1
   3731   3740     1
   3731   3741     1
   3732   3748     1
   3732   3740     1
   3732   3741     1
   3733   3749     1
   3734   5542     1
   3734   3746     1
   3734   3747     1
   3735   5542     1
   3735   3746     1
   3735   3747     1
   3736   3749     1
   3737   5528     1
   3737   3743     1
   3737   3744     1
   3738   5528     1
   3738   3743     1
   3738   3744     1
   3742   5523     1
   3742   5524     1
   3743   5522     1
   3744   5522     1
   3745   5537     1
   3745   5538     1
   3746   5536     1
   3747   5536     1
   3750   3764     1
   3750   3765     1
   3750   3767     1
   3750   3768     1
   3750   3761     1
   3750   3762     1
   3751   3755     1
   3751   3756     1
   3751   3758     1
   3751   3759     1
   3751   3776     1
   3751   3777     1
   3752   3754     1
   3752   3757     1
   3752   3779     1
   3752   3775     1
   3752   3764     1
   3752   3765     1
   3753   3754     1
   3753   3757     1
   3753   3779     1
   3753   3775     1
   3753   3764     1
   3753   3765     1
   3754   3758     1
   3754   3759     1
   3754   3773     1
   3754   3774     1
   3755   3757     1
   3755   3779     1
   3755   3772     1
   3755   3767     1
   3755   3768     1
   3756   3757     1
   3756   3779     1
   3756   3772     1
   3756   3767     1
   3756   3768     1
   3757   3770     1
   3757   3771     1
   3758   3779     1
   3758   3769     1
   3758   3761     1
   3758   3762     1
   3759   3779     1
   3759   3769     1
   3759   3761     1
   3759   3762     1
   3760   3779     1
   3761   3778     1
   3761   3770     1
   3761   3771     1
   3762   3778     1
   3762   3770     1
   3762   3771     1
   3763   3779     1
   3764   5570     1
   3764   3776     1
   3764   3777     1
   3765   5570     1
   3765   3776     1
   3765   3777     1
   3766   3779     1
   3767   5556     1
   3767   3773     1
   3767   3774     1
   3768   5556     1
   3768   3773     1
   3768   3774     1
   3772   5551     1
   3772   5552     1
   3773   5550     1
   3774   5550     1
   3775   5565     1
   3775   5566     1
   3776   5564     1
   3777   5564     1
   3780   3787     1
   3780   3788     1
   3781   3786     1
   3781   3784     1
   3781   3785     1
   3781   3790     1
   3781   3791     1
   3781   3793     1
   3782   3786     1
   3782   3784     1
   3782   3785     1
   3782   3790     1
   3782   3791     1
   3782   3793     1
   3783   3790     1
   3783   3791     1
   3783   3793     1
   3784   3789     1
   3784   3792     1
   3784   3787     1
   3784   3788     1
   3785   3789     1
   3785   3792     1
   3785   3787     1
   3785   3788     1
   3794   3801     1
   3794   3802     1
   3795   3800     1
   3795   3798     1
   3795   3799     1
   3795   3804     1
   3795   3805     1
   3795   3807     1
   3796   3800     1
   3796   3798     1
   3796   3799     1
   3796   3804     1
   3796   3805     1
   3796   3807     1
   3797   3804     1
   3797   3805     1
   3797   3807     1
   3798   3806     1
   3798   3801     1
   3798   3802     1
   3798   3803     1
   3799   3806     1
   3799   3801     1
   3799   3802     1
   3799   3803     1
   3808   3815     1
   3808   3816     1
   3809   3814     1
   3809   3812     1
   3809   3813     1
   3809   3818     1
   3809   3819     1
   3809   3821     1
   3810   3814     1
   3810   3812     1
   3810   3813     1
   3810   3818     1
   3810   3819     1
   3810   3821     1
   3811   3818     1
   3811   3819     1
   3811   3821     1
   3812   3817     1
   3812   3820     1
   3812   3815     1
   3812   3816     1
   3813   3817     1
   3813   3820     1
   3813   3815     1
   3813   3816     1
   3822   3829     1
   3822   3830     1
   3823   3828     1
   3823   3826     1
   3823   3827     1
   3823   3832     1
   3823   3833     1
   3823   3835     1
   3824   3828     1
   3824   3826     1
   3824   3827     1
   3824   3832     1
   3824   3833     1
   3824   3835     1
   3825   3832     1
   3825   3833     1
   3825   3835     1
   3826   3834     1
   3826   3829     1
   3826   3830     1
   3826   3831     1
   3827   3834     1
   3827   3829     1
   3827   3830     1
   3827   3831     1
   3836   3843     1
   3836   3844     1
   3837   3842     1
   3837   3840     1
   3837   3841     1
   3837   3846     1
   3837   3847     1
   3837   3849     1
   3838   3842     1
   3838   3840     1
   3838   3841     1
   3838   3846     1
   3838   3847     1
   3838   3849     1
   3839   3846     1
   3839   3847     1
   3839   3849     1
   3840   3845     1
   3840   3848     1
   3840   3843     1
   3840   3844     1
   3841   3845     1
   3841   3848     1
   3841   3843     1
   3841   3844     1
   3850   3857     1
   3850   3858     1
   3851   3856     1
   3851   3854     1
   3851   3855     1
   3851   3860     1
   3851   3861     1
   3851   3863     1
   3852   3856     1
   3852   3854     1
   3852   3855     1
   3852   3860     1
   3852   3861     1
   3852   3863     1
   3853   3860     1
   3853   3861     1
   3853   3863     1
   3854   3862     1
   3854   3857     1
   3854   3858     1
   3854   3859     1
   3855   3862     1
   3855   3857     1
   3855   3858     1
   3855   3859     1
   3864   3871     1
   3864   3872     1
   3865   3870     1
   3865   3868     1
   3865   3869     1
   3865   3874     1
   3865   3875     1
   3865   3877     1
   3866   3870     1
   3866   3868     1
   3866   3869     1
   3866   3874     1
   3866   3875     1
   3866   3877     1
   3867   3874     1
   3867   3875     1
   3867   3877     1
   3868   3873     1
   3868   3876     1
   3868   3871     1
   3868   3872     1
   3869   3873     1
   3869   3876     1
   3869   3871     1
   3869   3872     1
   3878   3885     1
   3878   3886     1
   3879   3884     1
   3879   3882     1
   3879   3883     1
   3879   3888     1
   3879   3889     1
   3879   3891     1
   3880   3884     1
   3880   3882     1
   3880   3883     1
   3880   3888     1
   3880   3889     1
   3880   3891     1
   3881   3888     1
   3881   3889     1
   3881   3891     1
   3882   3890     1
   3882   3885     1
   3882   3886     1
   3882   3887     1
   3883   3890     1
   3883   3885     1
   3883   3886     1
   3883   3887     1
   3892   3899     1
   3892   3900     1
   3893   3898     1
   3893   3896     1
   3893   3897     1
   3893   3902     1
   3893   3903     1
   3893   3905     1
   3894   3898     1
   3894   3896     1
   3894   3897     1
   3894   3902     1
   3894   3903     1
   3894   3905     1
   3895   3902     1
   3895   3903     1
   3895   3905     1
   3896   3901     1
   3896   3904     1
   3896   3899     1
   3896   3900     1
   3897   3901     1
   3897   3904     1
   3897   3899     1
   3897   3900     1
   3906   3913     1
   3906   3914     1
   3907   3912     1
   3907   3910     1
   3907   3911     1
   3907   3916     1
   3907   3917     1
   3907   3919     1
   3908   3912     1
   3908   3910     1
   3908   3911     1
   3908   3916     1
   3908   3917     1
   3908   3919     1
   3909   3916     1
   3909   3917     1
   3909   3919     1
   3910   3918     1
   3910   3913     1
   3910   3914     1
   3910   3915     1
   3911   3918     1
   3911   3913     1
   3911   3914     1
   3911   3915     1
   3920   3927     1
   3920   3928     1
   3921   3926     1
   3921   3924     1
   3921   3925     1
   3921   3930     1
   3921   3931     1
   3921   3933     1
   3922   3926     1
   3922   3924     1
   3922   3925     1
   3922   3930     1
   3922   3931     1
   3922   3933     1
   3923   3930     1
   3923   3931     1
   3923   3933     1
   3924   3929     1
   3924   3932     1
   3924   3927     1
   3924   3928     1
   3925   3929     1
   3925   3932     1
   3925   3927     1
   3925   3928     1
   3934   3941     1
   3934   3942     1
   3935   3940     1
   3935   3938     1
   3935   3939     1
   3935   3944     1
   3935   3945     1
   3935   3947     1
   3936   3940     1
   3936   3938     1
   3936   3939     1
   3936   3944     1
   3936   3945     1
   3936   3947     1
   3937   3944     1
   3937   3945     1
   3937   3947     1
   3938   3946     1
   3938   3941     1
   3938   3942     1
   3938   3943     1
   3939   3946     1
   3939   3941     1
   3939   3942     1
   3939   3943     1
   3948   3955     1
   3948   3956     1
   3949   3954     1
   3949   3952     1
   3949   3953     1
   3949   3958     1
   3949   3959     1
   3949   3961     1
   3950   3954     1
   3950   3952     1
   3950   3953     1
   3950   3958     1
   3950   3959     1
   3950   3961     1
   3951   3958     1
   3951   3959     1
   3951   3961     1
   3952   3957     1
   3952   3960     1
   3952   3955     1
   3952   3956     1
   3953   3957     1
   3953   3960     1
   3953   3955     1
   3953   3956     1
   3962   3969     1
   3962   3970     1
   3963   3968     1
   3963   3966     1
   3963   3967     1
   3963   3972     1
   3963   3973     1
   3963   3975     1
   3964   3968     1
   3964   3966     1
   3964   3967     1
   3964   3972     1
   3964   3973     1
   3964   3975     1
   3965   3972     1
   3965   3973     1
   3965   3975     1
   3966   3974     1
   3966   3969     1
   3966   3970     1
   3966   3971     1
   3967   3974     1
   3967   3969     1
   3967   3970     1
   3967   3971     1
   3976   3983     1
   3976   3984     1
   3977   3982     1
   3977   3980     1
   3977   3981     1
   3977   3986     1
   3977   3987     1
   3977   3989     1
   3978   3982     1
   3978   3980     1
   3978   3981     1
   3978   3986     1
   3978   3987     1
   3978   3989     1
   3979   3986     1
   3979   3987     1
   3979   3989     1
   3980   3985     1
   3980   3988     1
   3980   3983     1
   3980   3984     1
   3981   3985     1
   3981   3988     1
   3981   3983     1
   3981   3984     1
   3990   3997     1
   3990   3998     1
   3991   3996     1
   3991   3994     1
   3991   3995     1
   3991   4000     1
   3991   4001     1
   3991   4003     1
   3992   3996     1
   3992   3994     1
   3992   3995     1
   3992   4000     1
   3992   4001     1
   3992   4003     1
   3993   4000     1
   3993   4001     1
   3993   4003     1
   3994   4002     1
   3994   3997     1
   3994   3998     1
   3994   3999     1
   3995   4002     1
   3995   3997     1
   3995   3998     1
   3995   3999     1
   4004   4011     1
   4004   4012     1
   4005   4010     1
   4005   4008     1
   4005   4009     1
   4005   4014     1
   4005   4015     1
   4005   4017     1
   4006   4010     1
   4006   4008     1
   4006   4009     1
   4006   4014     1
   4006   4015     1
   4006   4017     1
   4007   4014     1
   4007   4015     1
   4007   4017     1
   4008   4013     1
   4008   4016     1
   4008   4011     1
   4008   4012     1
   4009   4013     1
   4009   4016     1
   4009   4011     1
   4009   4012     1
   4018   4025     1
   4018   4026     1
   4019   4024     1
   4019   4022     1
   4019   4023     1
   4019   4028     1
   4019   4029     1
   4019   4031     1
   4020   4024     1
   4020   4022     1
   4020   4023     1
   4020   4028     1
   4020   4029     1
   4020   4031     1
   4021   4028     1
   4021   4029     1
   4021   4031     1
   4022   4030     1
   4022   4025     1
   4022   4026     1
   4022   4027     1
   4023   4030     1
   4023   4025     1
   4023   4026     1
   4023   4027     1
   4032   4039     1
   4032   4040     1
   4033   4038     1
   4033   4036     1
   4033   4037     1
   4033   4042     1
   4033   4043     1
   4033   4045     1
   4034   4038     1
   4034   4036     1
   4034   4037     1
   4034   4042     1
   4034   4043     1
   4034   4045     1
   4035   4042     1
   4035   4043     1
   4035   4045     1
   4036   4041     1
   4036   4044     1
   4036   4039     1
   4036   4040     1
   4037   4041     1
   4037   4044     1
   4037   4039     1
   4037   4040     1
   4046   4053     1
   4046   4054     1
   4047   4052     1
   4047   4050     1
   4047   4051     1
   4047   4056     1
   4047   4057     1
   4047   4059     1
   4048   4052     1
   4048   4050     1
   4048   4051     1
   4048   4056     1
   4048   4057     1
   4048   4059     1
   4049   4056     1
   4049   4057     1
   4049   4059     1
   4050   4058     1
   4050   4053     1
   4050   4054     1
   4050   4055     1
   4051   4058     1
   4051   4053     1
   4051   4054     1
   4051   4055     1
   4060   4067     1
   4060   4068     1
   4061   4066     1
   4061   4064     1
   4061   4065     1
   4061   4070     1
   4061   4071     1
   4061   4073     1
   4062   4066     1
   4062   4064     1
   4062   4065     1
   4062   4070     1
   4062   4071     1
   4062   4073     1
   4063   4070     1
   4063   4071     1
   4063   4073     1
   4064   4069     1
   4064   4072     1
   4064   4067     1
   4064   4068     1
   4065   4069     1
   4065   4072     1
   4065   4067     1
   4065   4068     1
   4074   4081     1
   4074   4082     1
   4075   4080     1
   4075   4078     1
   4075   4079     1
   4075   4084     1
   4075   4085     1
   4075   4087     1
   4076   4080     1
   4076   4078     1
   4076   4079     1
   4076   4084     1
   4076   4085     1
   4076   4087     1
   4077   4084     1
   4077   4085     1
   4077   4087     1
   4078   4086     1
   4078   4081     1
   4078   4082     1
   4078   4083     1
   4079   4086     1
   4079   4081     1
   4079   4082     1
   4079   4083     1
   4088   4095     1
   4088   4096     1
   4089   4094     1
   4089   4092     1
   4089   4093     1
   4089   4098     1
   4089   4099     1
   4089   4101     1
   4090   4094     1
   4090   4092     1
   4090   4093     1
   4090   4098     1
   4090   4099     1
   4090   4101     1
   4091   4098     1
   4091   4099     1
   4091   4101     1
   4092   4097     1
   4092   4100     1
   4092   4095     1
   4092   4096     1
   4093   4097     1
   4093   4100     1
   4093   4095     1
   4093   4096     1
   4102   4109     1
   4102   4110     1
   4103   4108     1
   4103   4106     1
   4103   4107     1
   4103   4112     1
   4103   4113     1
   4103   4115     1
   4104   4108     1
   4104   4106     1
   4104   4107     1
   4104   4112     1
   4104   4113     1
   4104   4115     1
   4105   4112     1
   4105   4113     1
   4105   4115     1
   4106   4114     1
   4106   4109     1
   4106   4110     1
   4106   4111     1
   4107   4114     1
   4107   4109     1
   4107   4110     1
   4107   4111     1
   4116   4123     1
   4116   4124     1
   4117   4122     1
   4117   4120     1
   4117   4121     1
   4117   4126     1
   4117   4127     1
   4117   4129     1
   4118   4122     1
   4118   4120     1
   4118   4121     1
   4118   4126     1
   4118   4127     1
   4118   4129     1
   4119   4126     1
   4119   4127     1
   4119   4129     1
   4120   4125     1
   4120   4128     1
   4120   4123     1
   4120   4124     1
   4121   4125     1
   4121   4128     1
   4121   4123     1
   4121   4124     1
   4130   4137     1
   4130   4138     1
   4131   4136     1
   4131   4134     1
   4131   4135     1
   4131   4140     1
   4131   4141     1
   4131   4143     1
   4132   4136     1
   4132   4134     1
   4132   4135     1
   4132   4140     1
   4132   4141     1
   4132   4143     1
   4133   4140     1
   4133   4141     1
   4133   4143     1
   4134   4142     1
   4134   4137     1
   4134   4138     1
   4134   4139     1
   4135   4142     1
   4135   4137     1
   4135   4138     1
   4135   4139     1
   4144   4151     1
   4144   4152     1
   4145   4150     1
   4145   4148     1
   4145   4149     1
   4145   4154     1
   4145   4155     1
   4145   4157     1
   4146   4150     1
   4146   4148     1
   4146   4149     1
   4146   4154     1
   4146   4155     1
   4146   4157     1
   4147   4154     1
   4147   4155     1
   4147   4157     1
   4148   4153     1
   4148   4156     1
   4148   4151     1
   4148   4152     1
   4149   4153     1
   4149   4156     1
   4149   4151     1
   4149   4152     1
   4158   4165     1
   4158   4166     1
   4159   4164     1
   4159   4162     1
   4159   4163     1
   4159   4168     1
   4159   4169     1
   4159   4171     1
   4160   4164     1
   4160   4162     1
   4160   4163     1
   4160   4168     1
   4160   4169     1
   4160   4171     1
   4161   4168     1
   4161   4169     1
   4161   4171     1
   4162   4170     1
   4162   4165     1
   4162   4166     1
   4162   4167     1
   4163   4170     1
   4163   4165     1
   4163   4166     1
   4163   4167     1
   4172   4179     1
   4172   4180     1
   4173   4178     1
   4173   4176     1
   4173   4177     1
   4173   4182     1
   4173   4183     1
   4173   4185     1
   4174   4178     1
   4174   4176     1
   4174   4177     1
   4174   4182     1
   4174   4183     1
   4174   4185     1
   4175   4182     1
   4175   4183     1
   4175   4185     1
   4176   4181     1
   4176   4184     1
   4176   4179     1
   4176   4180     1
   4177   4181     1
   4177   4184     1
   4177   4179     1
   4177   4180     1
   4186   4193     1
   4186   4194     1
   4187   4192     1
   4187   4190     1
   4187   4191     1
   4187   4196     1
   4187   4197     1
   4187   4199     1
   4188   4192     1
   4188   4190     1
   4188   4191     1
   4188   4196     1
   4188   4197     1
   4188   4199     1
   4189   4196     1
   4189   4197     1
   4189   4199     1
   4190   4198     1
   4190   4193     1
   4190   4194     1
   4190   4195     1
   4191   4198     1
   4191   4193     1
   4191   4194     1
   4191   4195     1
   4200   4207     1
   4200   4208     1
   4201   4206     1
   4201   4204     1
   4201   4205     1
   4201   4210     1
   4201   4211     1
   4201   4213     1
   4202   4206     1
   4202   4204     1
   4202   4205     1
   4202   4210     1
   4202   4211     1
   4202   4213     1
   4203   4210     1
   4203   4211     1
   4203   4213     1
   4204   4209     1
   4204   4212     1
   4204   4207     1
   4204   4208     1
   4205   4209     1
   4205   4212     1
   4205   4207     1
   4205   4208     1
   4214   4221     1
   4214   4222     1
   4215   4220     1
   4215   4218     1
   4215   4219     1
   4215   4224     1
   4215   4225     1
   4215   4227     1
   4216   4220     1
   4216   4218     1
   4216   4219     1
   4216   4224     1
   4216   4225     1
   4216   4227     1
   4217   4224     1
   4217   4225     1
   4217   4227     1
   4218   4226     1
   4218   4221     1
   4218   4222     1
   4218   4223     1
   4219   4226     1
   4219   4221     1
   4219   4222     1
   4219   4223     1
   4228   4235     1
   4228   4236     1
   4229   4234     1
   4229   4232     1
   4229   4233     1
   4229   4238     1
   4229   4239     1
   4229   4241     1
   4230   4234     1
   4230   4232     1
   4230   4233     1
   4230   4238     1
   4230   4239     1
   4230   4241     1
   4231   4238     1
   4231   4239     1
   4231   4241     1
   4232   4237     1
   4232   4240     1
   4232   4235     1
   4232   4236     1
   4233   4237     1
   4233   4240     1
   4233   4235     1
   4233   4236     1
   4242   4249     1
   4242   4250     1
   4243   4248     1
   4243   4246     1
   4243   4247     1
   4243   4252     1
   4243   4253     1
   4243   4255     1
   4244   4248     1
   4244   4246     1
   4244   4247     1
   4244   4252     1
   4244   4253     1
   4244   4255     1
   4245   4252     1
   4245   4253     1
   4245   4255     1
   4246   4254     1
   4246   4249     1
   4246   4250     1
   4246   4251     1
   4247   4254     1
   4247   4249     1
   4247   4250     1
   4247   4251     1
   4256   4263     1
   4256   4264     1
   4257   4262     1
   4257   4260     1
   4257   4261     1
   4257   4266     1
   4257   4267     1
   4257   4269     1
   4258   4262     1
   4258   4260     1
   4258   4261     1
   4258   4266     1
   4258   4267     1
   4258   4269     1
   4259   4266     1
   4259   4267     1
   4259   4269     1
   4260   4265     1
   4260   4268     1
   4260   4263     1
   4260   4264     1
   4261   4265     1
   4261   4268     1
   4261   4263     1
   4261   4264     1
   4270   4277     1
   4270   4278     1
   4271   4276     1
   4271   4274     1
   4271   4275     1
   4271   4280     1
   4271   4281     1
   4271   4283     1
   4272   4276     1
   4272   4274     1
   4272   4275     1
   4272   4280     1
   4272   4281     1
   4272   4283     1
   4273   4280     1
   4273   4281     1
   4273   4283     1
   4274   4282     1
   4274   4277     1
   4274   4278     1
   4274   4279     1
   4275   4282     1
   4275   4277     1
   4275   4278     1
   4275   4279     1
   4284   4291     1
   4284   4292     1
   4285   4290     1
   4285   4288     1
   4285   4289     1
   4285   4294     1
   4285   4295     1
   4285   4297     1
   4286   4290     1
   4286   4288     1
   4286   4289     1
   4286   4294     1
   4286   4295     1
   4286   4297     1
   4287   4294     1
   4287   4295     1
   4287   4297     1
   4288   4293     1
   4288   4296     1
   4288   4291     1
   4288   4292     1
   4289   4293     1
   4289   4296     1
   4289   4291     1
   4289   4292     1
   4298   4305     1
   4298   4306     1
   4299   4304     1
   4299   4302     1
   4299   4303     1
   4299   4308     1
   4299   4309     1
   4299   4311     1
   4300   4304     1
   4300   4302     1
   4300   4303     1
   4300   4308     1
   4300   4309     1
   4300   4311     1
   4301   4308     1
   4301   4309     1
   4301   4311     1
   4302   4310     1
   4302   4305     1
   4302   4306     1
   4302   4307     1
   4303   4310     1
   4303   4305     1
   4303   4306     1
   4303   4307     1
   4312   4319     1
   4312   4320     1
   4313   4318     1
   4313   4316     1
   4313   4317     1
   4313   4322     1
   4313   4323     1
   4313   4325     1
   4314   4318     1
   4314   4316     1
   4314   4317     1
   4314   4322     1
   4314   4323     1
   4314   4325     1
   4315   4322     1
   4315   4323     1
   4315   4325     1
   4316   4321     1
   4316   4324     1
   4316   4319     1
   4316   4320     1
   4317   4321     1
   4317   4324     1
   4317   4319     1
   4317   4320     1
   4326   4333     1
   4326   4334     1
   4327   4332     1
   4327   4330     1
   4327   4331     1
   4327   4336     1
   4327   4337     1
   4327   4339     1
   4328   4332     1
   4328   4330     1
   4328   4331     1
   4328   4336     1
   4328   4337     1
   4328   4339     1
   4329   4336     1
   4329   4337     1
   4329   4339     1
   4330   4338     1
   4330   4333     1
   4330   4334     1
   4330   4335     1
   4331   4338     1
   4331   4333     1
   4331   4334     1
   4331   4335     1
   4340   4347     1
   4340   4348     1
   4341   4346     1
   4341   4344     1
   4341   4345     1
   4341   4350     1
   4341   4351     1
   4341   4353     1
   4342   4346     1
   4342   4344     1
   4342   4345     1
   4342   4350     1
   4342   4351     1
   4342   4353     1
   4343   4350     1
   4343   4351     1
   4343   4353     1
   4344   4349     1
   4344   4352     1
   4344   4347     1
   4344   4348     1
   4345   4349     1
   4345   4352     1
   4345   4347     1
   4345   4348     1
   4354   4361     1
   4354   4362     1
   4355   4360     1
   4355   4358     1
   4355   4359     1
   4355   4364     1
   4355   4365     1
   4355   4367     1
   4356   4360     1
   4356   4358     1
   4356   4359     1
   4356   4364     1
   4356   4365     1
   4356   4367     1
   4357   4364     1
   4357   4365     1
   4357   4367     1
   4358   4366     1
   4358   4361     1
   4358   4362     1
   4358   4363     1
   4359   4366     1
   4359   4361     1
   4359   4362     1
   4359   4363     1
   4368   4375     1
   4368   4376     1
   4369   4374     1
   4369   4372     1
   4369   4373     1
   4369   4378     1
   4369   4379     1
   4369   4381     1
   4370   4374     1
   4370   4372     1
   4370   4373     1
   4370   4378     1
   4370   4379     1
   4370   4381     1
   4371   4378     1
   4371   4379     1
   4371   4381     1
   4372   4377     1
   4372   4380     1
   4372   4375     1
   4372   4376     1
   4373   4377     1
   4373   4380     1
   4373   4375     1
   4373   4376     1
   4382   4389     1
   4382   4390     1
   4383   4388     1
   4383   4386     1
   4383   4387     1
   4383   4392     1
   4383   4393     1
   4383   4395     1
   4384   4388     1
   4384   4386     1
   4384   4387     1
   4384   4392     1
   4384   4393     1
   4384   4395     1
   4385   4392     1
   4385   4393     1
   4385   4395     1
   4386   4394     1
   4386   4389     1
   4386   4390     1
   4386   4391     1
   4387   4394     1
   4387   4389     1
   4387   4390     1
   4387   4391     1
   4396   4403     1
   4396   4404     1
   4397   4402     1
   4397   4400     1
   4397   4401     1
   4397   4406     1
   4397   4407     1
   4397   4409     1
   4398   4402     1
   4398   4400     1
   4398   4401     1
   4398   4406     1
   4398   4407     1
   4398   4409     1
   4399   4406     1
   4399   4407     1
   4399   4409     1
   4400   4405     1
   4400   4408     1
   4400   4403     1
   4400   4404     1
   4401   4405     1
   4401   4408     1
   4401   4403     1
   4401   4404     1
   4410   4417     1
   4410   4418     1
   4411   4416     1
   4411   4414     1
   4411   4415     1
   4411   4420     1
   4411   4421     1
   4411   4423     1
   4412   4416     1
   4412   4414     1
   4412   4415     1
   4412   4420     1
   4412   4421     1
   4412   4423     1
   4413   4420     1
   4413   4421     1
   4413   4423     1
   4414   4422     1
   4414   4417     1
   4414   4418     1
   4414   4419     1
   4415   4422     1
   4415   4417     1
   4415   4418     1
   4415   4419     1
   4424   4431     1
   4424   4432     1
   4425   4430     1
   4425   4428     1
   4425   4429     1
   4425   4434     1
   4425   4435     1
   4425   4437     1
   4426   4430     1
   4426   4428     1
   4426   4429     1
   4426   4434     1
   4426   4435     1
   4426   4437     1
   4427   4434     1
   4427   4435     1
   4427   4437     1
   4428   4433     1
   4428   4436     1
   4428   4431     1
   4428   4432     1
   4429   4433     1
   4429   4436     1
   4429   4431     1
   4429   4432     1
   4438   4445     1
   4438   4446     1
   4439   4444     1
   4439   4442     1
   4439   4443     1
   4439   4448     1
   4439   4449     1
   4439   4451     1
   4440   4444     1
   4440   4442     1
   4440   4443     1
   4440   4448     1
   4440   4449     1
   4440   4451     1
   4441   4448     1
   4441   4449     1
   4441   4451     1
   4442   4450     1
   4442   4445     1
   4442   4446     1
   4442   4447     1
   4443   4450     1
   4443   4445     1
   4443   4446     1
   4443   4447     1
   4452   4459     1
   4452   4460     1
   4453   4458     1
   4453   4456     1
   4453   4457     1
   4453   4462     1
   4453   4463     1
   4453   4465     1
   4454   4458     1
   4454   4456     1
   4454   4457     1
   4454   4462     1
   4454   4463     1
   4454   4465     1
   4455   4462     1
   4455   4463     1
   4455   4465     1
   4456   4461     1
   4456   4464     1
   4456   4459     1
   4456   4460     1
   4457   4461     1
   4457   4464     1
   4457   4459     1
   4457   4460     1
   4466   4473     1
   4466   4474     1
   4467   4472     1
   4467   4470     1
   4467   4471     1
   4467   4476     1
   4467   4477     1
   4467   4479     1
   4468   4472     1
   4468   4470     1
   4468   4471     1
   4468   4476     1
   4468   4477     1
   4468   4479     1
   4469   4476     1
   4469   4477     1
   4469   4479     1
   4470   4478     1
   4470   4473     1
   4470   4474     1
   4470   4475     1
   4471   4478     1
   4471   4473     1
   4471   4474     1
   4471   4475     1
   4480   4487     1
   4480   4488     1
   4481   4486     1
   4481   4484     1
   4481   4485     1
   4481   4490     1
   4481   4491     1
   4481   4493     1
   4482   4486     1
   4482   4484     1
   4482   4485     1
   4482   4490     1
   4482   4491     1
   4482   4493     1
   4483   4490     1
   4483   4491     1
   4483   4493     1
   4484   4489     1
   4484   4492     1
   4484   4487     1
   4484   4488     1
   4485   4489     1
   4485   4492     1
   4485   4487     1
   4485   4488     1
   4494   4501     1
   4494   4502     1
   4495   4500     1
   4495   4498     1
   4495   4499     1
   4495   4504     1
   4495   4505     1
   4495   4507     1
   4496   4500     1
   4496   4498     1
   4496   4499     1
   4496   4504     1
   4496   4505     1
   4496   4507     1
   4497   4504     1
   4497   4505     1
   4497   4507     1
   4498   4506     1
   4498   4501     1
   4498   4502     1
   4498   4503     1
   4499   4506     1
   4499   4501     1
   4499   4502     1
   4499   4503     1
   4508   4515     1
   4508   4516     1
   4509   4514     1
   4509   4512     1
   4509   4513     1
   4509   4518     1
   4509   4519     1
   4509   4521     1
   4510   4514     1
   4510   4512     1
   4510   4513     1
   4510   4518     1
   4510   4519     1
   4510   4521     1
   4511   4518     1
   4511   4519     1
   4511   4521     1
   4512   4517     1
   4512   4520     1
   4512   4515     1
   4512   4516     1
   4513   4517     1
   4513   4520     1
   4513   4515     1
   4513   4516     1
   4522   4529     1
   4522   4530     1
   4523   4528     1
   4523   4526     1
   4523   4527     1
   4523   4532     1
   4523   4533     1
   4523   4535     1
   4524   4528     1
   4524   4526     1
   4524   4527     1
   4524   4532     1
   4524   4533     1
   4524   4535     1
   4525   4532     1
   4525   4533     1
   4525   4535     1
   4526   4534     1
   4526   4529     1
   4526   4530     1
   4526   4531     1
   4527   4534     1
   4527   4529     1
   4527   4530     1
   4527   4531     1
   4536   4543     1
   4536   4544     1
   4537   4542     1
   4537   4540     1
   4537   4541     1
   4537   4546     1
   4537   4547     1
   4537   4549     1
   4538   4542     1
   4538   4540     1
   4538   4541     1
   4538   4546     1
   4538   4547     1
   4538   4549     1
   4539   4546     1
   4539   4547     1
   4539   4549     1
   4540   4545     1
   4540   4548     1
   4540   4543     1
   4540   4544     1
   4541   4545     1
   4541   4548     1
   4541   4543     1
   4541   4544     1
   4550   4557     1
   4550   4558     1
   4551   4556     1
   4551   4554     1
   4551   4555     1
   4551   4560     1
   4551   4561     1
   4551   4563     1
   4552   4556     1
   4552   4554     1
   4552   4555     1
   4552   4560     1
   4552   4561     1
   4552   4563     1
   4553   4560     1
   4553   4561     1
   4553   4563     1
   4554   4562     1
   4554   4557     1
   4554   4558     1
   4554   4559     1
   4555   4562     1
   4555   4557     1
   4555   4558     1
   4555   4559     1
   4564   4571     1
   4564   4572     1
   4565   4570     1
   4565   4568     1
   4565   4569     1
   4565   4574     1
   4565   4575     1
   4565   4577     1
   4566   4570     1
   4566   4568     1
   4566   4569     1
   4566   4574     1
   4566   4575     1
   4566   4577     1
   4567   4574     1
   4567   4575     1
   4567   4577     1
   4568   4573     1
   4568   4576     1
   4568   4571     1
   4568   4572     1
   4569   4573     1
   4569   4576     1
   4569   4571     1
   4569   4572     1
   4578   4585     1
   4578   4586     1
   4579   4584     1
   4579   4582     1
   4579   4583     1
   4579   4588     1
   4579   4589     1
   4579   4591     1
   4580   4584     1
   4580   4582     1
   4580   4583     1
   4580   4588     1
   4580   4589     1
   4580   4591     1
   4581   4588     1
   4581   4589     1
   4581   4591     1
   4582   4590     1
   4582   4585     1
   4582   4586     1
   4582   4587     1
   4583   4590     1
   4583   4585     1
   4583   4586     1
   4583   4587     1
   4592   4599     1
   4592   4600     1
   4593   4598     1
   4593   4596     1
   4593   4597     1
   4593   4602     1
   4593   4603     1
   4593   4605     1
   4594   4598     1
   4594   4596     1
   4594   4597     1
   4594   4602     1
   4594   4603     1
   4594   4605     1
   4595   4602     1
   4595   4603     1
   4595   4605     1
   4596   4601     1
   4596   4604     1
   4596   4599     1
   4596   4600     1
   4597   4601     1
   4597   4604     1
   4597   4599     1
   4597   4600     1
   4606   4613     1
   4606   4614     1
   4607   4612     1
   4607   4610     1
   4607   4611     1
   4607   4616     1
   4607   4617     1
   4607   4619     1
   4608   4612     1
   4608   4610     1
   4608   4611     1
   4608   4616     1
   4608   4617     1
   4608   4619     1
   4609   4616     1
   4609   4617     1
   4609   4619     1
   4610   4618     1
   4610   4613     1
   4610   4614     1
   4610   4615     1
   4611   4618     1
   4611   4613     1
   4611   4614     1
   4611   4615     1
   4620   4627     1
   4620   4628     1
   4621   4626     1
   4621   4624     1
   4621   4625     1
   4621   4630     1
   4621   4631     1
   4621   4633     1
   4622   4626     1
   4622   4624     1
   4622   4625     1
   4622   4630     1
   4622   4631     1
   4622   4633     1
   4623   4630     1
   4623   4631     1
   4623   4633     1
   4624   4629     1
   4624   4632     1
   4624   4627     1
   4624   4628     1
   4625   4629     1
   4625   4632     1
   4625   4627     1
   4625   4628     1
   4634   4641     1
   4634   4642     1
   4635   4640     1
   4635   4638     1
   4635   4639     1
   4635   4644     1
   4635   4645     1
   4635   4647     1
   4636   4640     1
   4636   4638     1
   4636   4639     1
   4636   4644     1
   4636   4645     1
   4636   4647     1
   4637   4644     1
   4637   4645     1
   4637   4647     1
   4638   4646     1
   4638   4641     1
   4638   4642     1
   4638   4643     1
   4639   4646     1
   4639   4641     1
   4639   4642     1
   4639   4643     1
   4648   4655     1
   4648   4656     1
   4649   4654     1
   4649   4652     1
   4649   4653     1
   4649   4658     1
   4649   4659     1
   4649   4661     1
   4650   4654     1
   4650   4652     1
   4650   4653     1
   4650   4658     1
   4650   4659     1
   4650   4661     1
   4651   4658     1
   4651   4659     1
   4651   4661     1
   4652   4657     1
   4652   4660     1
   4652   4655     1
   4652   4656     1
   4653   4657     1
   4653   4660     1
   4653   4655     1
   4653   4656     1
   4662   4669     1
   4662   4670     1
   4663   4668     1
   4663   4666     1
   4663   4667     1
   4663   4672     1
   4663   4673     1
   4663   4675     1
   4664   4668     1
   4664   4666     1
   4664   4667     1
   4664   4672     1
   4664   4673     1
   4664   4675     1
   4665   4672     1
   4665   4673     1
   4665   4675     1
   4666   4674     1
   4666   4669     1
   4666   4670     1
   4666   4671     1
   4667   4674     1
   4667   4669     1
   4667   4670     1
   4667   4671     1
   4676   4683     1
   4676   4684     1
   4677   4682     1
   4677   4680     1
   4677   4681     1
   4677   4686     1
   4677   4687     1
   4677   4689     1
   4678   4682     1
   4678   4680     1
   4678   4681     1
   4678   4686     1
   4678   4687     1
   4678   4689     1
   4679   4686     1
   4679   4687     1
   4679   4689     1
   4680   4685     1
   4680   4688     1
   4680   4683     1
   4680   4684     1
   4681   4685     1
   4681   4688     1
   4681   4683     1
   4681   4684     1
   4690   4697     1
   4690   4698     1
   4691   4696     1
   4691   4694     1
   4691   4695     1
   4691   4700     1
   4691   4701     1
   4691   4703     1
   4692   4696     1
   4692   4694     1
   4692   4695     1
   4692   4700     1
   4692   4701     1
   4692   4703     1
   4693   4700     1
   4693   4701     1
   4693   4703     1
   4694   4702     1
   4694   4697     1
   4694   4698     1
   4694   4699     1
   4695   4702     1
   4695   4697     1
   4695   4698     1
   4695   4699     1
   4704   4711     1
   4704   4712     1
   4705   4710     1
   4705   4708     1
   4705   4709     1
   4705   4714     1
   4705   4715     1
   4705   4717     1
   4706   4710     1
   4706   4708     1
   4706   4709     1
   4706   4714     1
   4706   4715     1
   4706   4717     1
   4707   4714     1
   4707   4715     1
   4707   4717     1
   4708   4713     1
   4708   4716     1
   4708   4711     1
   4708   4712     1
   4709   4713     1
   4709   4716     1
   4709   4711     1
   4709   4712     1
   4718   4725     1
   4718   4726     1
   4719   4724     1
   4719   4722     1
   4719   4723     1
   4719   4728     1
   4719   4729     1
   4719   4731     1
   4720   4724     1
   4720   4722     1
   4720   4723     1
   4720   4728     1
   4720   4729     1
   4720   4731     1
   4721   4728     1
   4721   4729     1
   4721   4731     1
   4722   4730     1
   4722   4725     1
   4722   4726     1
   4722   4727     1
   4723   4730     1
   4723   4725     1
   4723   4726     1
   4723   4727     1
   4732   4739     1
   4732   4740     1
   4733   4738     1
   4733   4736     1
   4733   4737     1
   4733   4742     1
   4733   4743     1
   4733   4745     1
   4734   4738     1
   4734   4736     1
   4734   4737     1
   4734   4742     1
   4734   4743     1
   4734   4745     1
   4735   4742     1
   4735   4743     1
   4735   4745     1
   4736   4741     1
   4736   4744     1
   4736   4739     1
   4736   4740     1
   4737   4741     1
   4737   4744     1
   4737   4739     1
   4737   4740     1
   4746   4753     1
   4746   4754     1
   4747   4752     1
   4747   4750     1
   4747   4751     1
   4747   4756     1
   4747   4757     1
   4747   4759     1
   4748   4752     1
   4748   4750     1
   4748   4751     1
   4748   4756     1
   4748   4757     1
   4748   4759     1
   4749   4756     1
   4749   4757     1
   4749   4759     1
   4750   4758     1
   4750   4753     1
   4750   4754     1
   4750   4755     1
   4751   4758     1
   4751   4753     1
   4751   4754     1
   4751   4755     1
   4760   4767     1
   4760   4768     1
   4761   4766     1
   4761   4764     1
   4761   4765     1
   4761   4770     1
   4761   4771     1
   4761   4773     1
   4762   4766     1
   4762   4764     1
   4762   4765     1
   4762   4770     1
   4762   4771     1
   4762   4773     1
   4763   4770     1
   4763   4771     1
   4763   4773     1
   4764   4769     1
   4764   4772     1
   4764   4767     1
   4764   4768     1
   4765   4769     1
   4765   4772     1
   4765   4767     1
   4765   4768     1
   4774   4781     1
   4774   4782     1
   4775   4780     1
   4775   4778     1
   4775   4779     1
   4775   4784     1
   4775   4785     1
   4775   4787     1
   4776   4780     1
   4776   4778     1
   4776   4779     1
   4776   4784     1
   4776   4785     1
   4776   4787     1
   4777   4784     1
   4777   4785     1
   4777   4787     1
   4778   4786     1
   4778   4781     1
   4778   4782     1
   4778   4783     1
   4779   4786     1
   4779   4781     1
   4779   4782     1
   4779   4783     1
   4788   4795     1
   4788   4796     1
   4789   4794     1
   4789   4792     1
   4789   4793     1
   4789   4798     1
   4789   4799     1
   4789   4801     1
   4790   4794     1
   4790   4792     1
   4790   4793     1
   4790   4798     1
   4790   4799     1
   4790   4801     1
   4791   4798     1
   4791   4799     1
   4791   4801     1
   4792   4797     1
   4792   4800     1
   4792   4795     1
   4792   4796     1
   4793   4797     1
   4793   4800     1
   4793   4795     1
   4793   4796     1
   4802   4809     1
   4802   4810     1
   4803   4808     1
   4803   4806     1
   4803   4807     1
   4803   4812     1
   4803   4813     1
   4803   4815     1
   4804   4808     1
   4804   4806     1
   4804   4807     1
   4804   4812     1
   4804   4813     1
   4804   4815     1
   4805   4812     1
   4805   4813     1
   4805   4815     1
   4806   4814     1
   4806   4809     1
   4806   4810     1
   4806   4811     1
   4807   4814     1
   4807   4809     1
   4807   4810     1
   4807   4811     1
   4816   4823     1
   4816   4824     1
   4817   4822     1
   4817   4820     1
   4817   4821     1
   4817   4826     1
   4817   4827     1
   4817   4829     1
   4818   4822     1
   4818   4820     1
   4818   4821     1
   4818   4826     1
   4818   4827     1
   4818   4829     1
   4819   4826     1
   4819   4827     1
   4819   4829     1
   4820   4825     1
   4820   4828     1
   4820   4823     1
   4820   4824     1
   4821   4825     1
   4821   4828     1
   4821   4823     1
   4821   4824     1
   4830   4837     1
   4830   4838     1
   4831   4836     1
   4831   4834     1
   4831   4835     1
   4831   4840     1
   4831   4841     1
   4831   4843     1
   4832   4836     1
   4832   4834     1
   4832   4835     1
   4832   4840     1
   4832   4841     1
   4832   4843     1
   4833   4840     1
   4833   4841     1
   4833   4843     1
   4834   4842     1
   4834   4837     1
   4834   4838     1
   4834   4839     1
   4835   4842     1
   4835   4837     1
   4835   4838     1
   4835   4839     1
   4844   4851     1
   4844   4852     1
   4845   4850     1
   4845   4848     1
   4845   4849     1
   4845   4854     1
   4845   4855     1
   4845   4857     1
   4846   4850     1
   4846   4848     1
   4846   4849     1
   4846   4854     1
   4846   4855     1
   4846   4857     1
   4847   4854     1
   4847   4855     1
   4847   4857     1
   4848   4853     1
   4848   4856     1
   4848   4851     1
   4848   4852     1
   4849   4853     1
   4849   4856     1
   4849   4851     1
   4849   4852     1
   4858   4865     1
   4858   4866     1
   4859   4864     1
   4859   4862     1
   4859   4863     1
   4859   4868     1
   4859   4869     1
   4859   4871     1
   4860   4864     1
   4860   4862     1
   4860   4863     1
   4860   4868     1
   4860   4869     1
   4860   4871     1
   4861   4868     1
   4861   4869     1
   4861   4871     1
   4862   4870     1
   4862   4865     1
   4862   4866     1
   4862   4867     1
   4863   4870     1
   4863   4865     1
   4863   4866     1
   4863   4867     1
   4872   4879     1
   4872   4880     1
   4873   4878     1
   4873   4876     1
   4873   4877     1
   4873   4882     1
   4873   4883     1
   4873   4885     1
   4874   4878     1
   4874   4876     1
   4874   4877     1
   4874   4882     1
   4874   4883     1
   4874   4885     1
   4875   4882     1
   4875   4883     1
   4875   4885     1
   4876   4881     1
   4876   4884     1
   4876   4879     1
   4876   4880     1
   4877   4881     1
   4877   4884     1
   4877   4879     1
   4877   4880     1
   4886   4893     1
   4886   4894     1
   4887   4892     1
   4887   4890     1
   4887   4891     1
   4887   4896     1
   4887   4897     1
   4887   4899     1
   4888   4892     1
   4888   4890     1
   4888   4891     1
   4888   4896     1
   4888   4897     1
   4888   4899     1
   4889   4896     1
   4889   4897     1
   4889   4899     1
   4890   4898     1
   4890   4893     1
   4890   4894     1
   4890   4895     1
   4891   4898     1
   4891   4893     1
   4891   4894     1
   4891   4895     1
   4900   4907     1
   4900   4908     1
   4901   4906     1
   4901   4904     1
   4901   4905     1
   4901   4910     1
   4901   4911     1
   4901   4913     1
   4902   4906     1
   4902   4904     1
   4902   4905     1
   4902   4910     1
   4902   4911     1
   4902   4913     1
   4903   4910     1
   4903   4911     1
   4903   4913     1
   4904   4909     1
   4904   4912     1
   4904   4907     1
   4904   4908     1
   4905   4909     1
   4905   4912     1
   4905   4907     1
   4905   4908     1
   4914   4921     1
   4914   4922     1
   4915   4920     1
   4915   4918     1
   4915   4919     1
   4915   4924     1
   4915   4925     1
   4915   4927     1
   4916   4920     1
   4916   4918     1
   4916   4919     1
   4916   4924     1
   4916   4925     1
   4916   4927     1
   4917   4924     1
   4917   4925     1
   4917   4927     1
   4918   4926     1
   4918   4921     1
   4918   4922     1
   4918   4923     1
   4919   4926     1
   4919   4921     1
   4919   4922     1
   4919   4923     1
   4928   4935     1
   4928   4936     1
   4929   4934     1
   4929   4932     1
   4929   4933     1
   4929   4938     1
   4929   4939     1
   4929   4941     1
   4930   4934     1
   4930   4932     1
   4930   4933     1
   4930   4938     1
   4930   4939     1
   4930   4941     1
   4931   4938     1
   4931   4939     1
   4931   4941     1
   4932   4937     1
   4932   4940     1
   4932   4935     1
   4932   4936     1
   4933   4937     1
   4933   4940     1
   4933   4935     1
   4933   4936     1
   4942   4949     1
   4942   4950     1
   4943   4948     1
   4943   4946     1
   4943   4947     1
   4943   4952     1
   4943   4953     1
   4943   4955     1
   4944   4948     1
   4944   4946     1
   4944   4947     1
   4944   4952     1
   4944   4953     1
   4944   4955     1
   4945   4952     1
   4945   4953     1
   4945   4955     1
   4946   4954     1
   4946   4949     1
   4946   4950     1
   4946   4951     1
   4947   4954     1
   4947   4949     1
   4947   4950     1
   4947   4951     1
   4956   4963     1
   4956   4964     1
   4957   4962     1
   4957   4960     1
   4957   4961     1
   4957   4966     1
   4957   4967     1
   4957   4969     1
   4958   4962     1
   4958   4960     1
   4958   4961     1
   4958   4966     1
   4958   4967     1
   4958   4969     1
   4959   4966     1
   4959   4967     1
   4959   4969     1
   4960   4965     1
   4960   4968     1
   4960   4963     1
   4960   4964     1
   4961   4965     1
   4961   4968     1
   4961   4963     1
   4961   4964     1
   4970   4977     1
   4970   4978     1
   4971   4976     1
   4971   4974     1
   4971   4975     1
   4971   4980     1
   4971   4981     1
   4971   4983     1
   4972   4976     1
   4972   4974     1
   4972   4975     1
   4972   4980     1
   4972   4981     1
   4972   4983     1
   4973   4980     1
   4973   4981     1
   4973   4983     1
   4974   4982     1
   4974   4977     1
   4974   4978     1
   4974   4979     1
   4975   4982     1
   4975   4977     1
   4975   4978     1
   4975   4979     1
   4984   4991     1
   4984   4992     1
   4985   4990     1
   4985   4988     1
   4985   4989     1
   4985   4994     1
   4985   4995     1
   4985   4997     1
   4986   4990     1
   4986   4988     1
   4986   4989     1
   4986   4994     1
   4986   4995     1
   4986   4997     1
   4987   4994     1
   4987   4995     1
   4987   4997     1
   4988   4993     1
   4988   4996     1
   4988   4991     1
   4988   4992     1
   4989   4993     1
   4989   4996     1
   4989   4991     1
   4989   4992     1
   4998   5005     1
   4998   5006     1
   4999   5004     1
   4999   5002     1
   4999   5003     1
   4999   5008     1
   4999   5009     1
   4999   5011     1
   5000   5004     1
   5000   5002     1
   5000   5003     1
   5000   5008     1
   5000   5009     1
   5000   5011     1
   5001   5008     1
   5001   5009     1
   5001   5011     1
   5002   5010     1
   5002   5005     1
   5002   5006     1
   5002   5007     1
   5003   5010     1
   5003   5005     1
   5003   5006     1
   5003   5007     1
   5012   5019     1
   5012   5020     1
   5013   5018     1
   5013   5016     1
   5013   5017     1
   5013   5022     1
   5013   5023     1
   5013   5025     1
   5014   5018     1
   5014   5016     1
   5014   5017     1
   5014   5022     1
   5014   5023     1
   5014   5025     1
   5015   5022     1
   5015   5023     1
   5015   5025     1
   5016   5021     1
   5016   5024     1
   5016   5019     1
   5016   5020     1
   5017   5021     1
   5017   5024     1
   5017   5019     1
   5017   5020     1
   5026   5033     1
   5026   5034     1
   5027   5032     1
   5027   5030     1
   5027   5031     1
   5027   5036     1
   5027   5037     1
   5027   5039     1
   5028   5032     1
   5028   5030     1
   5028   5031     1
   5028   5036     1
   5028   5037     1
   5028   5039     1
   5029   5036     1
   5029   5037     1
   5029   5039     1
   5030   5038     1
   5030   5033     1
   5030   5034     1
   5030   5035     1
   5031   5038     1
   5031   5033     1
   5031   5034     1
   5031   5035     1
   5040   5047     1
   5040   5048     1
   5041   5046     1
   5041   5044     1
   5041   5045     1
   5041   5050     1
   5041   5051     1
   5041   5053     1
   5042   5046     1
   5042   5044     1
   5042   5045     1
   5042   5050     1
   5042   5051     1
   5042   5053     1
   5043   5050     1
   5043   5051     1
   5043   5053     1
   5044   5049     1
   5044   5052     1
   5044   5047     1
   5044   5048     1
   5045   5049     1
   5045   5052     1
   5045   5047     1
   5045   5048     1
   5054   5061     1
   5054   5062     1
   5055   5060     1
   5055   5058     1
   5055   5059     1
   5055   5064     1
   5055   5065     1
   5055   5067     1
   5056   5060     1
   5056   5058     1
   5056   5059     1
   5056   5064     1
   5056   5065     1
   5056   5067     1
   5057   5064     1
   5057   5065     1
   5057   5067     1
   5058   5066     1
   5058   5061     1
   5058   5062     1
   5058   5063     1
   5059   5066     1
   5059   5061     1
   5059   5062     1
   5059   5063     1
   5068   5075     1
   5068   5076     1
   5069   5074     1
   5069   5072     1
   5069   5073     1
   5069   5078     1
   5069   5079     1
   5069   5081     1
   5070   5074     1
   5070   5072     1
   5070   5073     1
   5070   5078     1
   5070   5079     1
   5070   5081     1
   5071   5078     1
   5071   5079     1
   5071   5081     1
   5072   5077     1
   5072   5080     1
   5072   5075     1
   5072   5076     1
   5073   5077     1
   5073   5080     1
   5073   5075     1
   5073   5076     1
   5082   5089     1
   5082   5090     1
   5083   5088     1
   5083   5086     1
   5083   5087     1
   5083   5092     1
   5083   5093     1
   5083   5095     1
   5084   5088     1
   5084   5086     1
   5084   5087     1
   5084   5092     1
   5084   5093     1
   5084   5095     1
   5085   5092     1
   5085   5093     1
   5085   5095     1
   5086   5094     1
   5086   5089     1
   5086   5090     1
   5086   5091     1
   5087   5094     1
   5087   5089     1
   5087   5090     1
   5087   5091     1
   5096   5103     1
   5096   5104     1
   5097   5102     1
   5097   5100     1
   5097   5101     1
   5097   5106     1
   5097   5107     1
   5097   5109     1
   5098   5102     1
   5098   5100     1
   5098   5101     1
   5098   5106     1
   5098   5107     1
   5098   5109     1
   5099   5106     1
   5099   5107     1
   5099   5109     1
   5100   5105     1
   5100   5108     1
   5100   5103     1
   5100   5104     1
   5101   5105     1
   5101   5108     1
   5101   5103     1
   5101   5104     1
   5110   5117     1
   5110   5118     1
   5111   5116     1
   5111   5114     1
   5111   5115     1
   5111   5120     1
   5111   5121     1
   5111   5123     1
   5112   5116     1
   5112   5114     1
   5112   5115     1
   5112   5120     1
   5112   5121     1
   5112   5123     1
   5113   5120     1
   5113   5121     1
   5113   5123     1
   5114   5122     1
   5114   5117     1
   5114   5118     1
   5114   5119     1
   5115   5122     1
   5115   5117     1
   5115   5118     1
   5115   5119     1
   5124   5131     1
   5124   5132     1
   5125   5130     1
   5125   5128     1
   5125   5129     1
   5125   5134     1
   5125   5135     1
   5125   5137     1
   5126   5130     1
   5126   5128     1
   5126   5129     1
   5126   5134     1
   5126   5135     1
   5126   5137     1
   5127   5134     1
   5127   5135     1
   5127   5137     1
   5128   5133     1
   5128   5136     1
   5128   5131     1
   5128   5132     1
   5129   5133     1
   5129   5136     1
   5129   5131     1
   5129   5132     1
   5138   5145     1
   5138   5146     1
   5139   5144     1
   5139   5142     1
   5139   5143     1
   5139   5148     1
   5139   5149     1
   5139   5151     1
   5140   5144     1
   5140   5142     1
   5140   5143     1
   5140   5148     1
   5140   5149     1
   5140   5151     1
   5141   5148     1
   5141   5149     1
   5141   5151     1
   5142   5150     1
   5142   5145     1
   5142   5146     1
   5142   5147     1
   5143   5150     1
   5143   5145     1
   5143   5146     1
   5143   5147     1
   5152   5159     1
   5152   5160     1
   5153   5158     1
   5153   5156     1
   5153   5157     1
   5153   5162     1
   5153   5163     1
   5153   5165     1
   5154   5158     1
   5154   5156     1
   5154   5157     1
   5154   5162     1
   5154   5163     1
   5154   5165     1
   5155   5162     1
   5155   5163     1
   5155   5165     1
   5156   5161     1
   5156   5164     1
   5156   5159     1
   5156   5160     1
   5157   5161     1
   5157   5164     1
   5157   5159     1
   5157   5160     1
   5166   5173     1
   5166   5174     1
   5167   5172     1
   5167   5170     1
   5167   5171     1
   5167   5176     1
   5167   5177     1
   5167   5179     1
   5168   5172     1
   5168   5170     1
   5168   5171     1
   5168   5176     1
   5168   5177     1
   5168   5179     1
   5169   5176     1
   5169   5177     1
   5169   5179     1
   5170   5178     1
   5170   5173     1
   5170   5174     1
   5170   5175     1
   5171   5178     1
   5171   5173     1
   5171   5174     1
   5171   5175     1
   5180   5187     1
   5180   5188     1
   5181   5186     1
   5181   5184     1
   5181   5185     1
   5181   5190     1
   5181   5191     1
   5181   5193     1
   5182   5186     1
   5182   5184     1
   5182   5185     1
   5182   5190     1
   5182   5191     1
   5182   5193     1
   5183   5190     1
   5183   5191     1
   5183   5193     1
   5184   5189     1
   5184   5192     1
   5184   5187     1
   5184   5188     1
   5185   5189     1
   5185   5192     1
   5185   5187     1
   5185   5188     1
   5194   5201     1
   5194   5202     1
   5195   5200     1
   5195   5198     1
   5195   5199     1
   5195   5204     1
   5195   5205     1
   5195   5207     1
   5196   5200     1
   5196   5198     1
   5196   5199     1
   5196   5204     1
   5196   5205     1
   5196   5207     1
   5197   5204     1
   5197   5205     1
   5197   5207     1
   5198   5206     1
   5198   5201     1
   5198   5202     1
   5198   5203     1
   5199   5206     1
   5199   5201     1
   5199   5202     1
   5199   5203     1
   5208   5215     1
   5208   5216     1
   5209   5214     1
   5209   5212     1
   5209   5213     1
   5209   5218     1
   5209   5219     1
   5209   5221     1
   5210   5214     1
   5210   5212     1
   5210   5213     1
   5210   5218     1
   5210   5219     1
   5210   5221     1
   5211   5218     1
   5211   5219     1
   5211   5221     1
   5212   5217     1
   5212   5220     1
   5212   5215     1
   5212   5216     1
   5213   5217     1
   5213   5220     1
   5213   5215     1
   5213   5216     1
   5222   5229     1
   5222   5230     1
   5223   5228     1
   5223   5226     1
   5223   5227     1
   5223   5232     1
   5223   5233     1
   5223   5235     1
   5224   5228     1
   5224   5226     1
   5224   5227     1
   5224   5232     1
   5224   5233     1
   5224   5235     1
   5225   5232     1
   5225   5233     1
   5225   5235     1
   5226   5234     1
   5226   5229     1
   5226   5230     1
   5226   5231     1
   5227   5234     1
   5227   5229     1
   5227   5230     1
   5227   5231     1
   5236   5243     1
   5236   5244     1
   5237   5242     1
   5237   5240     1
   5237   5241     1
   5237   5246     1
   5237   5247     1
   5237   5249     1
   5238   5242     1
   5238   5240     1
   5238   5241     1
   5238   5246     1
   5238   5247     1
   5238   5249     1
   5239   5246     1
   5239   5247     1
   5239   5249     1
   5240   5245     1
   5240   5248     1
   5240   5243     1
   5240   5244     1
   5241   5245     1
   5241   5248     1
   5241   5243     1
   5241   5244     1
   5250   5257     1
   5250   5258     1
   5251   5256     1
   5251   5254     1
   5251   5255     1
   5251   5260     1
   5251   5261     1
   5251   5263     1
   5252   5256     1
   5252   5254     1
   5252   5255     1
   5252   5260     1
   5252   5261     1
   5252   5263     1
   5253   5260     1
   5253   5261     1
   5253   5263     1
   5254   5262     1
   5254   5257     1
   5254   5258     1
   5254   5259     1
   5255   5262     1
   5255   5257     1
   5255   5258     1
   5255   5259     1
   5264   5271     1
   5264   5272     1
   5265   5270     1
   5265   5268     1
   5265   5269     1
   5265   5274     1
   5265   5275     1
   5265   5277     1
   5266   5270     1
   5266   5268     1
   5266   5269     1
   5266   5274     1
   5266   5275     1
   5266   5277     1
   5267   5274     1
   5267   5275     1
   5267   5277     1
   5268   5273     1
   5268   5276     1
   5268   5271     1
   5268   5272     1
   5269   5273     1
   5269   5276     1
   5269   5271     1
   5269   5272     1
   5278   5285     1
   5278   5286     1
   5279   5284     1
   5279   5282     1
   5279   5283     1
   5279   5288     1
   5279   5289     1
   5279   5291     1
   5280   5284     1
   5280   5282     1
   5280   5283     1
   5280   5288     1
   5280   5289     1
   5280   5291     1
   5281   5288     1
   5281   5289     1
   5281   5291     1
   5282   5290     1
   5282   5285     1
   5282   5286     1
   5282   5287     1
   5283   5290     1
   5283   5285     1
   5283   5286     1
   5283   5287     1
   5292   5299     1
   5292   5300     1
   5293   5298     1
   5293   5296     1
   5293   5297     1
   5293   5302     1
   5293   5303     1
   5293   5305     1
   5294   5298     1
   5294   5296     1
   5294   5297     1
   5294   5302     1
   5294   5303     1
   5294   5305     1
   5295   5302     1
   5295   5303     1
   5295   5305     1
   5296   5301     1
   5296   5304     1
   5296   5299     1
   5296   5300     1
   5297   5301     1
   5297   5304     1
   5297   5299     1
   5297   5300     1
   5306   5313     1
   5306   5314     1
   5307   5312     1
   5307   5310     1
   5307   5311     1
   5307   5316     1
   5307   5317     1
   5307   5319     1
   5308   5312     1
   5308   5310     1
   5308   5311     1
   5308   5316     1
   5308   5317     1
   5308   5319     1
   5309   5316     1
   5309   5317     1
   5309   5319     1
   5310   5318     1
   5310   5313     1
   5310   5314     1
   5310   5315     1
   5311   5318     1
   5311   5313     1
   5311   5314     1
   5311   5315     1
   5320   5327     1
   5320   5328     1
   5321   5326     1
   5321   5324     1
   5321   5325     1
   5321   5330     1
   5321   5331     1
   5321   5333     1
   5322   5326     1
   5322   5324     1
   5322   5325     1
   5322   5330     1
   5322   5331     1
   5322   5333     1
   5323   5330     1
   5323   5331     1
   5323   5333     1
   5324   5329     1
   5324   5332     1
   5324   5327     1
   5324   5328     1
   5325   5329     1
   5325   5332     1
   5325   5327     1
   5325   5328     1
   5334   5341     1
   5334   5342     1
   5335   5340     1
   5335   5338     1
   5335   5339     1
   5335   5344     1
   5335   5345     1
   5335   5347     1
   5336   5340     1
   5336   5338     1
   5336   5339     1
   5336   5344     1
   5336   5345     1
   5336   5347     1
   5337   5344     1
   5337   5345     1
   5337   5347     1
   5338   5346     1
   5338   5341     1
   5338   5342     1
   5338   5343     1
   5339   5346     1
   5339   5341     1
   5339   5342     1
   5339   5343     1
   5348   5355     1
   5348   5356     1
   5349   5354     1
   5349   5352     1
   5349   5353     1
   5349   5358     1
   5349   5359     1
   5349   5361     1
   5350   5354     1
   5350   5352     1
   5350   5353     1
   5350   5358     1
   5350   5359     1
   5350   5361     1
   5351   5358     1
   5351   5359     1
   5351   5361     1
   5352   5357     1
   5352   5360     1
   5352   5355     1
   5352   5356     1
   5353   5357     1
   5353   5360     1
   5353   5355     1
   5353   5356     1
   5362   5369     1
   5362   5370     1
   5363   5368     1
   5363   5366     1
   5363   5367     1
   5363   5372     1
   5363   5373     1
   5363   5375     1
   5364   5368     1
   5364   5366     1
   5364   5367     1
   5364   5372     1
   5364   5373     1
   5364   5375     1
   5365   5372     1
   5365   5373     1
   5365   5375     1
   5366   5374     1
   5366   5369     1
   5366   5370     1
   5366   5371     1
   5367   5374     1
   5367   5369     1
   5367   5370     1
   5367   5371     1
   5376   5383     1
   5376   5384     1
   5377   5382     1
   5377   5380     1
   5377   5381     1
   5377   5386     1
   5377   5387     1
   5377   5389     1
   5378   5382     1
   5378   5380     1
   5378   5381     1
   5378   5386     1
   5378   5387     1
   5378   5389     1
   5379   5386     1
   5379   5387     1
   5379   5389     1
   5380   5385     1
   5380   5388     1
   5380   5383     1
   5380   5384     1
   5381   5385     1
   5381   5388     1
   5381   5383     1
   5381   5384     1
   5390   5397     1
   5390   5398     1
   5391   5396     1
   5391   5394     1
   5391   5395     1
   5391   5400     1
   5391   5401     1
   5391   5403     1
   5392   5396     1
   5392   5394     1
   5392   5395     1
   5392   5400     1
   5392   5401     1
   5392   5403     1
   5393   5400     1
   5393   5401     1
   5393   5403     1
   5394   5402     1
   5394   5397     1
   5394   5398     1
   5394   5399     1
   5395   5402     1
   5395   5397     1
   5395   5398     1
   5395   5399     1
   5404   5411     1
   5404   5412     1
   5405   5410     1
   5405   5408     1
   5405   5409     1
   5405   5414     1
   5405   5415     1
   5405   5417     1
   5406   5410     1
   5406   5408     1
   5406   5409     1
   5406   5414     1
   5406   5415     1
   5406   5417     1
   5407   5414     1
   5407   5415     1
   5407   5417     1
   5408   5413     1
   5408   5416     1
   5408   5411     1
   5408   5412     1
   5409   5413     1
   5409   5416     1
   5409   5411     1
   5409   5412     1
   5418   5425     1
   5418   5426     1
   5419   5424     1
   5419   5422     1
   5419   5423     1
   5419   5428     1
   5419   5429     1
   5419   5431     1
   5420   5424     1
   5420   5422     1
   5420   5423     1
   5420   5428     1
   5420   5429     1
   5420   5431     1
   5421   5428     1
   5421   5429     1
   5421   5431     1
   5422   5430     1
   5422   5425     1
   5422   5426     1
   5422   5427     1
   5423   5430     1
   5423   5425     1
   5423   5426     1
   5423   5427     1
   5432   5439     1
   5432   5440     1
   5433   5438     1
   5433   5436     1
   5433   5437     1
   5433   5442     1
   5433   5443     1
   5433   5445     1
   5434   5438     1
   5434   5436     1
   5434   5437     1
   5434   5442     1
   5434   5443     1
   5434   5445     1
   5435   5442     1
   5435   5443     1
   5435   5445     1
   5436   5441     1
   5436   5444     1
   5436   5439     1
   5436   5440     1
   5437   5441     1
   5437   5444     1
   5437   5439     1
   5437   5440     1
   5446   5453     1
   5446   5454     1
   5447   5452     1
   5447   5450     1
   5447   5451     1
   5447   5456     1
   5447   5457     1
   5447   5459     1
   5448   5452     1
   5448   5450     1
   5448   5451     1
   5448   5456     1
   5448   5457     1
   5448   5459     1
   5449   5456     1
   5449   5457     1
   5449   5459     1
   5450   5458     1
   5450   5453     1
   5450   5454     1
   5450   5455     1
   5451   5458     1
   5451   5453     1
   5451   5454     1
   5451   5455     1
   5460   5467     1
   5460   5468     1
   5461   5466     1
   5461   5464     1
   5461   5465     1
   5461   5470     1
   5461   5471     1
   5461   5473     1
   5462   5466     1
   5462   5464     1
   5462   5465     1
   5462   5470     1
   5462   5471     1
   5462   5473     1
   5463   5470     1
   5463   5471     1
   5463   5473     1
   5464   5469     1
   5464   5472     1
   5464   5467     1
   5464   5468     1
   5465   5469     1
   5465   5472     1
   5465   5467     1
   5465   5468     1
   5474   5481     1
   5474   5482     1
   5475   5480     1
   5475   5478     1
   5475   5479     1
   5475   5484     1
   5475   5485     1
   5475   5487     1
   5476   5480     1
   5476   5478     1
   5476   5479     1
   5476   5484     1
   5476   5485     1
   5476   5487     1
   5477   5484     1
   5477   5485     1
   5477   5487     1
   5478   5486     1
   5478   5481     1
   5478   5482     1
   5478   5483     1
   5479   5486     1
   5479   5481     1
   5479   5482     1
   5479   5483     1
   5488   5495     1
   5488   5496     1
   5489   5494     1
   5489   5492     1
   5489   5493     1
   5489   5498     1
   5489   5499     1
   5489   5501     1
   5490   5494     1
   5490   5492     1
   5490   5493     1
   5490   5498     1
   5490   5499     1
   5490   5501     1
   5491   5498     1
   5491   5499     1
   5491   5501     1
   5492   5497     1
   5492   5500     1
   5492   5495     1
   5492   5496     1
   5493   5497     1
   5493   5500     1
   5493   5495     1
   5493   5496     1
   5502   5509     1
   5502   5510     1
   5503   5508     1
   5503   5506     1
   5503   5507     1
   5503   5512     1
   5503   5513     1
   5503   5515     1
   5504   5508     1
   5504   5506     1
   5504   5507     1
   5504   5512     1
   5504   5513     1
   5504   5515     1
   5505   5512     1
   5505   5513     1
   5505   5515     1
   5506   5514     1
   5506   5509     1
   5506   5510     1
   5506   5511     1
   5507   5514     1
   5507   5509     1
   5507   5510     1
   5507   5511     1
   5516   5523     1
   5516   5524     1
   5517   5522     1
   5517   5520     1
   5517   5521     1
   5517   5526     1
   5517   5527     1
   5517   5529     1
   5518   5522     1
   5518   5520     1
   5518   5521     1
   5518   5526     1
   5518   5527     1
   5518   5529     1
   5519   5526     1
   5519   5527     1
   5519   5529     1
   5520   5525     1
   5520   5528     1
   5520   5523     1
   5520   5524     1
   5521   5525     1
   5521   5528     1
   5521   5523     1
   5521   5524     1
   5530   5537     1
   5530   5538     1
   5531   5536     1
   5531   5534     1
   5531   5535     1
   5531   5540     1
   5531   5541     1
   5531   5543     1
   5532   5536     1
   5532   5534     1
   5532   5535     1
   5532   5540     1
   5532   5541     1
   5532   5543     1
   5533   5540     1
   5533   5541     1
   5533   5543     1
   5534   5542     1
   5534   5537     1
   5534   5538     1
   5534   5539     1
   5535   5542     1
   5535   5537     1
   5535   5538     1
   5535   5539     1
   5544   5551     1
   5544   5552     1
   5545   5550     1
   5545   5548     1
   5545   5549     1
   5545   5554     1
   5545   5555     1
   5545   5557     1
   5546   5550     1
   5546   5548     1
   5546   5549     1
   5546   5554     1
   5546   5555     1
   5546   5557     1
   5547   5554     1
   5547   5555     1
   5547   5557     1
   5548   5553     1
   5548   5556     1
   5548   5551     1
   5548   5552     1
   5549   5553     1
   5549   5556     1
   5549   5551     1
   5549   5552     1
   5558   5565     1
   5558   5566     1
   5559   5564     1
   5559   5562     1
   5559   5563     1
   5559   5568     1
   5559   5569     1
   5559   5571     1
   5560   5564     1
   5560   5562     1
   5560   5563     1
   5560   5568     1
   5560   5569     1
   5560   5571     1
   5561   5568     1
   5561   5569     1
   5561   5571     1
   5562   5570     1
   5562   5565     1
   5562   5566     1
   5562   5567     1
   5563   5570     1
   5563   5565     1
   5563   5566     1
   5563   5567     1

[ angles ]
;    ai     aj     ak funct         c0         c1         c2         c3
      1      2      8     1   107.9700462 569.024000
      1      5     11     1   107.9700462 569.024000
      2      1      5     1   112.4800480 524.673600
      2      8     14     1   111.5100476 526.347200
      5     11     17     1   111.5100476 526.347200
      8     14     20     1   114.2100488 537.225600
     11     17     21     1   114.2100488 537.225600
     14     20     28     1   109.6600471 523.836800
     14     20     31     1   109.6600471 523.836800
     17     21     22     1   109.6600471 523.836800
     17     21     25     1   109.6600471 523.836800
     20     28     40     1   114.2100488 537.225600
     20     31     43     1   114.2100488 537.225600
     21     22     34     1   114.2100488 537.225600
     21     25     37     1   114.2100488 537.225600
     22     21     25     1   109.6600471 523.836800
     22     34     55     1   111.5100476 526.347200
     25     37     52     1   111.5100476 526.347200
     28     20     31     1   109.6600471 523.836800
     28     40     49     1   111.5100476 526.347200
     31     43     46     1   111.5100476 526.347200
     34     55    178     1   107.9700462 569.024000
     37     52    148     1   107.9700462 569.024000
     40     49    118     1   107.9700462 569.024000
     43     46     88     1   107.9700462 569.024000
     46     88     79     1   112.4800480 524.673600
     49    118    109     1   112.4800480 524.673600
     52    148    139     1   112.4800480 524.673600
     55    178    169     1   112.4800480 524.673600
     60     61     73     1   114.2100488 537.225600
     60     64     76     1   114.2100488 537.225600
     60     67     70     1   114.2100488 537.225600
     61     60     64     1   109.6600471 523.836800
     61     60     67     1   109.6600471 523.836800
     61     73     85     1   111.5100476 526.347200
     64     60     67     1   109.6600471 523.836800
     64     76     82     1   111.5100476 526.347200
     67     70     79     1   111.5100476 526.347200
     70     79     88     1   107.9700462 569.024000
     73     85    238     1   107.9700462 569.024000
     76     82    208     1   107.9700462 569.024000
     82    208    199     1   112.4800480 524.673600
     85    238    229     1   112.4800480 524.673600
     90     91    103     1   114.2100488 537.225600
     90     94    106     1   114.2100488 537.225600
     90     97    100     1   114.2100488 537.225600
     91     90     94     1   109.6600471 523.836800
     91     90     97     1   109.6600471 523.836800
     91    103    115     1   111.5100476 526.347200
     94     90     97     1   109.6600471 523.836800
     94    106    112     1   111.5100476 526.347200
     97    100    109     1   111.5100476 526.347200
    100    109    118     1   107.9700462 569.024000
    103    115    298     1   107.9700462 569.024000
    106    112    268     1   107.9700462 569.024000
    112    268    259     1   112.4800480 524.673600
    115    298    289     1   112.4800480 524.673600
    120    121    133     1   114.2100488 537.225600
    120    124    136     1   114.2100488 537.225600
    120    127    130     1   114.2100488 537.225600
    121    120    124     1   109.6600471 523.836800
    121    120    127     1   109.6600471 523.836800
    121    133    145     1   111.5100476 526.347200
    124    120    127     1   109.6600471 523.836800
    124    136    142     1   111.5100476 526.347200
    127    130    139     1   111.5100476 526.347200
    130    139    148     1   107.9700462 569.024000
    133    145    358     1   107.9700462 569.024000
    136    142    328     1   107.9700462 569.024000
    142    328    319     1   112.4800480 524.673600
    145    358    349     1   112.4800480 524.673600
    150    151    163     1   114.2100488 537.225600
    150    154    166     1   114.2100488 537.225600
    150    157    160     1   114.2100488 537.225600
    151    150    154     1   109.6600471 523.836800
    151    150    157     1   109.6600471 523.836800
    151    163    175     1   111.5100476 526.347200
    154    150    157     1   109.6600471 523.836800
    154    166    172     1   111.5100476 526.347200
    157    160    169     1   111.5100476 526.347200
    160    169    178     1   107.9700462 569.024000
    163    175    418     1   107.9700462 569.024000
    166    172    388     1   107.9700462 569.024000
    172    388    379     1   112.4800480 524.673600
    175    418    409     1   112.4800480 524.673600
    180    181    193     1   114.2100488 537.225600
    180    184    196     1   114.2100488 537.225600
    180    187    190     1   114.2100488 537.225600
    181    180    184     1   109.6600471 523.836800
    181    180    187     1   109.6600471 523.836800
    181    193    205     1   111.5100476 526.347200
    184    180    187     1   109.6600471 523.836800
    184    196    202     1   111.5100476 526.347200
    187    190    199     1   111.5100476 526.347200
    190    199    208     1   107.9700462 569.024000
    193    205    478     1   107.9700462 569.024000
    196    202    448     1   107.9700462 569.024000
    202    448    439     1   112.4800480 524.673600
    205    478    469     1   112.4800480 524.673600
    210    211    223     1   114.2100488 537.225600
    210    214    226     1   114.2100488 537.225600
    210    217    220     1   114.2100488 537.225600
    211    210    214     1   109.6600471 523.836800
    211    210    217     1   109.6600471 523.836800
    211    223    235     1   111.5100476 526.347200
    214    210    217     1   109.6600471 523.836800
    214    226    232     1   111.5100476 526.347200
    217    220    229     1   111.5100476 526.347200
    220    229    238     1   107.9700462 569.024000
    223    235    538     1   107.9700462 569.024000
    226    232    508     1   107.9700462 569.024000
    232    508    499     1   112.4800480 524.673600
    235    538    529     1   112.4800480 524.673600
    240    241    253     1   114.2100488 537.225600
    240    244    256     1   114.2100488 537.225600
    240    247    250     1   114.2100488 537.225600
    241    240    244     1   109.6600471 523.836800
    241    240    247     1   109.6600471 523.836800
    241    253    265     1   111.5100476 526.347200
    244    240    247     1   109.6600471 523.836800
    244    256    262     1   111.5100476 526.347200
    247    250    259     1   111.5100476 526.347200
    250    259    268     1   107.9700462 569.024000
    253    265    598     1   107.9700462 569.024000
    256    262    568     1   107.9700462 569.024000
    262    568    559     1   112.4800480 524.673600
    265    598    589     1   112.4800480 524.673600
    270    271    283     1   114.2100488 537.225600
    270    274    286     1   114.2100488 537.225600
    270    277    280     1   114.2100488 537.225600
    271    270    274     1   109.6600471 523.836800
    271    270    277     1   109.6600471 523.836800
    271    283    295     1   111.5100476 526.347200
    274    270    277     1   109.6600471 523.836800
    274    286    292     1   111.5100476 526.347200
    277    280    289     1   111.5100476 526.347200
    280    289    298     1   107.9700462 569.024000
    283    295    658     1   107.9700462 569.024000
    286    292    628     1   107.9700462 569.024000
    292    628    619     1   112.4800480 524.673600
    295    658    649     1   112.4800480 524.673600
    300    301    313     1   114.2100488 537.225600
    300    304    316     1   114.2100488 537.225600
    300    307    310     1   114.2100488 537.225600
    301    300    304     1   109.6600471 523.836800
    301    300    307     1   109.6600471 523.836800
    301    313    325     1   111.5100476 526.347200
    304    300    307     1   109.6600471 523.836800
    304    316    322     1   111.5100476 526.347200
    307    310    319     1   111.5100476 526.347200
    310    319    328     1   107.9700462 569.024000
    313    325    718     1   107.9700462 569.024000
    316    322    688     1   107.9700462 569.024000
    322    688    679     1   112.4800480 524.673600
    325    718    709     1   112.4800480 524.673600
    330    331    343     1   114.2100488 537.225600
    330    334    346     1   114.2100488 537.225600
    330    337    340     1   114.2100488 537.225600
    331    330    334     1   109.6600471 523.836800
    331    330    337     1   109.6600471 523.836800
    331    343    355     1   111.5100476 526.347200
    334    330    337     1   109.6600471 523.836800
    334    346    352     1   111.5100476 526.347200
    337    340    349     1   111.5100476 526.347200
    340    349    358     1   107.9700462 569.024000
    343    355    778     1   107.9700462 569.024000
    346    352    748     1   107.9700462 569.024000
    352    748    739     1   112.4800480 524.673600
    355    778    769     1   112.4800480 524.673600
    360    361    373     1   114.2100488 537.225600
    360    364    376     1   114.2100488 537.225600
    360    367    370     1   114.2100488 537.225600
    361    360    364     1   109.6600471 523.836800
    361    360    367     1   109.6600471 523.836800
    361    373    385     1   111.5100476 526.347200
    364    360    367     1   109.6600471 523.836800
    364    376    382     1   111.5100476 526.347200
    367    370    379     1   111.5100476 526.347200
    370    379    388     1   107.9700462 569.024000
    373    385    838     1   107.9700462 569.024000
    376    382    808     1   107.9700462 569.024000
    382    808    799     1   112.4800480 524.673600
    385    838    829     1   112.4800480 524.673600
    390    391    403     1   114.2100488 537.225600
    390    394    406     1   114.2100488 537.225600
    390    397    400     1   114.2100488 537.225600
    391    390    394     1   109.6600471 523.836800
    391    390    397     1   109.6600471 523.836800
    391    403    415     1   111.5100476 526.347200
    394    390    397     1   109.6600471 523.836800
    394    406    412     1   111.5100476 526.347200
    397    400    409     1   111.5100476 526.347200
    400    409    418     1   107.9700462 569.024000
    403    415    898     1   107.9700462 569.024000
    406    412    868     1   107.9700462 569.024000
    412    868    859     1   112.4800480 524.673600
    415    898    889     1   112.4800480 524.673600
    420    421    433     1   114.2100488 537.225600
    420    424    436     1   114.2100488 537.225600
    420    427    430     1   114.2100488 537.225600
    421    420    424     1   109.6600471 523.836800
    421    420    427     1   109.6600471 523.836800
    421    433    445     1   111.5100476 526.347200
    424    420    427     1   109.6600471 523.836800
    424    436    442     1   111.5100476 526.347200
    427    430    439     1   111.5100476 526.347200
    430    439    448     1   107.9700462 569.024000
    433    445    958     1   107.9700462 569.024000
    436    442    928     1   107.9700462 569.024000
    442    928    919     1   112.4800480 524.673600
    445    958    949     1   112.4800480 524.673600
    450    451    463     1   114.2100488 537.225600
    450    454    466     1   114.2100488 537.225600
    450    457    460     1   114.2100488 537.225600
    451    450    454     1   109.6600471 523.836800
    451    450    457     1   109.6600471 523.836800
    451    463    475     1   111.5100476 526.347200
    454    450    457     1   109.6600471 523.836800
    454    466    472     1   111.5100476 526.347200
    457    460    469     1   111.5100476 526.347200
    460    469    478     1   107.9700462 569.024000
    463    475   1018     1   107.9700462 569.024000
    466    472    988     1   107.9700462 569.024000
    472    988    979     1   112.4800480 524.673600
    475   1018   1009     1   112.4800480 524.673600
    480    481    493     1   114.2100488 537.225600
    480    484    496     1   114.2100488 537.225600
    480    487    490     1   114.2100488 537.225600
    481    480    484     1   109.6600471 523.836800
    481    480    487     1   109.6600471 523.836800
    481    493    505     1   111.5100476 526.347200
    484    480    487     1   109.6600471 523.836800
    484    496    502     1   111.5100476 526.347200
    487    490    499     1   111.5100476 526.347200
    490    499    508     1   107.9700462 569.024000
    493    505   1078     1   107.9700462 569.024000
    496    502   1048     1   107.9700462 569.024000
    502   1048   1039     1   112.4800480 524.673600
    505   1078   1069     1   112.4800480 524.673600
    510    511    523     1   114.2100488 537.225600
    510    514    526     1   114.2100488 537.225600
    510    517    520     1   114.2100488 537.225600
    511    510    514     1   109.6600471 523.836800
    511    510    517     1   109.6600471 523.836800
    511    523    535     1   111.5100476 526.347200
    514    510    517     1   109.6600471 523.836800
    514    526    532     1   111.5100476 526.347200
    517    520    529     1   111.5100476 526.347200
    520    529    538     1   107.9700462 569.024000
    523    535   1138     1   107.9700462 569.024000
    526    532   1108     1   107.9700462 569.024000
    532   1108   1099     1   112.4800480 524.673600
    535   1138   1129     1   112.4800480 524.673600
    540    541    553     1   114.2100488 537.225600
    540    544    556     1   114.2100488 537.225600
    540    547    550     1   114.2100488 537.225600
    541    540    544     1   109.6600471 523.836800
    541    540    547     1   109.6600471 523.836800
    541    553    565     1   111.5100476 526.347200
    544    540    547     1   109.6600471 523.836800
    544    556    562     1   111.5100476 526.347200
    547    550    559     1   111.5100476 526.347200
    550    559    568     1   107.9700462 569.024000
    553    565   1198     1   107.9700462 569.024000
    556    562   1168     1   107.9700462 569.024000
    562   1168   1159     1   112.4800480 524.673600
    565   1198   1189     1   112.4800480 524.673600
    570    571    583     1   114.2100488 537.225600
    570    574    586     1   114.2100488 537.225600
    570    577    580     1   114.2100488 537.225600
    571    570    574     1   109.6600471 523.836800
    571    570    577     1   109.6600471 523.836800
    571    583    595     1   111.5100476 526.347200
    574    570    577     1   109.6600471 523.836800
    574    586    592     1   111.5100476 526.347200
    577    580    589     1   111.5100476 526.347200
    580    589    598     1   107.9700462 569.024000
    583    595   1258     1   107.9700462 569.024000
    586    592   1228     1   107.9700462 569.024000
    592   1228   1219     1   112.4800480 524.673600
    595   1258   1249     1   112.4800480 524.673600
    600    601    613     1   114.2100488 537.225600
    600    604    616     1   114.2100488 537.225600
    600    607    610     1   114.2100488 537.225600
    601    600    604     1   109.6600471 523.836800
    601    600    607     1   109.6600471 523.836800
    601    613    625     1   111.5100476 526.347200
    604    600    607     1   109.6600471 523.836800
    604    616    622     1   111.5100476 526.347200
    607    610    619     1   111.5100476 526.347200
    610    619    628     1   107.9700462 569.024000
    613    625   1318     1   107.9700462 569.024000
    616    622   1288     1   107.9700462 569.024000
    622   1288   1279     1   112.4800480 524.673600
    625   1318   1309     1   112.4800480 524.673600
    630    631    643     1   114.2100488 537.225600
    630    634    646     1   114.2100488 537.225600
    630    637    640     1   114.2100488 537.225600
    631    630    634     1   109.6600471 523.836800
    631    630    637     1   109.6600471 523.836800
    631    643    655     1   111.5100476 526.347200
    634    630    637     1   109.6600471 523.836800
    634    646    652     1   111.5100476 526.347200
    637    640    649     1   111.5100476 526.347200
    640    649    658     1   107.9700462 569.024000
    643    655   1378     1   107.9700462 569.024000
    646    652   1348     1   107.9700462 569.024000
    652   1348   1339     1   112.4800480 524.673600
    655   1378   1369     1   112.4800480 524.673600
    660    661    673     1   114.2100488 537.225600
    660    664    676     1   114.2100488 537.225600
    660    667    670     1   114.2100488 537.225600
    661    660    664     1   109.6600471 523.836800
    661    660    667     1   109.6600471 523.836800
    661    673    685     1   111.5100476 526.347200
    664    660    667     1   109.6600471 523.836800
    664    676    682     1   111.5100476 526.347200
    667    670    679     1   111.5100476 526.347200
    670    679    688     1   107.9700462 569.024000
    673    685   1438     1   107.9700462 569.024000
    676    682   1408     1   107.9700462 569.024000
    682   1408   1399     1   112.4800480 524.673600
    685   1438   1429     1   112.4800480 524.673600
    690    691    703     1   114.2100488 537.225600
    690    694    706     1   114.2100488 537.225600
    690    697    700     1   114.2100488 537.225600
    691    690    694     1   109.6600471 523.836800
    691    690    697     1   109.6600471 523.836800
    691    703    715     1   111.5100476 526.347200
    694    690    697     1   109.6600471 523.836800
    694    706    712     1   111.5100476 526.347200
    697    700    709     1   111.5100476 526.347200
    700    709    718     1   107.9700462 569.024000
    703    715   1498     1   107.9700462 569.024000
    706    712   1468     1   107.9700462 569.024000
    712   1468   1459     1   112.4800480 524.673600
    715   1498   1489     1   112.4800480 524.673600
    720    721    733     1   114.2100488 537.225600
    720    724    736     1   114.2100488 537.225600
    720    727    730     1   114.2100488 537.225600
    721    720    724     1   109.6600471 523.836800
    721    720    727     1   109.6600471 523.836800
    721    733    745     1   111.5100476 526.347200
    724    720    727     1   109.6600471 523.836800
    724    736    742     1   111.5100476 526.347200
    727    730    739     1   111.5100476 526.347200
    730    739    748     1   107.9700462 569.024000
    733    745   1558     1   107.9700462 569.024000
    736    742   1528     1   107.9700462 569.024000
    742   1528   1519     1   112.4800480 524.673600
    745   1558   1549     1   112.4800480 524.673600
    750    751    763     1   114.2100488 537.225600
    750    754    766     1   114.2100488 537.225600
    750    757    760     1   114.2100488 537.225600
    751    750    754     1   109.6600471 523.836800
    751    750    757     1   109.6600471 523.836800
    751    763    775     1   111.5100476 526.347200
    754    750    757     1   109.6600471 523.836800
    754    766    772     1   111.5100476 526.347200
    757    760    769     1   111.5100476 526.347200
    760    769    778     1   107.9700462 569.024000
    763    775   1618     1   107.9700462 569.024000
    766    772   1588     1   107.9700462 569.024000
    772   1588   1579     1   112.4800480 524.673600
    775   1618   1609     1   112.4800480 524.673600
    780    781    793     1   114.2100488 537.225600
    780    784    796     1   114.2100488 537.225600
    780    787    790     1   114.2100488 537.225600
    781    780    784     1   109.6600471 523.836800
    781    780    787     1   109.6600471 523.836800
    781    793    805     1   111.5100476 526.347200
    784    780    787     1   109.6600471 523.836800
    784    796    802     1   111.5100476 526.347200
    787    790    799     1   111.5100476 526.347200
    790    799    808     1   107.9700462 569.024000
    793    805   1678     1   107.9700462 569.024000
    796    802   1648     1   107.9700462 569.024000
    802   1648   1639     1   112.4800480 524.673600
    805   1678   1669     1   112.4800480 524.673600
    810    811    823     1   114.2100488 537.225600
    810    814    826     1   114.2100488 537.225600
    810    817    820     1   114.2100488 537.225600
    811    810    814     1   109.6600471 523.836800
    811    810    817     1   109.6600471 523.836800
    811    823    835     1   111.5100476 526.347200
    814    810    817     1   109.6600471 523.836800
    814    826    832     1   111.5100476 526.347200
    817    820    829     1   111.5100476 526.347200
    820    829    838     1   107.9700462 569.024000
    823    835   1738     1   107.9700462 569.024000
    826    832   1708     1   107.9700462 569.024000
    832   1708   1699     1   112.4800480 524.673600
    835   1738   1729     1   112.4800480 524.673600
    840    841    853     1   114.2100488 537.225600
    840    844    856     1   114.2100488 537.225600
    840    847    850     1   114.2100488 537.225600
    841    840    844     1   109.6600471 523.836800
    841    840    847     1   109.6600471 523.836800
    841    853    865     1   111.5100476 526.347200
    844    840    847     1   109.6600471 523.836800
    844    856    862     1   111.5100476 526.347200
    847    850    859     1   111.5100476 526.347200
    850    859    868     1   107.9700462 569.024000
    853    865   1798     1   107.9700462 569.024000
    856    862   1768     1   107.9700462 569.024000
    862   1768   1759     1   112.4800480 524.673600
    865   1798   1789     1   112.4800480 524.673600
    870    871    883     1   114.2100488 537.225600
    870    874    886     1   114.2100488 537.225600
    870    877    880     1   114.2100488 537.225600
    871    870    874     1   109.6600471 523.836800
    871    870    877     1   109.6600471 523.836800
    871    883    895     1   111.5100476 526.347200
    874    870    877     1   109.6600471 523.836800
    874    886    892     1   111.5100476 526.347200
    877    880    889     1   111.5100476 526.347200
    880    889    898     1   107.9700462 569.024000
    883    895   1858     1   107.9700462 569.024000
    886    892   1828     1   107.9700462 569.024000
    892   1828   1819     1   112.4800480 524.673600
    895   1858   1849     1   112.4800480 524.673600
    900    901    913     1   114.2100488 537.225600
    900    904    916     1   114.2100488 537.225600
    900    907    910     1   114.2100488 537.225600
    901    900    904     1   109.6600471 523.836800
    901    900    907     1   109.6600471 523.836800
    901    913    925     1   111.5100476 526.347200
    904    900    907     1   109.6600471 523.836800
    904    916    922     1   111.5100476 526.347200
    907    910    919     1   111.5100476 526.347200
    910    919    928     1   107.9700462 569.024000
    913    925   1918     1   107.9700462 569.024000
    916    922   1888     1   107.9700462 569.024000
    922   1888   1879     1   112.4800480 524.673600
    925   1918   1909     1   112.4800480 524.673600
    930    931    943     1   114.2100488 537.225600
    930    934    946     1   114.2100488 537.225600
    930    937    940     1   114.2100488 537.225600
    931    930    934     1   109.6600471 523.836800
    931    930    937     1   109.6600471 523.836800
    931    943    955     1   111.5100476 526.347200
    934    930    937     1   109.6600471 523.836800
    934    946    952     1   111.5100476 526.347200
    937    940    949     1   111.5100476 526.347200
    940    949    958     1   107.9700462 569.024000
    943    955   1978     1   107.9700462 569.024000
    946    952   1948     1   107.9700462 569.024000
    952   1948   1939     1   112.4800480 524.673600
    955   1978   1969     1   112.4800480 524.673600
    960    961    973     1   114.2100488 537.225600
    960    964    976     1   114.2100488 537.225600
    960    967    970     1   114.2100488 537.225600
    961    960    964     1   109.6600471 523.836800
    961    960    967     1   109.6600471 523.836800
    961    973    985     1   111.5100476 526.347200
    964    960    967     1   109.6600471 523.836800
    964    976    982     1   111.5100476 526.347200
    967    970    979     1   111.5100476 526.347200
    970    979    988     1   107.9700462 569.024000
    973    985   2038     1   107.9700462 569.024000
    976    982   2008     1   107.9700462 569.024000
    982   2008   1999     1   112.4800480 524.673600
    985   2038   2029     1   112.4800480 524.673600
    990    991   1003     1   114.2100488 537.225600
    990    994   1006     1   114.2100488 537.225600
    990    997   1000     1   114.2100488 537.225600
    991    990    994     1   109.6600471 523.836800
    991    990    997     1   109.6600471 523.836800
    991   1003   1015     1   111.5100476 526.347200
    994    990    997     1   109.6600471 523.836800
    994   1006   1012     1   111.5100476 526.347200
    997   1000   1009     1   111.5100476 526.347200
   1000   1009   1018     1   107.9700462 569.024000
   1003   1015   2098     1   107.9700462 569.024000
   1006   1012   2068     1   107.9700462 569.024000
   1012   2068   2059     1   112.4800480 524.673600
   1015   2098   2089     1   112.4800480 524.673600
   1020   1021   1033     1   114.2100488 537.225600
   1020   1024   1036     1   114.2100488 537.225600
   1020   1027   1030     1   114.2100488 537.225600
   1021   1020   1024     1   109.6600471 523.836800
   1021   1020   1027     1   109.6600471 523.836800
   1021   1033   1045     1   111.5100476 526.347200
   1024   1020   1027     1   109.6600471 523.836800
   1024   1036   1042     1   111.5100476 526.347200
   1027   1030   1039     1   111.5100476 526.347200
   1030   1039   1048     1   107.9700462 569.024000
   1033   1045   2158     1   107.9700462 569.024000
   1036   1042   2128     1   107.9700462 569.024000
   1042   2128   2119     1   112.4800480 524.673600
   1045   2158   2149     1   112.4800480 524.673600
   1050   1051   1063     1   114.2100488 537.225600
   1050   1054   1066     1   114.2100488 537.225600
   1050   1057   1060     1   114.2100488 537.225600
   1051   1050   1054     1   109.6600471 523.836800
   1051   1050   1057     1   109.6600471 523.836800
   1051   1063   1075     1   111.5100476 526.347200
   1054   1050   1057     1   109.6600471 523.836800
   1054   1066   1072     1   111.5100476 526.347200
   1057   1060   1069     1   111.5100476 526.347200
   1060   1069   1078     1   107.9700462 569.024000
   1063   1075   2218     1   107.9700462 569.024000
   1066   1072   2188     1   107.9700462 569.024000
   1072   2188   2179     1   112.4800480 524.673600
   1075   2218   2209     1   112.4800480 524.673600
   1080   1081   1093     1   114.2100488 537.225600
   1080   1084   1096     1   114.2100488 537.225600
   1080   1087   1090     1   114.2100488 537.225600
   1081   1080   1084     1   109.6600471 523.836800
   1081   1080   1087     1   109.6600471 523.836800
   1081   1093   1105     1   111.5100476 526.347200
   1084   1080   1087     1   109.6600471 523.836800
   1084   1096   1102     1   111.5100476 526.347200
   1087   1090   1099     1   111.5100476 526.347200
   1090   1099   1108     1   107.9700462 569.024000
   1093   1105   2278     1   107.9700462 569.024000
   1096   1102   2248     1   107.9700462 569.024000
   1102   2248   2239     1   112.4800480 524.673600
   1105   2278   2269     1   112.4800480 524.673600
   1110   1111   1123     1   114.2100488 537.225600
   1110   1114   1126     1   114.2100488 537.225600
   1110   1117   1120     1   114.2100488 537.225600
   1111   1110   1114     1   109.6600471 523.836800
   1111   1110   1117     1   109.6600471 523.836800
   1111   1123   1135     1   111.5100476 526.347200
   1114   1110   1117     1   109.6600471 523.836800
   1114   1126   1132     1   111.5100476 526.347200
   1117   1120   1129     1   111.5100476 526.347200
   1120   1129   1138     1   107.9700462 569.024000
   1123   1135   2338     1   107.9700462 569.024000
   1126   1132   2308     1   107.9700462 569.024000
   1132   2308   2299     1   112.4800480 524.673600
   1135   2338   2329     1   112.4800480 524.673600
   1140   1141   1153     1   114.2100488 537.225600
   1140   1144   1156     1   114.2100488 537.225600
   1140   1147   1150     1   114.2100488 537.225600
   1141   1140   1144     1   109.6600471 523.836800
   1141   1140   1147     1   109.6600471 523.836800
   1141   1153   1165     1   111.5100476 526.347200
   1144   1140   1147     1   109.6600471 523.836800
   1144   1156   1162     1   111.5100476 526.347200
   1147   1150   1159     1   111.5100476 526.347200
   1150   1159   1168     1   107.9700462 569.024000
   1153   1165   2398     1   107.9700462 569.024000
   1156   1162   2368     1   107.9700462 569.024000
   1162   2368   2359     1   112.4800480 524.673600
   1165   2398   2389     1   112.4800480 524.673600
   1170   1171   1183     1   114.2100488 537.225600
   1170   1174   1186     1   114.2100488 537.225600
   1170   1177   1180     1   114.2100488 537.225600
   1171   1170   1174     1   109.6600471 523.836800
   1171   1170   1177     1   109.6600471 523.836800
   1171   1183   1195     1   111.5100476 526.347200
   1174   1170   1177     1   109.6600471 523.836800
   1174   1186   1192     1   111.5100476 526.347200
   1177   1180   1189     1   111.5100476 526.347200
   1180   1189   1198     1   107.9700462 569.024000
   1183   1195   2458     1   107.9700462 569.024000
   1186   1192   2428     1   107.9700462 569.024000
   1192   2428   2419     1   112.4800480 524.673600
   1195   2458   2449     1   112.4800480 524.673600
   1200   1201   1213     1   114.2100488 537.225600
   1200   1204   1216     1   114.2100488 537.225600
   1200   1207   1210     1   114.2100488 537.225600
   1201   1200   1204     1   109.6600471 523.836800
   1201   1200   1207     1   109.6600471 523.836800
   1201   1213   1225     1   111.5100476 526.347200
   1204   1200   1207     1   109.6600471 523.836800
   1204   1216   1222     1   111.5100476 526.347200
   1207   1210   1219     1   111.5100476 526.347200
   1210   1219   1228     1   107.9700462 569.024000
   1213   1225   2518     1   107.9700462 569.024000
   1216   1222   2488     1   107.9700462 569.024000
   1222   2488   2479     1   112.4800480 524.673600
   1225   2518   2509     1   112.4800480 524.673600
   1230   1231   1243     1   114.2100488 537.225600
   1230   1234   1246     1   114.2100488 537.225600
   1230   1237   1240     1   114.2100488 537.225600
   1231   1230   1234     1   109.6600471 523.836800
   1231   1230   1237     1   109.6600471 523.836800
   1231   1243   1255     1   111.5100476 526.347200
   1234   1230   1237     1   109.6600471 523.836800
   1234   1246   1252     1   111.5100476 526.347200
   1237   1240   1249     1   111.5100476 526.347200
   1240   1249   1258     1   107.9700462 569.024000
   1243   1255   2578     1   107.9700462 569.024000
   1246   1252   2548     1   107.9700462 569.024000
   1252   2548   2539     1   112.4800480 524.673600
   1255   2578   2569     1   112.4800480 524.673600
   1260   1261   1273     1   114.2100488 537.225600
   1260   1264   1276     1   114.2100488 537.225600
   1260   1267   1270     1   114.2100488 537.225600
   1261   1260   1264     1   109.6600471 523.836800
   1261   1260   1267     1   109.6600471 523.836800
   1261   1273   1285     1   111.5100476 526.347200
   1264   1260   1267     1   109.6600471 523.836800
   1264   1276   1282     1   111.5100476 526.347200
   1267   1270   1279     1   111.5100476 526.347200
   1270   1279   1288     1   107.9700462 569.024000
   1273   1285   2638     1   107.9700462 569.024000
   1276   1282   2608     1   107.9700462 569.024000
   1282   2608   2599     1   112.4800480 524.673600
   1285   2638   2629     1   112.4800480 524.673600
   1290   1291   1303     1   114.2100488 537.225600
   1290   1294   1306     1   114.2100488 537.225600
   1290   1297   1300     1   114.2100488 537.225600
   1291   1290   1294     1   109.6600471 523.836800
   1291   1290   1297     1   109.6600471 523.836800
   1291   1303   1315     1   111.5100476 526.347200
   1294   1290   1297     1   109.6600471 523.836800
   1294   1306   1312     1   111.5100476 526.347200
   1297   1300   1309     1   111.5100476 526.347200
   1300   1309   1318     1   107.9700462 569.024000
   1303   1315   2698     1   107.9700462 569.024000
   1306   1312   2668     1   107.9700462 569.024000
   1312   2668   2659     1   112.4800480 524.673600
   1315   2698   2689     1   112.4800480 524.673600
   1320   1321   1333     1   114.2100488 537.225600
   1320   1324   1336     1   114.2100488 537.225600
   1320   1327   1330     1   114.2100488 537.225600
   1321   1320   1324     1   109.6600471 523.836800
   1321   1320   1327     1   109.6600471 523.836800
   1321   1333   1345     1   111.5100476 526.347200
   1324   1320   1327     1   109.6600471 523.836800
   1324   1336   1342     1   111.5100476 526.347200
   1327   1330   1339     1   111.5100476 526.347200
   1330   1339   1348     1   107.9700462 569.024000
   1333   1345   2758     1   107.9700462 569.024000
   1336   1342   2728     1   107.9700462 569.024000
   1342   2728   2719     1   112.4800480 524.673600
   1345   2758   2749     1   112.4800480 524.673600
   1350   1351   1363     1   114.2100488 537.225600
   1350   1354   1366     1   114.2100488 537.225600
   1350   1357   1360     1   114.2100488 537.225600
   1351   1350   1354     1   109.6600471 523.836800
   1351   1350   1357     1   109.6600471 523.836800
   1351   1363   1375     1   111.5100476 526.347200
   1354   1350   1357     1   109.6600471 523.836800
   1354   1366   1372     1   111.5100476 526.347200
   1357   1360   1369     1   111.5100476 526.347200
   1360   1369   1378     1   107.9700462 569.024000
   1363   1375   2818     1   107.9700462 569.024000
   1366   1372   2788     1   107.9700462 569.024000
   1372   2788   2779     1   112.4800480 524.673600
   1375   2818   2809     1   112.4800480 524.673600
   1380   1381   1393     1   114.2100488 537.225600
   1380   1384   1396     1   114.2100488 537.225600
   1380   1387   1390     1   114.2100488 537.225600
   1381   1380   1384     1   109.6600471 523.836800
   1381   1380   1387     1   109.6600471 523.836800
   1381   1393   1405     1   111.5100476 526.347200
   1384   1380   1387     1   109.6600471 523.836800
   1384   1396   1402     1   111.5100476 526.347200
   1387   1390   1399     1   111.5100476 526.347200
   1390   1399   1408     1   107.9700462 569.024000
   1393   1405   2878     1   107.9700462 569.024000
   1396   1402   2848     1   107.9700462 569.024000
   1402   2848   2839     1   112.4800480 524.673600
   1405   2878   2869     1   112.4800480 524.673600
   1410   1411   1423     1   114.2100488 537.225600
   1410   1414   1426     1   114.2100488 537.225600
   1410   1417   1420     1   114.2100488 537.225600
   1411   1410   1414     1   109.6600471 523.836800
   1411   1410   1417     1   109.6600471 523.836800
   1411   1423   1435     1   111.5100476 526.347200
   1414   1410   1417     1   109.6600471 523.836800
   1414   1426   1432     1   111.5100476 526.347200
   1417   1420   1429     1   111.5100476 526.347200
   1420   1429   1438     1   107.9700462 569.024000
   1423   1435   2938     1   107.9700462 569.024000
   1426   1432   2908     1   107.9700462 569.024000
   1432   2908   2899     1   112.4800480 524.673600
   1435   2938   2929     1   112.4800480 524.673600
   1440   1441   1453     1   114.2100488 537.225600
   1440   1444   1456     1   114.2100488 537.225600
   1440   1447   1450     1   114.2100488 537.225600
   1441   1440   1444     1   109.6600471 523.836800
   1441   1440   1447     1   109.6600471 523.836800
   1441   1453   1465     1   111.5100476 526.347200
   1444   1440   1447     1   109.6600471 523.836800
   1444   1456   1462     1   111.5100476 526.347200
   1447   1450   1459     1   111.5100476 526.347200
   1450   1459   1468     1   107.9700462 569.024000
   1453   1465   2998     1   107.9700462 569.024000
   1456   1462   2968     1   107.9700462 569.024000
   1462   2968   2959     1   112.4800480 524.673600
   1465   2998   2989     1   112.4800480 524.673600
   1470   1471   1483     1   114.2100488 537.225600
   1470   1474   1486     1   114.2100488 537.225600
   1470   1477   1480     1   114.2100488 537.225600
   1471   1470   1474     1   109.6600471 523.836800
   1471   1470   1477     1   109.6600471 523.836800
   1471   1483   1495     1   111.5100476 526.347200
   1474   1470   1477     1   109.6600471 523.836800
   1474   1486   1492     1   111.5100476 526.347200
   1477   1480   1489     1   111.5100476 526.347200
   1480   1489   1498     1   107.9700462 569.024000
   1483   1495   3058     1   107.9700462 569.024000
   1486   1492   3028     1   107.9700462 569.024000
   1492   3028   3019     1   112.4800480 524.673600
   1495   3058   3049     1   112.4800480 524.673600
   1500   1501   1513     1   114.2100488 537.225600
   1500   1504   1516     1   114.2100488 537.225600
   1500   1507   1510     1   114.2100488 537.225600
   1501   1500   1504     1   109.6600471 523.836800
   1501   1500   1507     1   109.6600471 523.836800
   1501   1513   1525     1   111.5100476 526.347200
   1504   1500   1507     1   109.6600471 523.836800
   1504   1516   1522     1   111.5100476 526.347200
   1507   1510   1519     1   111.5100476 526.347200
   1510   1519   1528     1   107.9700462 569.024000
   1513   1525   3118     1   107.9700462 569.024000
   1516   1522   3088     1   107.9700462 569.024000
   1522   3088   3079     1   112.4800480 524.673600
   1525   3118   3109     1   112.4800480 524.673600
   1530   1531   1543     1   114.2100488 537.225600
   1530   1534   1546     1   114.2100488 537.225600
   1530   1537   1540     1   114.2100488 537.225600
   1531   1530   1534     1   109.6600471 523.836800
   1531   1530   1537     1   109.6600471 523.836800
   1531   1543   1555     1   111.5100476 526.347200
   1534   1530   1537     1   109.6600471 523.836800
   1534   1546   1552     1   111.5100476 526.347200
   1537   1540   1549     1   111.5100476 526.347200
   1540   1549   1558     1   107.9700462 569.024000
   1543   1555   3178     1   107.9700462 569.024000
   1546   1552   3148     1   107.9700462 569.024000
   1552   3148   3139     1   112.4800480 524.673600
   1555   3178   3169     1   112.4800480 524.673600
   1560   1561   1573     1   114.2100488 537.225600
   1560   1564   1576     1   114.2100488 537.225600
   1560   1567   1570     1   114.2100488 537.225600
   1561   1560   1564     1   109.6600471 523.836800
   1561   1560   1567     1   109.6600471 523.836800
   1561   1573   1585     1   111.5100476 526.347200
   1564   1560   1567     1   109.6600471 523.836800
   1564   1576   1582     1   111.5100476 526.347200
   1567   1570   1579     1   111.5100476 526.347200
   1570   1579   1588     1   107.9700462 569.024000
   1573   1585   3238     1   107.9700462 569.024000
   1576   1582   3208     1   107.9700462 569.024000
   1582   3208   3199     1   112.4800480 524.673600
   1585   3238   3229     1   112.4800480 524.673600
   1590   1591   1603     1   114.2100488 537.225600
   1590   1594   1606     1   114.2100488 537.225600
   1590   1597   1600     1   114.2100488 537.225600
   1591   1590   1594     1   109.6600471 523.836800
   1591   1590   1597     1   109.6600471 523.836800
   1591   1603   1615     1   111.5100476 526.347200
   1594   1590   1597     1   109.6600471 523.836800
   1594   1606   1612     1   111.5100476 526.347200
   1597   1600   1609     1   111.5100476 526.347200
   1600   1609   1618     1   107.9700462 569.024000
   1603   1615   3298     1   107.9700462 569.024000
   1606   1612   3268     1   107.9700462 569.024000
   1612   3268   3259     1   112.4800480 524.673600
   1615   3298   3289     1   112.4800480 524.673600
   1620   1621   1633     1   114.2100488 537.225600
   1620   1624   1636     1   114.2100488 537.225600
   1620   1627   1630     1   114.2100488 537.225600
   1621   1620   1624     1   109.6600471 523.836800
   1621   1620   1627     1   109.6600471 523.836800
   1621   1633   1645     1   111.5100476 526.347200
   1624   1620   1627     1   109.6600471 523.836800
   1624   1636   1642     1   111.5100476 526.347200
   1627   1630   1639     1   111.5100476 526.347200
   1630   1639   1648     1   107.9700462 569.024000
   1633   1645   3358     1   107.9700462 569.024000
   1636   1642   3328     1   107.9700462 569.024000
   1642   3328   3319     1   112.4800480 524.673600
   1645   3358   3349     1   112.4800480 524.673600
   1650   1651   1663     1   114.2100488 537.225600
   1650   1654   1666     1   114.2100488 537.225600
   1650   1657   1660     1   114.2100488 537.225600
   1651   1650   1654     1   109.6600471 523.836800
   1651   1650   1657     1   109.6600471 523.836800
   1651   1663   1675     1   111.5100476 526.347200
   1654   1650   1657     1   109.6600471 523.836800
   1654   1666   1672     1   111.5100476 526.347200
   1657   1660   1669     1   111.5100476 526.347200
   1660   1669   1678     1   107.9700462 569.024000
   1663   1675   3418     1   107.9700462 569.024000
   1666   1672   3388     1   107.9700462 569.024000
   1672   3388   3379     1   112.4800480 524.673600
   1675   3418   3409     1   112.4800480 524.673600
   1680   1681   1693     1   114.2100488 537.225600
   1680   1684   1696     1   114.2100488 537.225600
   1680   1687   1690     1   114.2100488 537.225600
   1681   1680   1684     1   109.6600471 523.836800
   1681   1680   1687     1   109.6600471 523.836800
   1681   1693   1705     1   111.5100476 526.347200
   1684   1680   1687     1   109.6600471 523.836800
   1684   1696   1702     1   111.5100476 526.347200
   1687   1690   1699     1   111.5100476 526.347200
   1690   1699   1708     1   107.9700462 569.024000
   1693   1705   3478     1   107.9700462 569.024000
   1696   1702   3448     1   107.9700462 569.024000
   1702   3448   3439     1   112.4800480 524.673600
   1705   3478   3469     1   112.4800480 524.673600
   1710   1711   1723     1   114.2100488 537.225600
   1710   1714   1726     1   114.2100488 537.225600
   1710   1717   1720     1   114.2100488 537.225600
   1711   1710   1714     1   109.6600471 523.836800
   1711   1710   1717     1   109.6600471 523.836800
   1711   1723   1735     1   111.5100476 526.347200
   1714   1710   1717     1   109.6600471 523.836800
   1714   1726   1732     1   111.5100476 526.347200
   1717   1720   1729     1   111.5100476 526.347200
   1720   1729   1738     1   107.9700462 569.024000
   1723   1735   3538     1   107.9700462 569.024000
   1726   1732   3508     1   107.9700462 569.024000
   1732   3508   3499     1   112.4800480 524.673600
   1735   3538   3529     1   112.4800480 524.673600
   1740   1741   1753     1   114.2100488 537.225600
   1740   1744   1756     1   114.2100488 537.225600
   1740   1747   1750     1   114.2100488 537.225600
   1741   1740   1744     1   109.6600471 523.836800
   1741   1740   1747     1   109.6600471 523.836800
   1741   1753   1765     1   111.5100476 526.347200
   1744   1740   1747     1   109.6600471 523.836800
   1744   1756   1762     1   111.5100476 526.347200
   1747   1750   1759     1   111.5100476 526.347200
   1750   1759   1768     1   107.9700462 569.024000
   1753   1765   3598     1   107.9700462 569.024000
   1756   1762   3568     1   107.9700462 569.024000
   1762   3568   3559     1   112.4800480 524.673600
   1765   3598   3589     1   112.4800480 524.673600
   1770   1771   1783     1   114.2100488 537.225600
   1770   1774   1786     1   114.2100488 537.225600
   1770   1777   1780     1   114.2100488 537.225600
   1771   1770   1774     1   109.6600471 523.836800
   1771   1770   1777     1   109.6600471 523.836800
   1771   1783   1795     1   111.5100476 526.347200
   1774   1770   1777     1   109.6600471 523.836800
   1774   1786   1792     1   111.5100476 526.347200
   1777   1780   1789     1   111.5100476 526.347200
   1780   1789   1798     1   107.9700462 569.024000
   1783   1795   3658     1   107.9700462 569.024000
   1786   1792   3628     1   107.9700462 569.024000
   1792   3628   3619     1   112.4800480 524.673600
   1795   3658   3649     1   112.4800480 524.673600
   1800   1801   1813     1   114.2100488 537.225600
   1800   1804   1816     1   114.2100488 537.225600
   1800   1807   1810     1   114.2100488 537.225600
   1801   1800   1804     1   109.6600471 523.836800
   1801   1800   1807     1   109.6600471 523.836800
   1801   1813   1825     1   111.5100476 526.347200
   1804   1800   1807     1   109.6600471 523.836800
   1804   1816   1822     1   111.5100476 526.347200
   1807   1810   1819     1   111.5100476 526.347200
   1810   1819   1828     1   107.9700462 569.024000
   1813   1825   3718     1   107.9700462 569.024000
   1816   1822   3688     1   107.9700462 569.024000
   1822   3688   3679     1   112.4800480 524.673600
   1825   3718   3709     1   112.4800480 524.673600
   1830   1831   1843     1   114.2100488 537.225600
   1830   1834   1846     1   114.2100488 537.225600
   1830   1837   1840     1   114.2100488 537.225600
   1831   1830   1834     1   109.6600471 523.836800
   1831   1830   1837     1   109.6600471 523.836800
   1831   1843   1855     1   111.5100476 526.347200
   1834   1830   1837     1   109.6600471 523.836800
   1834   1846   1852     1   111.5100476 526.347200
   1837   1840   1849     1   111.5100476 526.347200
   1840   1849   1858     1   107.9700462 569.024000
   1843   1855   3778     1   107.9700462 569.024000
   1846   1852   3748     1   107.9700462 569.024000
   1852   3748   3739     1   112.4800480 524.673600
   1855   3778   3769     1   112.4800480 524.673600
   1860   1861   1873     1   114.2100488 537.225600
   1860   1864   1876     1   114.2100488 537.225600
   1860   1867   1870     1   114.2100488 537.225600
   1861   1860   1864     1   109.6600471 523.836800
   1861   1860   1867     1   109.6600471 523.836800
   1861   1873   1885     1   111.5100476 526.347200
   1864   1860   1867     1   109.6600471 523.836800
   1864   1876   1882     1   111.5100476 526.347200
   1867   1870   1879     1   111.5100476 526.347200
   1870   1879   1888     1   107.9700462 569.024000
   1873   1885   3806     1   107.9700462 569.024000
   1876   1882   3792     1   107.9700462 569.024000
   1882   3792   3786     1   112.4800480 524.673600
   1885   3806   3800     1   112.4800480 524.673600
   1890   1891   1903     1   114.2100488 537.225600
   1890   1894   1906     1   114.2100488 537.225600
   1890   1897   1900     1   114.2100488 537.225600
   1891   1890   1894     1   109.6600471 523.836800
   1891   1890   1897     1   109.6600471 523.836800
   1891   1903   1915     1   111.5100476 526.347200
   1894   1890   1897     1   109.6600471 523.836800
   1894   1906   1912     1   111.5100476 526.347200
   1897   1900   1909     1   111.5100476 526.347200
   1900   1909   1918     1   107.9700462 569.024000
   1903   1915   3834     1   107.9700462 569.024000
   1906   1912   3820     1   107.9700462 569.024000
   1912   3820   3814     1   112.4800480 524.673600
   1915   3834   3828     1   112.4800480 524.673600
   1920   1921   1933     1   114.2100488 537.225600
   1920   1924   1936     1   114.2100488 537.225600
   1920   1927   1930     1   114.2100488 537.225600
   1921   1920   1924     1   109.6600471 523.836800
   1921   1920   1927     1   109.6600471 523.836800
   1921   1933   1945     1   111.5100476 526.347200
   1924   1920   1927     1   109.6600471 523.836800
   1924   1936   1942     1   111.5100476 526.347200
   1927   1930   1939     1   111.5100476 526.347200
   1930   1939   1948     1   107.9700462 569.024000
   1933   1945   3862     1   107.9700462 569.024000
   1936   1942   3848     1   107.9700462 569.024000
   1942   3848   3842     1   112.4800480 524.673600
   1945   3862   3856     1   112.4800480 524.673600
   1950   1951   1963     1   114.2100488 537.225600
   1950   1954   1966     1   114.2100488 537.225600
   1950   1957   1960     1   114.2100488 537.225600
   1951   1950   1954     1   109.6600471 523.836800
   1951   1950   1957     1   109.6600471 523.836800
   1951   1963   1975     1   111.5100476 526.347200
   1954   1950   1957     1   109.6600471 523.836800
   1954   1966   1972     1   111.5100476 526.347200
   1957   1960   1969     1   111.5100476 526.347200
   1960   1969   1978     1   107.9700462 569.024000
   1963   1975   3890     1   107.9700462 569.024000
   1966   1972   3876     1   107.9700462 569.024000
   1972   3876   3870     1   112.4800480 524.673600
   1975   3890   3884     1   112.4800480 524.673600
   1980   1981   1993     1   114.2100488 537.225600
   1980   1984   1996     1   114.2100488 537.225600
   1980   1987   1990     1   114.2100488 537.225600
   1981   1980   1984     1   109.6600471 523.836800
   1981   1980   1987     1   109.6600471 523.836800
   1981   1993   2005     1   111.5100476 526.347200
   1984   1980   1987     1   109.6600471 523.836800
   1984   1996   2002     1   111.5100476 526.347200
   1987   1990   1999     1   111.5100476 526.347200
   1990   1999   2008     1   107.9700462 569.024000
   1993   2005   3918     1   107.9700462 569.024000
   1996   2002   3904     1   107.9700462 569.024000
   2002   3904   3898     1   112.4800480 524.673600
   2005   3918   3912     1   112.4800480 524.673600
   2010   2011   2023     1   114.2100488 537.225600
   2010   2014   2026     1   114.2100488 537.225600
   2010   2017   2020     1   114.2100488 537.225600
   2011   2010   2014     1   109.6600471 523.836800
   2011   2010   2017     1   109.6600471 523.836800
   2011   2023   2035     1   111.5100476 526.347200
   2014   2010   2017     1   109.6600471 523.836800
   2014   2026   2032     1   111.5100476 526.347200
   2017   2020   2029     1   111.5100476 526.347200
   2020   2029   2038     1   107.9700462 569.024000
   2023   2035   3946     1   107.9700462 569.024000
   2026   2032   3932     1   107.9700462 569.024000
   2032   3932   3926     1   112.4800480 524.673600
   2035   3946   3940     1   112.4800480 524.673600
   2040   2041   2053     1   114.2100488 537.225600
   2040   2044   2056     1   114.2100488 537.225600
   2040   2047   2050     1   114.2100488 537.225600
   2041   2040   2044     1   109.6600471 523.836800
   2041   2040   2047     1   109.6600471 523.836800
   2041   2053   2065     1   111.5100476 526.347200
   2044   2040   2047     1   109.6600471 523.836800
   2044   2056   2062     1   111.5100476 526.347200
   2047   2050   2059     1   111.5100476 526.347200
   2050   2059   2068     1   107.9700462 569.024000
   2053   2065   3974     1   107.9700462 569.024000
   2056   2062   3960     1   107.9700462 569.024000
   2062   3960   3954     1   112.4800480 524.673600
   2065   3974   3968     1   112.4800480 524.673600
   2070   2071   2083     1   114.2100488 537.225600
   2070   2074   2086     1   114.2100488 537.225600
   2070   2077   2080     1   114.2100488 537.225600
   2071   2070   2074     1   109.6600471 523.836800
   2071   2070   2077     1   109.6600471 523.836800
   2071   2083   2095     1   111.5100476 526.347200
   2074   2070   2077     1   109.6600471 523.836800
   2074   2086   2092     1   111.5100476 526.347200
   2077   2080   2089     1   111.5100476 526.347200
   2080   2089   2098     1   107.9700462 569.024000
   2083   2095   4002     1   107.9700462 569.024000
   2086   2092   3988     1   107.9700462 569.024000
   2092   3988   3982     1   112.4800480 524.673600
   2095   4002   3996     1   112.4800480 524.673600
   2100   2101   2113     1   114.2100488 537.225600
   2100   2104   2116     1   114.2100488 537.225600
   2100   2107   2110     1   114.2100488 537.225600
   2101   2100   2104     1   109.6600471 523.836800
   2101   2100   2107     1   109.6600471 523.836800
   2101   2113   2125     1   111.5100476 526.347200
   2104   2100   2107     1   109.6600471 523.836800
   2104   2116   2122     1   111.5100476 526.347200
   2107   2110   2119     1   111.5100476 526.347200
   2110   2119   2128     1   107.9700462 569.024000
   2113   2125   4030     1   107.9700462 569.024000
   2116   2122   4016     1   107.9700462 569.024000
   2122   4016   4010     1   112.4800480 524.673600
   2125   4030   4024     1   112.4800480 524.673600
   2130   2131   2143     1   114.2100488 537.225600
   2130   2134   2146     1   114.2100488 537.225600
   2130   2137   2140     1   114.2100488 537.225600
   2131   2130   2134     1   109.6600471 523.836800
   2131   2130   2137     1   109.6600471 523.836800
   2131   2143   2155     1   111.5100476 526.347200
   2134   2130   2137     1   109.6600471 523.836800
   2134   2146   2152     1   111.5100476 526.347200
   2137   2140   2149     1   111.5100476 526.347200
   2140   2149   2158     1   107.9700462 569.024000
   2143   2155   4058     1   107.9700462 569.024000
   2146   2152   4044     1   107.9700462 569.024000
   2152   4044   4038     1   112.4800480 524.673600
   2155   4058   4052     1   112.4800480 524.673600
   2160   2161   2173     1   114.2100488 537.225600
   2160   2164   2176     1   114.2100488 537.225600
   2160   2167   2170     1   114.2100488 537.225600
   2161   2160   2164     1   109.6600471 523.836800
   2161   2160   2167     1   109.6600471 523.836800
   2161   2173   2185     1   111.5100476 526.347200
   2164   2160   2167     1   109.6600471 523.836800
   2164   2176   2182     1   111.5100476 526.347200
   2167   2170   2179     1   111.5100476 526.347200
   2170   2179   2188     1   107.9700462 569.024000
   2173   2185   4086     1   107.9700462 569.024000
   2176   2182   4072     1   107.9700462 569.024000
   2182   4072   4066     1   112.4800480 524.673600
   2185   4086   4080     1   112.4800480 524.673600
   2190   2191   2203     1   114.2100488 537.225600
   2190   2194   2206     1   114.2100488 537.225600
   2190   2197   2200     1   114.2100488 537.225600
   2191   2190   2194     1   109.6600471 523.836800
   2191   2190   2197     1   109.6600471 523.836800
   2191   2203   2215     1   111.5100476 526.347200
   2194   2190   2197     1   109.6600471 523.836800
   2194   2206   2212     1   111.5100476 526.347200
   2197   2200   2209     1   111.5100476 526.347200
   2200   2209   2218     1   107.9700462 569.024000
   2203   2215   4114     1   107.9700462 569.024000
   2206   2212   4100     1   107.9700462 569.024000
   2212   4100   4094     1   112.4800480 524.673600
   2215   4114   4108     1   112.4800480 524.673600
   2220   2221   2233     1   114.2100488 537.225600
   2220   2224   2236     1   114.2100488 537.225600
   2220   2227   2230     1   114.2100488 537.225600
   2221   2220   2224     1   109.6600471 523.836800
   2221   2220   2227     1   109.6600471 523.836800
   2221   2233   2245     1   111.5100476 526.347200
   2224   2220   2227     1   109.6600471 523.836800
   2224   2236   2242     1   111.5100476 526.347200
   2227   2230   2239     1   111.5100476 526.347200
   2230   2239   2248     1   107.9700462 569.024000
   2233   2245   4142     1   107.9700462 569.024000
   2236   2242   4128     1   107.9700462 569.024000
   2242   4128   4122     1   112.4800480 524.673600
   2245   4142   4136     1   112.4800480 524.673600
   2250   2251   2263     1   114.2100488 537.225600
   2250   2254   2266     1   114.2100488 537.225600
   2250   2257   2260     1   114.2100488 537.225600
   2251   2250   2254     1   109.6600471 523.836800
   2251   2250   2257     1   109.6600471 523.836800
   2251   2263   2275     1   111.5100476 526.347200
   2254   2250   2257     1   109.6600471 523.836800
   2254   2266   2272     1   111.5100476 526.347200
   2257   2260   2269     1   111.5100476 526.347200
   2260   2269   2278     1   107.9700462 569.024000
   2263   2275   4170     1   107.9700462 569.024000
   2266   2272   4156     1   107.9700462 569.024000
   2272   4156   4150     1   112.4800480 524.673600
   2275   4170   4164     1   112.4800480 524.673600
   2280   2281   2293     1   114.2100488 537.225600
   2280   2284   2296     1   114.2100488 537.225600
   2280   2287   2290     1   114.2100488 537.225600
   2281   2280   2284     1   109.6600471 523.836800
   2281   2280   2287     1   109.6600471 523.836800
   2281   2293   2305     1   111.5100476 526.347200
   2284   2280   2287     1   109.6600471 523.836800
   2284   2296   2302     1   111.5100476 526.347200
   2287   2290   2299     1   111.5100476 526.347200
   2290   2299   2308     1   107.9700462 569.024000
   2293   2305   4198     1   107.9700462 569.024000
   2296   2302   4184     1   107.9700462 569.024000
   2302   4184   4178     1   112.4800480 524.673600
   2305   4198   4192     1   112.4800480 524.673600
   2310   2311   2323     1   114.2100488 537.225600
   2310   2314   2326     1   114.2100488 537.225600
   2310   2317   2320     1   114.2100488 537.225600
   2311   2310   2314     1   109.6600471 523.836800
   2311   2310   2317     1   109.6600471 523.836800
   2311   2323   2335     1   111.5100476 526.347200
   2314   2310   2317     1   109.6600471 523.836800
   2314   2326   2332     1   111.5100476 526.347200
   2317   2320   2329     1   111.5100476 526.347200
   2320   2329   2338     1   107.9700462 569.024000
   2323   2335   4226     1   107.9700462 569.024000
   2326   2332   4212     1   107.9700462 569.024000
   2332   4212   4206     1   112.4800480 524.673600
   2335   4226   4220     1   112.4800480 524.673600
   2340   2341   2353     1   114.2100488 537.225600
   2340   2344   2356     1   114.2100488 537.225600
   2340   2347   2350     1   114.2100488 537.225600
   2341   2340   2344     1   109.6600471 523.836800
   2341   2340   2347     1   109.6600471 523.836800
   2341   2353   2365     1   111.5100476 526.347200
   2344   2340   2347     1   109.6600471 523.836800
   2344   2356   2362     1   111.5100476 526.347200
   2347   2350   2359     1   111.5100476 526.347200
   2350   2359   2368     1   107.9700462 569.024000
   2353   2365   4254     1   107.9700462 569.024000
   2356   2362   4240     1   107.9700462 569.024000
   2362   4240   4234     1   112.4800480 524.673600
   2365   4254   4248     1   112.4800480 524.673600
   2370   2371   2383     1   114.2100488 537.225600
   2370   2374   2386     1   114.2100488 537.225600
   2370   2377   2380     1   114.2100488 537.225600
   2371   2370   2374     1   109.6600471 523.836800
   2371   2370   2377     1   109.6600471 523.836800
   2371   2383   2395     1   111.5100476 526.347200
   2374   2370   2377     1   109.6600471 523.836800
   2374   2386   2392     1   111.5100476 526.347200
   2377   2380   2389     1   111.5100476 526.347200
   2380   2389   2398     1   107.9700462 569.024000
   2383   2395   4282     1   107.9700462 569.024000
   2386   2392   4268     1   107.9700462 569.024000
   2392   4268   4262     1   112.4800480 524.673600
   2395   4282   4276     1   112.4800480 524.673600
   2400   2401   2413     1   114.2100488 537.225600
   2400   2404   2416     1   114.2100488 537.225600
   2400   2407   2410     1   114.2100488 537.225600
   2401   2400   2404     1   109.6600471 523.836800
   2401   2400   2407     1   109.6600471 523.836800
   2401   2413   2425     1   111.5100476 526.347200
   2404   2400   2407     1   109.6600471 523.836800
   2404   2416   2422     1   111.5100476 526.347200
   2407   2410   2419     1   111.5100476 526.347200
   2410   2419   2428     1   107.9700462 569.024000
   2413   2425   4310     1   107.9700462 569.024000
   2416   2422   4296     1   107.9700462 569.024000
   2422   4296   4290     1   112.4800480 524.673600
   2425   4310   4304     1   112.4800480 524.673600
   2430   2431   2443     1   114.2100488 537.225600
   2430   2434   2446     1   114.2100488 537.225600
   2430   2437   2440     1   114.2100488 537.225600
   2431   2430   2434     1   109.6600471 523.836800
   2431   2430   2437     1   109.6600471 523.836800
   2431   2443   2455     1   111.5100476 526.347200
   2434   2430   2437     1   109.6600471 523.836800
   2434   2446   2452     1   111.5100476 526.347200
   2437   2440   2449     1   111.5100476 526.347200
   2440   2449   2458     1   107.9700462 569.024000
   2443   2455   4338     1   107.9700462 569.024000
   2446   2452   4324     1   107.9700462 569.024000
   2452   4324   4318     1   112.4800480 524.673600
   2455   4338   4332     1   112.4800480 524.673600
   2460   2461   2473     1   114.2100488 537.225600
   2460   2464   2476     1   114.2100488 537.225600
   2460   2467   2470     1   114.2100488 537.225600
   2461   2460   2464     1   109.6600471 523.836800
   2461   2460   2467     1   109.6600471 523.836800
   2461   2473   2485     1   111.5100476 526.347200
   2464   2460   2467     1   109.6600471 523.836800
   2464   2476   2482     1   111.5100476 526.347200
   2467   2470   2479     1   111.5100476 526.347200
   2470   2479   2488     1   107.9700462 569.024000
   2473   2485   4366     1   107.9700462 569.024000
   2476   2482   4352     1   107.9700462 569.024000
   2482   4352   4346     1   112.4800480 524.673600
   2485   4366   4360     1   112.4800480 524.673600
   2490   2491   2503     1   114.2100488 537.225600
   2490   2494   2506     1   114.2100488 537.225600
   2490   2497   2500     1   114.2100488 537.225600
   2491   2490   2494     1   109.6600471 523.836800
   2491   2490   2497     1   109.6600471 523.836800
   2491   2503   2515     1   111.5100476 526.347200
   2494   2490   2497     1   109.6600471 523.836800
   2494   2506   2512     1   111.5100476 526.347200
   2497   2500   2509     1   111.5100476 526.347200
   2500   2509   2518     1   107.9700462 569.024000
   2503   2515   4394     1   107.9700462 569.024000
   2506   2512   4380     1   107.9700462 569.024000
   2512   4380   4374     1   112.4800480 524.673600
   2515   4394   4388     1   112.4800480 524.673600
   2520   2521   2533     1   114.2100488 537.225600
   2520   2524   2536     1   114.2100488 537.225600
   2520   2527   2530     1   114.2100488 537.225600
   2521   2520   2524     1   109.6600471 523.836800
   2521   2520   2527     1   109.6600471 523.836800
   2521   2533   2545     1   111.5100476 526.347200
   2524   2520   2527     1   109.6600471 523.836800
   2524   2536   2542     1   111.5100476 526.347200
   2527   2530   2539     1   111.5100476 526.347200
   2530   2539   2548     1   107.9700462 569.024000
   2533   2545   4422     1   107.9700462 569.024000
   2536   2542   4408     1   107.9700462 569.024000
   2542   4408   4402     1   112.4800480 524.673600
   2545   4422   4416     1   112.4800480 524.673600
   2550   2551   2563     1   114.2100488 537.225600
   2550   2554   2566     1   114.2100488 537.225600
   2550   2557   2560     1   114.2100488 537.225600
   2551   2550   2554     1   109.6600471 523.836800
   2551   2550   2557     1   109.6600471 523.836800
   2551   2563   2575     1   111.5100476 526.347200
   2554   2550   2557     1   109.6600471 523.836800
   2554   2566   2572     1   111.5100476 526.347200
   2557   2560   2569     1   111.5100476 526.347200
   2560   2569   2578     1   107.9700462 569.024000
   2563   2575   4450     1   107.9700462 569.024000
   2566   2572   4436     1   107.9700462 569.024000
   2572   4436   4430     1   112.4800480 524.673600
   2575   4450   4444     1   112.4800480 524.673600
   2580   2581   2593     1   114.2100488 537.225600
   2580   2584   2596     1   114.2100488 537.225600
   2580   2587   2590     1   114.2100488 537.225600
   2581   2580   2584     1   109.6600471 523.836800
   2581   2580   2587     1   109.6600471 523.836800
   2581   2593   2605     1   111.5100476 526.347200
   2584   2580   2587     1   109.6600471 523.836800
   2584   2596   2602     1   111.5100476 526.347200
   2587   2590   2599     1   111.5100476 526.347200
   2590   2599   2608     1   107.9700462 569.024000
   2593   2605   4478     1   107.9700462 569.024000
   2596   2602   4464     1   107.9700462 569.024000
   2602   4464   4458     1   112.4800480 524.673600
   2605   4478   4472     1   112.4800480 524.673600
   2610   2611   2623     1   114.2100488 537.225600
   2610   2614   2626     1   114.2100488 537.225600
   2610   2617   2620     1   114.2100488 537.225600
   2611   2610   2614     1   109.6600471 523.836800
   2611   2610   2617     1   109.6600471 523.836800
   2611   2623   2635     1   111.5100476 526.347200
   2614   2610   2617     1   109.6600471 523.836800
   2614   2626   2632     1   111.5100476 526.347200
   2617   2620   2629     1   111.5100476 526.347200
   2620   2629   2638     1   107.9700462 569.024000
   2623   2635   4506     1   107.9700462 569.024000
   2626   2632   4492     1   107.9700462 569.024000
   2632   4492   4486     1   112.4800480 524.673600
   2635   4506   4500     1   112.4800480 524.673600
   2640   2641   2653     1   114.2100488 537.225600
   2640   2644   2656     1   114.2100488 537.225600
   2640   2647   2650     1   114.2100488 537.225600
   2641   2640   2644     1   109.6600471 523.836800
   2641   2640   2647     1   109.6600471 523.836800
   2641   2653   2665     1   111.5100476 526.347200
   2644   2640   2647     1   109.6600471 523.836800
   2644   2656   2662     1   111.5100476 526.347200
   2647   2650   2659     1   111.5100476 526.347200
   2650   2659   2668     1   107.9700462 569.024000
   2653   2665   4534     1   107.9700462 569.024000
   2656   2662   4520     1   107.9700462 569.024000
   2662   4520   4514     1   112.4800480 524.673600
   2665   4534   4528     1   112.4800480 524.673600
   2670   2671   2683     1   114.2100488 537.225600
   2670   2674   2686     1   114.2100488 537.225600
   2670   2677   2680     1   114.2100488 537.225600
   2671   2670   2674     1   109.6600471 523.836800
   2671   2670   2677     1   109.6600471 523.836800
   2671   2683   2695     1   111.5100476 526.347200
   2674   2670   2677     1   109.6600471 523.836800
   2674   2686   2692     1   111.5100476 526.347200
   2677   2680   2689     1   111.5100476 526.347200
   2680   2689   2698     1   107.9700462 569.024000
   2683   2695   4562     1   107.9700462 569.024000
   2686   2692   4548     1   107.9700462 569.024000
   2692   4548   4542     1   112.4800480 524.673600
   2695   4562   4556     1   112.4800480 524.673600
   2700   2701   2713     1   114.2100488 537.225600
   2700   2704   2716     1   114.2100488 537.225600
   2700   2707   2710     1   114.2100488 537.225600
   2701   2700   2704     1   109.6600471 523.836800
   2701   2700   2707     1   109.6600471 523.836800
   2701   2713   2725     1   111.5100476 526.347200
   2704   2700   2707     1   109.6600471 523.836800
   2704   2716   2722     1   111.5100476 526.347200
   2707   2710   2719     1   111.5100476 526.347200
   2710   2719   2728     1   107.9700462 569.024000
   2713   2725   4590     1   107.9700462 569.024000
   2716   2722   4576     1   107.9700462 569.024000
   2722   4576   4570     1   112.4800480 524.673600
   2725   4590   4584     1   112.4800480 524.673600
   2730   2731   2743     1   114.2100488 537.225600
   2730   2734   2746     1   114.2100488 537.225600
   2730   2737   2740     1   114.2100488 537.225600
   2731   2730   2734     1   109.6600471 523.836800
   2731   2730   2737     1   109.6600471 523.836800
   2731   2743   2755     1   111.5100476 526.347200
   2734   2730   2737     1   109.6600471 523.836800
   2734   2746   2752     1   111.5100476 526.347200
   2737   2740   2749     1   111.5100476 526.347200
   2740   2749   2758     1   107.9700462 569.024000
   2743   2755   4618     1   107.9700462 569.024000
   2746   2752   4604     1   107.9700462 569.024000
   2752   4604   4598     1   112.4800480 524.673600
   2755   4618   4612     1   112.4800480 524.673600
   2760   2761   2773     1   114.2100488 537.225600
   2760   2764   2776     1   114.2100488 537.225600
   2760   2767   2770     1   114.2100488 537.225600
   2761   2760   2764     1   109.6600471 523.836800
   2761   2760   2767     1   109.6600471 523.836800
   2761   2773   2785     1   111.5100476 526.347200
   2764   2760   2767     1   109.6600471 523.836800
   2764   2776   2782     1   111.5100476 526.347200
   2767   2770   2779     1   111.5100476 526.347200
   2770   2779   2788     1   107.9700462 569.024000
   2773   2785   4646     1   107.9700462 569.024000
   2776   2782   4632     1   107.9700462 569.024000
   2782   4632   4626     1   112.4800480 524.673600
   2785   4646   4640     1   112.4800480 524.673600
   2790   2791   2803     1   114.2100488 537.225600
   2790   2794   2806     1   114.2100488 537.225600
   2790   2797   2800     1   114.2100488 537.225600
   2791   2790   2794     1   109.6600471 523.836800
   2791   2790   2797     1   109.6600471 523.836800
   2791   2803   2815     1   111.5100476 526.347200
   2794   2790   2797     1   109.6600471 523.836800
   2794   2806   2812     1   111.5100476 526.347200
   2797   2800   2809     1   111.5100476 526.347200
   2800   2809   2818     1   107.9700462 569.024000
   2803   2815   4674     1   107.9700462 569.024000
   2806   2812   4660     1   107.9700462 569.024000
   2812   4660   4654     1   112.4800480 524.673600
   2815   4674   4668     1   112.4800480 524.673600
   2820   2821   2833     1   114.2100488 537.225600
   2820   2824   2836     1   114.2100488 537.225600
   2820   2827   2830     1   114.2100488 537.225600
   2821   2820   2824     1   109.6600471 523.836800
   2821   2820   2827     1   109.6600471 523.836800
   2821   2833   2845     1   111.5100476 526.347200
   2824   2820   2827     1   109.6600471 523.836800
   2824   2836   2842     1   111.5100476 526.347200
   2827   2830   2839     1   111.5100476 526.347200
   2830   2839   2848     1   107.9700462 569.024000
   2833   2845   4702     1   107.9700462 569.024000
   2836   2842   4688     1   107.9700462 569.024000
   2842   4688   4682     1   112.4800480 524.673600
   2845   4702   4696     1   112.4800480 524.673600
   2850   2851   2863     1   114.2100488 537.225600
   2850   2854   2866     1   114.2100488 537.225600
   2850   2857   2860     1   114.2100488 537.225600
   2851   2850   2854     1   109.6600471 523.836800
   2851   2850   2857     1   109.6600471 523.836800
   2851   2863   2875     1   111.5100476 526.347200
   2854   2850   2857     1   109.6600471 523.836800
   2854   2866   2872     1   111.5100476 526.347200
   2857   2860   2869     1   111.5100476 526.347200
   2860   2869   2878     1   107.9700462 569.024000
   2863   2875   4730     1   107.9700462 569.024000
   2866   2872   4716     1   107.9700462 569.024000
   2872   4716   4710     1   112.4800480 524.673600
   2875   4730   4724     1   112.4800480 524.673600
   2880   2881   2893     1   114.2100488 537.225600
   2880   2884   2896     1   114.2100488 537.225600
   2880   2887   2890     1   114.2100488 537.225600
   2881   2880   2884     1   109.6600471 523.836800
   2881   2880   2887     1   109.6600471 523.836800
   2881   2893   2905     1   111.5100476 526.347200
   2884   2880   2887     1   109.6600471 523.836800
   2884   2896   2902     1   111.5100476 526.347200
   2887   2890   2899     1   111.5100476 526.347200
   2890   2899   2908     1   107.9700462 569.024000
   2893   2905   4758     1   107.9700462 569.024000
   2896   2902   4744     1   107.9700462 569.024000
   2902   4744   4738     1   112.4800480 524.673600
   2905   4758   4752     1   112.4800480 524.673600
   2910   2911   2923     1   114.2100488 537.225600
   2910   2914   2926     1   114.2100488 537.225600
   2910   2917   2920     1   114.2100488 537.225600
   2911   2910   2914     1   109.6600471 523.836800
   2911   2910   2917     1   109.6600471 523.836800
   2911   2923   2935     1   111.5100476 526.347200
   2914   2910   2917     1   109.6600471 523.836800
   2914   2926   2932     1   111.5100476 526.347200
   2917   2920   2929     1   111.5100476 526.347200
   2920   2929   2938     1   107.9700462 569.024000
   2923   2935   4786     1   107.9700462 569.024000
   2926   2932   4772     1   107.9700462 569.024000
   2932   4772   4766     1   112.4800480 524.673600
   2935   4786   4780     1   112.4800480 524.673600
   2940   2941   2953     1   114.2100488 537.225600
   2940   2944   2956     1   114.2100488 537.225600
   2940   2947   2950     1   114.2100488 537.225600
   2941   2940   2944     1   109.6600471 523.836800
   2941   2940   2947     1   109.6600471 523.836800
   2941   2953   2965     1   111.5100476 526.347200
   2944   2940   2947     1   109.6600471 523.836800
   2944   2956   2962     1   111.5100476 526.347200
   2947   2950   2959     1   111.5100476 526.347200
   2950   2959   2968     1   107.9700462 569.024000
   2953   2965   4814     1   107.9700462 569.024000
   2956   2962   4800     1   107.9700462 569.024000
   2962   4800   4794     1   112.4800480 524.673600
   2965   4814   4808     1   112.4800480 524.673600
   2970   2971   2983     1   114.2100488 537.225600
   2970   2974   2986     1   114.2100488 537.225600
   2970   2977   2980     1   114.2100488 537.225600
   2971   2970   2974     1   109.6600471 523.836800
   2971   2970   2977     1   109.6600471 523.836800
   2971   2983   2995     1   111.5100476 526.347200
   2974   2970   2977     1   109.6600471 523.836800
   2974   2986   2992     1   111.5100476 526.347200
   2977   2980   2989     1   111.5100476 526.347200
   2980   2989   2998     1   107.9700462 569.024000
   2983   2995   4842     1   107.9700462 569.024000
   2986   2992   4828     1   107.9700462 569.024000
   2992   4828   4822     1   112.4800480 524.673600
   2995   4842   4836     1   112.4800480 524.673600
   3000   3001   3013     1   114.2100488 537.225600
   3000   3004   3016     1   114.2100488 537.225600
   3000   3007   3010     1   114.2100488 537.225600
   3001   3000   3004     1   109.6600471 523.836800
   3001   3000   3007     1   109.6600471 523.836800
   3001   3013   3025     1   111.5100476 526.347200
   3004   3000   3007     1   109.6600471 523.836800
   3004   3016   3022     1   111.5100476 526.347200
   3007   3010   3019     1   111.5100476 526.347200
   3010   3019   3028     1   107.9700462 569.024000
   3013   3025   4870     1   107.9700462 569.024000
   3016   3022   4856     1   107.9700462 569.024000
   3022   4856   4850     1   112.4800480 524.673600
   3025   4870   4864     1   112.4800480 524.673600
   3030   3031   3043     1   114.2100488 537.225600
   3030   3034   3046     1   114.2100488 537.225600
   3030   3037   3040     1   114.2100488 537.225600
   3031   3030   3034     1   109.6600471 523.836800
   3031   3030   3037     1   109.6600471 523.836800
   3031   3043   3055     1   111.5100476 526.347200
   3034   3030   3037     1   109.6600471 523.836800
   3034   3046   3052     1   111.5100476 526.347200
   3037   3040   3049     1   111.5100476 526.347200
   3040   3049   3058     1   107.9700462 569.024000
   3043   3055   4898     1   107.9700462 569.024000
   3046   3052   4884     1   107.9700462 569.024000
   3052   4884   4878     1   112.4800480 524.673600
   3055   4898   4892     1   112.4800480 524.673600
   3060   3061   3073     1   114.2100488 537.225600
   3060   3064   3076     1   114.2100488 537.225600
   3060   3067   3070     1   114.2100488 537.225600
   3061   3060   3064     1   109.6600471 523.836800
   3061   3060   3067     1   109.6600471 523.836800
   3061   3073   3085     1   111.5100476 526.347200
   3064   3060   3067     1   109.6600471 523.836800
   3064   3076   3082     1   111.5100476 526.347200
   3067   3070   3079     1   111.5100476 526.347200
   3070   3079   3088     1   107.9700462 569.024000
   3073   3085   4926     1   107.9700462 569.024000
   3076   3082   4912     1   107.9700462 569.024000
   3082   4912   4906     1   112.4800480 524.673600
   3085   4926   4920     1   112.4800480 524.673600
   3090   3091   3103     1   114.2100488 537.225600
   3090   3094   3106     1   114.2100488 537.225600
   3090   3097   3100     1   114.2100488 537.225600
   3091   3090   3094     1   109.6600471 523.836800
   3091   3090   3097     1   109.6600471 523.836800
   3091   3103   3115     1   111.5100476 526.347200
   3094   3090   3097     1   109.6600471 523.836800
   3094   3106   3112     1   111.5100476 526.347200
   3097   3100   3109     1   111.5100476 526.347200
   3100   3109   3118     1   107.9700462 569.024000
   3103   3115   4954     1   107.9700462 569.024000
   3106   3112   4940     1   107.9700462 569.024000
   3112   4940   4934     1   112.4800480 524.673600
   3115   4954   4948     1   112.4800480 524.673600
   3120   3121   3133     1   114.2100488 537.225600
   3120   3124   3136     1   114.2100488 537.225600
   3120   3127   3130     1   114.2100488 537.225600
   3121   3120   3124     1   109.6600471 523.836800
   3121   3120   3127     1   109.6600471 523.836800
   3121   3133   3145     1   111.5100476 526.347200
   3124   3120   3127     1   109.6600471 523.836800
   3124   3136   3142     1   111.5100476 526.347200
   3127   3130   3139     1   111.5100476 526.347200
   3130   3139   3148     1   107.9700462 569.024000
   3133   3145   4982     1   107.9700462 569.024000
   3136   3142   4968     1   107.9700462 569.024000
   3142   4968   4962     1   112.4800480 524.673600
   3145   4982   4976     1   112.4800480 524.673600
   3150   3151   3163     1   114.2100488 537.225600
   3150   3154   3166     1   114.2100488 537.225600
   3150   3157   3160     1   114.2100488 537.225600
   3151   3150   3154     1   109.6600471 523.836800
   3151   3150   3157     1   109.6600471 523.836800
   3151   3163   3175     1   111.5100476 526.347200
   3154   3150   3157     1   109.6600471 523.836800
   3154   3166   3172     1   111.5100476 526.347200
   3157   3160   3169     1   111.5100476 526.347200
   3160   3169   3178     1   107.9700462 569.024000
   3163   3175   5010     1   107.9700462 569.024000
   3166   3172   4996     1   107.9700462 569.024000
   3172   4996   4990     1   112.4800480 524.673600
   3175   5010   5004     1   112.4800480 524.673600
   3180   3181   3193     1   114.2100488 537.225600
   3180   3184   3196     1   114.2100488 537.225600
   3180   3187   3190     1   114.2100488 537.225600
   3181   3180   3184     1   109.6600471 523.836800
   3181   3180   3187     1   109.6600471 523.836800
   3181   3193   3205     1   111.5100476 526.347200
   3184   3180   3187     1   109.6600471 523.836800
   3184   3196   3202     1   111.5100476 526.347200
   3187   3190   3199     1   111.5100476 526.347200
   3190   3199   3208     1   107.9700462 569.024000
   3193   3205   5038     1   107.9700462 569.024000
   3196   3202   5024     1   107.9700462 569.024000
   3202   5024   5018     1   112.4800480 524.673600
   3205   5038   5032     1   112.4800480 524.673600
   3210   3211   3223     1   114.2100488 537.225600
   3210   3214   3226     1   114.2100488 537.225600
   3210   3217   3220     1   114.2100488 537.225600
   3211   3210   3214     1   109.6600471 523.836800
   3211   3210   3217     1   109.6600471 523.836800
   3211   3223   3235     1   111.5100476 526.347200
   3214   3210   3217     1   109.6600471 523.836800
   3214   3226   3232     1   111.5100476 526.347200
   3217   3220   3229     1   111.5100476 526.347200
   3220   3229   3238     1   107.9700462 569.024000
   3223   3235   5066     1   107.9700462 569.024000
   3226   3232   5052     1   107.9700462 569.024000
   3232   5052   5046     1   112.4800480 524.673600
   3235   5066   5060     1   112.4800480 524.673600
   3240   3241   3253     1   114.2100488 537.225600
   3240   3244   3256     1   114.2100488 537.225600
   3240   3247   3250     1   114.2100488 537.225600
   3241   3240   3244     1   109.6600471 523.836800
   3241   3240   3247     1   109.6600471 523.836800
   3241   3253   3265     1   111.5100476 526.347200
   3244   3240   3247     1   109.6600471 523.836800
   3244   3256   3262     1   111.5100476 526.347200
   3247   3250   3259     1   111.5100476 526.347200
   3250   3259   3268     1   107.9700462 569.024000
   3253   3265   5094     1   107.9700462 569.024000
   3256   3262   5080     1   107.9700462 569.024000
   3262   5080   5074     1   112.4800480 524.673600
   3265   5094   5088     1   112.4800480 524.673600
   3270   3271   3283     1   114.2100488 537.225600
   3270   3274   3286     1   114.2100488 537.225600
   3270   3277   3280     1   114.2100488 537.225600
   3271   3270   3274     1   109.6600471 523.836800
   3271   3270   3277     1   109.6600471 523.836800
   3271   3283   3295     1   111.5100476 526.347200
   3274   3270   3277     1   109.6600471 523.836800
   3274   3286   3292     1   111.5100476 526.347200
   3277   3280   3289     1   111.5100476 526.347200
   3280   3289   3298     1   107.9700462 569.024000
   3283   3295   5122     1   107.9700462 569.024000
   3286   3292   5108     1   107.9700462 569.024000
   3292   5108   5102     1   112.4800480 524.673600
   3295   5122   5116     1   112.4800480 524.673600
   3300   3301   3313     1   114.2100488 537.225600
   3300   3304   3316     1   114.2100488 537.225600
   3300   3307   3310     1   114.2100488 537.225600
   3301   3300   3304     1   109.6600471 523.836800
   3301   3300   3307     1   109.6600471 523.836800
   3301   3313   3325     1   111.5100476 526.347200
   3304   3300   3307     1   109.6600471 523.836800
   3304   3316   3322     1   111.5100476 526.347200
   3307   3310   3319     1   111.5100476 526.347200
   3310   3319   3328     1   107.9700462 569.024000
   3313   3325   5150     1   107.9700462 569.024000
   3316   3322   5136     1   107.9700462 569.024000
   3322   5136   5130     1   112.4800480 524.673600
   3325   5150   5144     1   112.4800480 524.673600
   3330   3331   3343     1   114.2100488 537.225600
   3330   3334   3346     1   114.2100488 537.225600
   3330   3337   3340     1   114.2100488 537.225600
   3331   3330   3334     1   109.6600471 523.836800
   3331   3330   3337     1   109.6600471 523.836800
   3331   3343   3355     1   111.5100476 526.347200
   3334   3330   3337     1   109.6600471 523.836800
   3334   3346   3352     1   111.5100476 526.347200
   3337   3340   3349     1   111.5100476 526.347200
   3340   3349   3358     1   107.9700462 569.024000
   3343   3355   5178     1   107.9700462 569.024000
   3346   3352   5164     1   107.9700462 569.024000
   3352   5164   5158     1   112.4800480 524.673600
   3355   5178   5172     1   112.4800480 524.673600
   3360   3361   3373     1   114.2100488 537.225600
   3360   3364   3376     1   114.2100488 537.225600
   3360   3367   3370     1   114.2100488 537.225600
   3361   3360   3364     1   109.6600471 523.836800
   3361   3360   3367     1   109.6600471 523.836800
   3361   3373   3385     1   111.5100476 526.347200
   3364   3360   3367     1   109.6600471 523.836800
   3364   3376   3382     1   111.5100476 526.347200
   3367   3370   3379     1   111.5100476 526.347200
   3370   3379   3388     1   107.9700462 569.024000
   3373   3385   5206     1   107.9700462 569.024000
   3376   3382   5192     1   107.9700462 569.024000
   3382   5192   5186     1   112.4800480 524.673600
   3385   5206   5200     1   112.4800480 524.673600
   3390   3391   3403     1   114.2100488 537.225600
   3390   3394   3406     1   114.2100488 537.225600
   3390   3397   3400     1   114.2100488 537.225600
   3391   3390   3394     1   109.6600471 523.836800
   3391   3390   3397     1   109.6600471 523.836800
   3391   3403   3415     1   111.5100476 526.347200
   3394   3390   3397     1   109.6600471 523.836800
   3394   3406   3412     1   111.5100476 526.347200
   3397   3400   3409     1   111.5100476 526.347200
   3400   3409   3418     1   107.9700462 569.024000
   3403   3415   5234     1   107.9700462 569.024000
   3406   3412   5220     1   107.9700462 569.024000
   3412   5220   5214     1   112.4800480 524.673600
   3415   5234   5228     1   112.4800480 524.673600
   3420   3421   3433     1   114.2100488 537.225600
   3420   3424   3436     1   114.2100488 537.225600
   3420   3427   3430     1   114.2100488 537.225600
   3421   3420   3424     1   109.6600471 523.836800
   3421   3420   3427     1   109.6600471 523.836800
   3421   3433   3445     1   111.5100476 526.347200
   3424   3420   3427     1   109.6600471 523.836800
   3424   3436   3442     1   111.5100476 526.347200
   3427   3430   3439     1   111.5100476 526.347200
   3430   3439   3448     1   107.9700462 569.024000
   3433   3445   5262     1   107.9700462 569.024000
   3436   3442   5248     1   107.9700462 569.024000
   3442   5248   5242     1   112.4800480 524.673600
   3445   5262   5256     1   112.4800480 524.673600
   3450   3451   3463     1   114.2100488 537.225600
   3450   3454   3466     1   114.2100488 537.225600
   3450   3457   3460     1   114.2100488 537.225600
   3451   3450   3454     1   109.6600471 523.836800
   3451   3450   3457     1   109.6600471 523.836800
   3451   3463   3475     1   111.5100476 526.347200
   3454   3450   3457     1   109.6600471 523.836800
   3454   3466   3472     1   111.5100476 526.347200
   3457   3460   3469     1   111.5100476 526.347200
   3460   3469   3478     1   107.9700462 569.024000
   3463   3475   5290     1   107.9700462 569.024000
   3466   3472   5276     1   107.9700462 569.024000
   3472   5276   5270     1   112.4800480 524.673600
   3475   5290   5284     1   112.4800480 524.673600
   3480   3481   3493     1   114.2100488 537.225600
   3480   3484   3496     1   114.2100488 537.225600
   3480   3487   3490     1   114.2100488 537.225600
   3481   3480   3484     1   109.6600471 523.836800
   3481   3480   3487     1   109.6600471 523.836800
   3481   3493   3505     1   111.5100476 526.347200
   3484   3480   3487     1   109.6600471 523.836800
   3484   3496   3502     1   111.5100476 526.347200
   3487   3490   3499     1   111.5100476 526.347200
   3490   3499   3508     1   107.9700462 569.024000
   3493   3505   5318     1   107.9700462 569.024000
   3496   3502   5304     1   107.9700462 569.024000
   3502   5304   5298     1   112.4800480 524.673600
   3505   5318   5312     1   112.4800480 524.673600
   3510   3511   3523     1   114.2100488 537.225600
   3510   3514   3526     1   114.2100488 537.225600
   3510   3517   3520     1   114.2100488 537.225600
   3511   3510   3514     1   109.6600471 523.836800
   3511   3510   3517     1   109.6600471 523.836800
   3511   3523   3535     1   111.5100476 526.347200
   3514   3510   3517     1   109.6600471 523.836800
   3514   3526   3532     1   111.5100476 526.347200
   3517   3520   3529     1   111.5100476 526.347200
   3520   3529   3538     1   107.9700462 569.024000
   3523   3535   5346     1   107.9700462 569.024000
   3526   3532   5332     1   107.9700462 569.024000
   3532   5332   5326     1   112.4800480 524.673600
   3535   5346   5340     1   112.4800480 524.673600
   3540   3541   3553     1   114.2100488 537.225600
   3540   3544   3556     1   114.2100488 537.225600
   3540   3547   3550     1   114.2100488 537.225600
   3541   3540   3544     1   109.6600471 523.836800
   3541   3540   3547     1   109.6600471 523.836800
   3541   3553   3565     1   111.5100476 526.347200
   3544   3540   3547     1   109.6600471 523.836800
   3544   3556   3562     1   111.5100476 526.347200
   3547   3550   3559     1   111.5100476 526.347200
   3550   3559   3568     1   107.9700462 569.024000
   3553   3565   5374     1   107.9700462 569.024000
   3556   3562   5360     1   107.9700462 569.024000
   3562   5360   5354     1   112.4800480 524.673600
   3565   5374   5368     1   112.4800480 524.673600
   3570   3571   3583     1   114.2100488 537.225600
   3570   3574   3586     1   114.2100488 537.225600
   3570   3577   3580     1   114.2100488 537.225600
   3571   3570   3574     1   109.6600471 523.836800
   3571   3570   3577     1   109.6600471 523.836800
   3571   3583   3595     1   111.5100476 526.347200
   3574   3570   3577     1   109.6600471 523.836800
   3574   3586   3592     1   111.5100476 526.347200
   3577   3580   3589     1   111.5100476 526.347200
   3580   3589   3598     1   107.9700462 569.024000
   3583   3595   5402     1   107.9700462 569.024000
   3586   3592   5388     1   107.9700462 569.024000
   3592   5388   5382     1   112.4800480 524.673600
   3595   5402   5396     1   112.4800480 524.673600
   3600   3601   3613     1   114.2100488 537.225600
   3600   3604   3616     1   114.2100488 537.225600
   3600   3607   3610     1   114.2100488 537.225600
   3601   3600   3604     1   109.6600471 523.836800
   3601   3600   3607     1   109.6600471 523.836800
   3601   3613   3625     1   111.5100476 526.347200
   3604   3600   3607     1   109.6600471 523.836800
   3604   3616   3622     1   111.5100476 526.347200
   3607   3610   3619     1   111.5100476 526.347200
   3610   3619   3628     1   107.9700462 569.024000
   3613   3625   5430     1   107.9700462 569.024000
   3616   3622   5416     1   107.9700462 569.024000
   3622   5416   5410     1   112.4800480 524.673600
   3625   5430   5424     1   112.4800480 524.673600
   3630   3631   3643     1   114.2100488 537.225600
   3630   3634   3646     1   114.2100488 537.225600
   3630   3637   3640     1   114.2100488 537.225600
   3631   3630   3634     1   109.6600471 523.836800
   3631   3630   3637     1   109.6600471 523.836800
   3631   3643   3655     1   111.5100476 526.347200
   3634   3630   3637     1   109.6600471 523.836800
   3634   3646   3652     1   111.5100476 526.347200
   3637   3640   3649     1   111.5100476 526.347200
   3640   3649   3658     1   107.9700462 569.024000
   3643   3655   5458     1   107.9700462 569.024000
   3646   3652   5444     1   107.9700462 569.024000
   3652   5444   5438     1   112.4800480 524.673600
   3655   5458   5452     1   112.4800480 524.673600
   3660   3661   3673     1   114.2100488 537.225600
   3660   3664   3676     1   114.2100488 537.225600
   3660   3667   3670     1   114.2100488 537.225600
   3661   3660   3664     1   109.6600471 523.836800
   3661   3660   3667     1   109.6600471 523.836800
   3661   3673   3685     1   111.5100476 526.347200
   3664   3660   3667     1   109.6600471 523.836800
   3664   3676   3682     1   111.5100476 526.347200
   3667   3670   3679     1   111.5100476 526.347200
   3670   3679   3688     1   107.9700462 569.024000
   3673   3685   5486     1   107.9700462 569.024000
   3676   3682   5472     1   107.9700462 569.024000
   3682   5472   5466     1   112.4800480 524.673600
   3685   5486   5480     1   112.4800480 524.673600
   3690   3691   3703     1   114.2100488 537.225600
   3690   3694   3706     1   114.2100488 537.225600
   3690   3697   3700     1   114.2100488 537.225600
   3691   3690   3694     1   109.6600471 523.836800
   3691   3690   3697     1   109.6600471 523.836800
   3691   3703   3715     1   111.5100476 526.347200
   3694   3690   3697     1   109.6600471 523.836800
   3694   3706   3712     1   111.5100476 526.347200
   3697   3700   3709     1   111.5100476 526.347200
   3700   3709   3718     1   107.9700462 569.024000
   3703   3715   5514     1   107.9700462 569.024000
   3706   3712   5500     1   107.9700462 569.024000
   3712   5500   5494     1   112.4800480 524.673600
   3715   5514   5508     1   112.4800480 524.673600
   3720   3721   3733     1   114.2100488 537.225600
   3720   3724   3736     1   114.2100488 537.225600
   3720   3727   3730     1   114.2100488 537.225600
   3721   3720   3724     1   109.6600471 523.836800
   3721   3720   3727     1   109.6600471 523.836800
   3721   3733   3745     1   111.5100476 526.347200
   3724   3720   3727     1   109.6600471 523.836800
   3724   3736   3742     1   111.5100476 526.347200
   3727   3730   3739     1   111.5100476 526.347200
   3730   3739   3748     1   107.9700462 569.024000
   3733   3745   5542     1   107.9700462 569.024000
   3736   3742   5528     1   107.9700462 569.024000
   3742   5528   5522     1   112.4800480 524.673600
   3745   5542   5536     1   112.4800480 524.673600
   3750   3751   3763     1   114.2100488 537.225600
   3750   3754   3766     1   114.2100488 537.225600
   3750   3757   3760     1   114.2100488 537.225600
   3751   3750   3754     1   109.6600471 523.836800
   3751   3750   3757     1   109.6600471 523.836800
   3751   3763   3775     1   111.5100476 526.347200
   3754   3750   3757     1   109.6600471 523.836800
   3754   3766   3772     1   111.5100476 526.347200
   3757   3760   3769     1   111.5100476 526.347200
   3760   3769   3778     1   107.9700462 569.024000
   3763   3775   5570     1   107.9700462 569.024000
   3766   3772   5556     1   107.9700462 569.024000
   3772   5556   5550     1   112.4800480 524.673600
   3775   5570   5564     1   112.4800480 524.673600
   3780   3783   3786     1   111.5100476 526.347200
   3783   3780   3789     1   114.2100488 537.225600
   3783   3786   3792     1   107.9700462 569.024000
   3794   3797   3800     1   111.5100476 526.347200
   3797   3800   3806     1   107.9700462 569.024000
   3797   3794   3803     1   114.2100488 537.225600
   3808   3811   3814     1   111.5100476 526.347200
   3811   3808   3817     1   114.2100488 537.225600
   3811   3814   3820     1   107.9700462 569.024000
   3822   3825   3828     1   111.5100476 526.347200
   3825   3828   3834     1   107.9700462 569.024000
   3825   3822   3831     1   114.2100488 537.225600
   3836   3839   3842     1   111.5100476 526.347200
   3839   3836   3845     1   114.2100488 537.225600
   3839   3842   3848     1   107.9700462 569.024000
   3850   3853   3856     1   111.5100476 526.347200
   3853   3856   3862     1   107.9700462 569.024000
   3853   3850   3859     1   114.2100488 537.225600
   3864   3867   3870     1   111.5100476 526.347200
   3867   3864   3873     1   114.2100488 537.225600
   3867   3870   3876     1   107.9700462 569.024000
   3878   3881   3884     1   111.5100476 526.347200
   3881   3884   3890     1   107.9700462 569.024000
   3881   3878   3887     1   114.2100488 537.225600
   3892   3895   3898     1   111.5100476 526.347200
   3895   3892   3901     1   114.2100488 537.225600
   3895   3898   3904     1   107.9700462 569.024000
   3906   3909   3912     1   111.5100476 526.347200
   3909   3912   3918     1   107.9700462 569.024000
   3909   3906   3915     1   114.2100488 537.225600
   3920   3923   3926     1   111.5100476 526.347200
   3923   3920   3929     1   114.2100488 537.225600
   3923   3926   3932     1   107.9700462 569.024000
   3934   3937   3940     1   111.5100476 526.347200
   3937   3940   3946     1   107.9700462 569.024000
   3937   3934   3943     1   114.2100488 537.225600
   3948   3951   3954     1   111.5100476 526.347200
   3951   3948   3957     1   114.2100488 537.225600
   3951   3954   3960     1   107.9700462 569.024000
   3962   3965   3968     1   111.5100476 526.347200
   3965   3968   3974     1   107.9700462 569.024000
   3965   3962   3971     1   114.2100488 537.225600
   3976   3979   3982     1   111.5100476 526.347200
   3979   3976   3985     1   114.2100488 537.225600
   3979   3982   3988     1   107.9700462 569.024000
   3990   3993   3996     1   111.5100476 526.347200
   3993   3996   4002     1   107.9700462 569.024000
   3993   3990   3999     1   114.2100488 537.225600
   4004   4007   4010     1   111.5100476 526.347200
   4007   4004   4013     1   114.2100488 537.225600
   4007   4010   4016     1   107.9700462 569.024000
   4018   4021   4024     1   111.5100476 526.347200
   4021   4024   4030     1   107.9700462 569.024000
   4021   4018   4027     1   114.2100488 537.225600
   4032   4035   4038     1   111.5100476 526.347200
   4035   4032   4041     1   114.2100488 537.225600
   4035   4038   4044     1   107.9700462 569.024000
   4046   4049   4052     1   111.5100476 526.347200
   4049   4052   4058     1   107.9700462 569.024000
   4049   4046   4055     1   114.2100488 537.225600
   4060   4063   4066     1   111.5100476 526.347200
   4063   4060   4069     1   114.2100488 537.225600
   4063   4066   4072     1   107.9700462 569.024000
   4074   4077   4080     1   111.5100476 526.347200
   4077   4080   4086     1   107.9700462 569.024000
   4077   4074   4083     1   114.2100488 537.225600
   4088   4091   4094     1   111.5100476 526.347200
   4091   4088   4097     1   114.2100488 537.225600
   4091   4094   4100     1   107.9700462 569.024000
   4102   4105   4108     1   111.5100476 526.347200
   4105   4108   4114     1   107.9700462 569.024000
   4105   4102   4111     1   114.2100488 537.225600
   4116   4119   4122     1   111.5100476 526.347200
   4119   4116   4125     1   114.2100488 537.225600
   4119   4122   4128     1   107.9700462 569.024000
   4130   4133   4136     1   111.5100476 526.347200
   4133   4136   4142     1   107.9700462 569.024000
   4133   4130   4139     1   114.2100488 537.225600
   4144   4147   4150     1   111.5100476 526.347200
   4147   4144   4153     1   114.2100488 537.225600
   4147   4150   4156     1   107.9700462 569.024000
   4158   4161   4164     1   111.5100476 526.347200
   4161   4164   4170     1   107.9700462 569.024000
   4161   4158   4167     1   114.2100488 537.225600
   4172   4175   4178     1   111.5100476 526.347200
   4175   4172   4181     1   114.2100488 537.225600
   4175   4178   4184     1   107.9700462 569.024000
   4186   4189   4192     1   111.5100476 526.347200
   4189   4192   4198     1   107.9700462 569.024000
   4189   4186   4195     1   114.2100488 537.225600
   4200   4203   4206     1   111.5100476 526.347200
   4203   4200   4209     1   114.2100488 537.225600
   4203   4206   4212     1   107.9700462 569.024000
   4214   4217   4220     1   111.5100476 526.347200
   4217   4220   4226     1   107.9700462 569.024000
   4217   4214   4223     1   114.2100488 537.225600
   4228   4231   4234     1   111.5100476 526.347200
   4231   4228   4237     1   114.2100488 537.225600
   4231   4234   4240     1   107.9700462 569.024000
   4242   4245   4248     1   111.5100476 526.347200
   4245   4248   4254     1   107.9700462 569.024000
   4245   4242   4251     1   114.2100488 537.225600
   4256   4259   4262     1   111.5100476 526.347200
   4259   4256   4265     1   114.2100488 537.225600
   4259   4262   4268     1   107.9700462 569.024000
   4270   4273   4276     1   111.5100476 526.347200
   4273   4276   4282     1   107.9700462 569.024000
   4273   4270   4279     1   114.2100488 537.225600
   4284   4287   4290     1   111.5100476 526.347200
   4287   4284   4293     1   114.2100488 537.225600
   4287   4290   4296     1   107.9700462 569.024000
   4298   4301   4304     1   111.5100476 526.347200
   4301   4304   4310     1   107.9700462 569.024000
   4301   4298   4307     1   114.2100488 537.225600
   4312   4315   4318     1   111.5100476 526.347200
   4315   4312   4321     1   114.2100488 537.225600
   4315   4318   4324     1   107.9700462 569.024000
   4326   4329   4332     1   111.5100476 526.347200
   4329   4332   4338     1   107.9700462 569.024000
   4329   4326   4335     1   114.2100488 537.225600
   4340   4343   4346     1   111.5100476 526.347200
   4343   4340   4349     1   114.2100488 537.225600
   4343   4346   4352     1   107.9700462 569.024000
   4354   4357   4360     1   111.5100476 526.347200
   4357   4360   4366     1   107.9700462 569.024000
   4357   4354   4363     1   114.2100488 537.225600
   4368   4371   4374     1   111.5100476 526.347200
   4371   4368   4377     1   114.2100488 537.225600
   4371   4374   4380     1   107.9700462 569.024000
   4382   4385   4388     1   111.5100476 526.347200
   4385   4388   4394     1   107.9700462 569.024000
   4385   4382   4391     1   114.2100488 537.225600
   4396   4399   4402     1   111.5100476 526.347200
   4399   4396   4405     1   114.2100488 537.225600
   4399   4402   4408     1   107.9700462 569.024000
   4410   4413   4416     1   111.5100476 526.347200
   4413   4416   4422     1   107.9700462 569.024000
   4413   4410   4419     1   114.2100488 537.225600
   4424   4427   4430     1   111.5100476 526.347200
   4427   4424   4433     1   114.2100488 537.225600
   4427   4430   4436     1   107.9700462 569.024000
   4438   4441   4444     1   111.5100476 526.347200
   4441   4444   4450     1   107.9700462 569.024000
   4441   4438   4447     1   114.2100488 537.225600
   4452   4455   4458     1   111.5100476 526.347200
   4455   4452   4461     1   114.2100488 537.225600
   4455   4458   4464     1   107.9700462 569.024000
   4466   4469   4472     1   111.5100476 526.347200
   4469   4472   4478     1   107.9700462 569.024000
   4469   4466   4475     1   114.2100488 537.225600
   4480   4483   4486     1   111.5100476 526.347200
   4483   4480   4489     1   114.2100488 537.225600
   4483   4486   4492     1   107.9700462 569.024000
   4494   4497   4500     1   111.5100476 526.347200
   4497   4500   4506     1   107.9700462 569.024000
   4497   4494   4503     1   114.2100488 537.225600
   4508   4511   4514     1   111.5100476 526.347200
   4511   4508   4517     1   114.2100488 537.225600
   4511   4514   4520     1   107.9700462 569.024000
   4522   4525   4528     1   111.5100476 526.347200
   4525   4528   4534     1   107.9700462 569.024000
   4525   4522   4531     1   114.2100488 537.225600
   4536   4539   4542     1   111.5100476 526.347200
   4539   4536   4545     1   114.2100488 537.225600
   4539   4542   4548     1   107.9700462 569.024000
   4550   4553   4556     1   111.5100476 526.347200
   4553   4556   4562     1   107.9700462 569.024000
   4553   4550   4559     1   114.2100488 537.225600
   4564   4567   4570     1   111.5100476 526.347200
   4567   4564   4573     1   114.2100488 537.225600
   4567   4570   4576     1   107.9700462 569.024000
   4578   4581   4584     1   111.5100476 526.347200
   4581   4584   4590     1   107.9700462 569.024000
   4581   4578   4587     1   114.2100488 537.225600
   4592   4595   4598     1   111.5100476 526.347200
   4595   4592   4601     1   114.2100488 537.225600
   4595   4598   4604     1   107.9700462 569.024000
   4606   4609   4612     1   111.5100476 526.347200
   4609   4612   4618     1   107.9700462 569.024000
   4609   4606   4615     1   114.2100488 537.225600
   4620   4623   4626     1   111.5100476 526.347200
   4623   4620   4629     1   114.2100488 537.225600
   4623   4626   4632     1   107.9700462 569.024000
   4634   4637   4640     1   111.5100476 526.347200
   4637   4640   4646     1   107.9700462 569.024000
   4637   4634   4643     1   114.2100488 537.225600
   4648   4651   4654     1   111.5100476 526.347200
   4651   4648   4657     1   114.2100488 537.225600
   4651   4654   4660     1   107.9700462 569.024000
   4662   4665   4668     1   111.5100476 526.347200
   4665   4668   4674     1   107.9700462 569.024000
   4665   4662   4671     1   114.2100488 537.225600
   4676   4679   4682     1   111.5100476 526.347200
   4679   4676   4685     1   114.2100488 537.225600
   4679   4682   4688     1   107.9700462 569.024000
   4690   4693   4696     1   111.5100476 526.347200
   4693   4696   4702     1   107.9700462 569.024000
   4693   4690   4699     1   114.2100488 537.225600
   4704   4707   4710     1   111.5100476 526.347200
   4707   4704   4713     1   114.2100488 537.225600
   4707   4710   4716     1   107.9700462 569.024000
   4718   4721   4724     1   111.5100476 526.347200
   4721   4724   4730     1   107.9700462 569.024000
   4721   4718   4727     1   114.2100488 537.225600
   4732   4735   4738     1   111.5100476 526.347200
   4735   4732   4741     1   114.2100488 537.225600
   4735   4738   4744     1   107.9700462 569.024000
   4746   4749   4752     1   111.5100476 526.347200
   4749   4752   4758     1   107.9700462 569.024000
   4749   4746   4755     1   114.2100488 537.225600
   4760   4763   4766     1   111.5100476 526.347200
   4763   4760   4769     1   114.2100488 537.225600
   4763   4766   4772     1   107.9700462 569.024000
   4774   4777   4780     1   111.5100476 526.347200
   4777   4780   4786     1   107.9700462 569.024000
   4777   4774   4783     1   114.2100488 537.225600
   4788   4791   4794     1   111.5100476 526.347200
   4791   4788   4797     1   114.2100488 537.225600
   4791   4794   4800     1   107.9700462 569.024000
   4802   4805   4808     1   111.5100476 526.347200
   4805   4808   4814     1   107.9700462 569.024000
   4805   4802   4811     1   114.2100488 537.225600
   4816   4819   4822     1   111.5100476 526.347200
   4819   4816   4825     1   114.2100488 537.225600
   4819   4822   4828     1   107.9700462 569.024000
   4830   4833   4836     1   111.5100476 526.347200
   4833   4836   4842     1   107.9700462 569.024000
   4833   4830   4839     1   114.2100488 537.225600
   4844   4847   4850     1   111.5100476 526.347200
   4847   4844   4853     1   114.2100488 537.225600
   4847   4850   4856     1   107.9700462 569.024000
   4858   4861   4864     1   111.5100476 526.347200
   4861   4864   4870     1   107.9700462 569.024000
   4861   4858   4867     1   114.2100488 537.225600
   4872   4875   4878     1   111.5100476 526.347200
   4875   4872   4881     1   114.2100488 537.225600
   4875   4878   4884     1   107.9700462 569.024000
   4886   4889   4892     1   111.5100476 526.347200
   4889   4892   4898     1   107.9700462 569.024000
   4889   4886   4895     1   114.2100488 537.225600
   4900   4903   4906     1   111.5100476 526.347200
   4903   4900   4909     1   114.2100488 537.225600
   4903   4906   4912     1   107.9700462 569.024000
   4914   4917   4920     1   111.5100476 526.347200
   4917   4920   4926     1   107.9700462 569.024000
   4917   4914   4923     1   114.2100488 537.225600
   4928   4931   4934     1   111.5100476 526.347200
   4931   4928   4937     1   114.2100488 537.225600
   4931   4934   4940     1   107.9700462 569.024000
   4942   4945   4948     1   111.5100476 526.347200
   4945   4948   4954     1   107.9700462 569.024000
   4945   4942   4951     1   114.2100488 537.225600
   4956   4959   4962     1   111.5100476 526.347200
   4959   4956   4965     1   114.2100488 537.225600
   4959   4962   4968     1   107.9700462 569.024000
   4970   4973   4976     1   111.5100476 526.347200
   4973   4976   4982     1   107.9700462 569.024000
   4973   4970   4979     1   114.2100488 537.225600
   4984   4987   4990     1   111.5100476 526.347200
   4987   4984   4993     1   114.2100488 537.225600
   4987   4990   4996     1   107.9700462 569.024000
   4998   5001   5004     1   111.5100476 526.347200
   5001   5004   5010     1   107.9700462 569.024000
   5001   4998   5007     1   114.2100488 537.225600
   5012   5015   5018     1   111.5100476 526.347200
   5015   5012   5021     1   114.2100488 537.225600
   5015   5018   5024     1   107.9700462 569.024000
   5026   5029   5032     1   111.5100476 526.347200
   5029   5032   5038     1   107.9700462 569.024000
   5029   5026   5035     1   114.2100488 537.225600
   5040   5043   5046     1   111.5100476 526.347200
   5043   5040   5049     1   114.2100488 537.225600
   5043   5046   5052     1   107.9700462 569.024000
   5054   5057   5060     1   111.5100476 526.347200
   5057   5060   5066     1   107.9700462 569.024000
   5057   5054   5063     1   114.2100488 537.225600
   5068   5071   5074     1   111.5100476 526.347200
   5071   5068   5077     1   114.2100488 537.225600
   5071   5074   5080     1   107.9700462 569.024000
   5082   5085   5088     1   111.5100476 526.347200
   5085   5088   5094     1   107.9700462 569.024000
   5085   5082   5091     1   114.2100488 537.225600
   5096   5099   5102     1   111.5100476 526.347200
   5099   5096   5105     1   114.2100488 537.225600
   5099   5102   5108     1   107.9700462 569.024000
   5110   5113   5116     1   111.5100476 526.347200
   5113   5116   5122     1   107.9700462 569.024000
   5113   5110   5119     1   114.2100488 537.225600
   5124   5127   5130     1   111.5100476 526.347200
   5127   5124   5133     1   114.2100488 537.225600
   5127   5130   5136     1   107.9700462 569.024000
   5138   5141   5144     1   111.5100476 526.347200
   5141   5144   5150     1   107.9700462 569.024000
   5141   5138   5147     1   114.2100488 537.225600
   5152   5155   5158     1   111.5100476 526.347200
   5155   5152   5161     1   114.2100488 537.225600
   5155   5158   5164     1   107.9700462 569.024000
   5166   5169   5172     1   111.5100476 526.347200
   5169   5172   5178     1   107.9700462 569.024000
   5169   5166   5175     1   114.2100488 537.225600
   5180   5183   5186     1   111.5100476 526.347200
   5183   5180   5189     1   114.2100488 537.225600
   5183   5186   5192     1   107.9700462 569.024000
   5194   5197   5200     1   111.5100476 526.347200
   5197   5200   5206     1   107.9700462 569.024000
   5197   5194   5203     1   114.2100488 537.225600
   5208   5211   5214     1   111.5100476 526.347200
   5211   5208   5217     1   114.2100488 537.225600
   5211   5214   5220     1   107.9700462 569.024000
   5222   5225   5228     1   111.5100476 526.347200
   5225   5228   5234     1   107.9700462 569.024000
   5225   5222   5231     1   114.2100488 537.225600
   5236   5239   5242     1   111.5100476 526.347200
   5239   5236   5245     1   114.2100488 537.225600
   5239   5242   5248     1   107.9700462 569.024000
   5250   5253   5256     1   111.5100476 526.347200
   5253   5256   5262     1   107.9700462 569.024000
   5253   5250   5259     1   114.2100488 537.225600
   5264   5267   5270     1   111.5100476 526.347200
   5267   5264   5273     1   114.2100488 537.225600
   5267   5270   5276     1   107.9700462 569.024000
   5278   5281   5284     1   111.5100476 526.347200
   5281   5284   5290     1   107.9700462 569.024000
   5281   5278   5287     1   114.2100488 537.225600
   5292   5295   5298     1   111.5100476 526.347200
   5295   5292   5301     1   114.2100488 537.225600
   5295   5298   5304     1   107.9700462 569.024000
   5306   5309   5312     1   111.5100476 526.347200
   5309   5312   5318     1   107.9700462 569.024000
   5309   5306   5315     1   114.2100488 537.225600
   5320   5323   5326     1   111.5100476 526.347200
   5323   5320   5329     1   114.2100488 537.225600
   5323   5326   5332     1   107.9700462 569.024000
   5334   5337   5340     1   111.5100476 526.347200
   5337   5340   5346     1   107.9700462 569.024000
   5337   5334   5343     1   114.2100488 537.225600
   5348   5351   5354     1   111.5100476 526.347200
   5351   5348   5357     1   114.2100488 537.225600
   5351   5354   5360     1   107.9700462 569.024000
   5362   5365   5368     1   111.5100476 526.347200
   5365   5368   5374     1   107.9700462 569.024000
   5365   5362   5371     1   114.2100488 537.225600
   5376   5379   5382     1   111.5100476 526.347200
   5379   5376   5385     1   114.2100488 537.225600
   5379   5382   5388     1   107.9700462 569.024000
   5390   5393   5396     1   111.5100476 526.347200
   5393   5396   5402     1   107.9700462 569.024000
   5393   5390   5399     1   114.2100488 537.225600
   5404   5407   5410     1   111.5100476 526.347200
   5407   5404   5413     1   114.2100488 537.225600
   5407   5410   5416     1   107.9700462 569.024000
   5418   5421   5424     1   111.5100476 526.347200
   5421   5424   5430     1   107.9700462 569.024000
   5421   5418   5427     1   114.2100488 537.225600
   5432   5435   5438     1   111.5100476 526.347200
   5435   5432   5441     1   114.2100488 537.225600
   5435   5438   5444     1   107.9700462 569.024000
   5446   5449   5452     1   111.5100476 526.347200
   5449   5452   5458     1   107.9700462 569.024000
   5449   5446   5455     1   114.2100488 537.225600
   5460   5463   5466     1   111.5100476 526.347200
   5463   5460   5469     1   114.2100488 537.225600
   5463   5466   5472     1   107.9700462 569.024000
   5474   5477   5480     1   111.5100476 526.347200
   5477   5480   5486     1   107.9700462 569.024000
   5477   5474   5483     1   114.2100488 537.225600
   5488   5491   5494     1   111.5100476 526.347200
   5491   5488   5497     1   114.2100488 537.225600
   5491   5494   5500     1   107.9700462 569.024000
   5502   5505   5508     1   111.5100476 526.347200
   5505   5508   5514     1   107.9700462 569.024000
   5505   5502   5511     1   114.2100488 537.225600
   5516   5519   5522     1   111.5100476 526.347200
   5519   5516   5525     1   114.2100488 537.225600
   5519   5522   5528     1   107.9700462 569.024000
   5530   5533   5536     1   111.5100476 526.347200
   5533   5536   5542     1   107.9700462 569.024000
   5533   5530   5539     1   114.2100488 537.225600
   5544   5547   5550     1   111.5100476 526.347200
   5547   5544   5553     1   114.2100488 537.225600
   5547   5550   5556     1   107.9700462 569.024000
   5558   5561   5564     1   111.5100476 526.347200
   5561   5564   5570     1   107.9700462 569.024000
   5561   5558   5567     1   114.2100488 537.225600
      1      2      3     1   109.7800468 425.094400
      1      2      4     1   109.7800468 425.094400
      1      5      6     1   109.7800468 425.094400
      1      5      7     1   109.7800468 425.094400
      2      8      9     1   109.8000471 387.438400
      2      8     10     1   109.8000471 387.438400
      3      2      8     1   109.5600471 388.275200
      3      2      4     1   108.4600466 328.025600
      4      2      8     1   109.5600471 388.275200
      5     11     12     1   109.8000471 387.438400
      5     11     13     1   109.8000471 387.438400
      6      5     11     1   109.5600471 388.275200
      6      5      7     1   108.4600466 328.025600
      7      5     11     1   109.5600471 388.275200
      8     14     15     1   110.5600475 386.601600
      8     14     16     1   110.5600475 386.601600
      9      8     14     1   109.8000471 387.438400
      9      8     10     1   107.5800459 329.699200
     10      8     14     1   109.8000471 387.438400
     11     17     18     1   110.5600475 386.601600
     11     17     19     1   110.5600475 386.601600
     12     11     17     1   109.8000471 387.438400
     12     11     13     1   107.5800459 329.699200
     13     11     17     1   109.8000471 387.438400
     14     20     58     1   110.1100470 384.091200
     15     14     20     1   108.0100461 406.684800
     15     14     16     1   109.7500473 328.025600
     16     14     20     1   108.0100461 406.684800
     17     21     59     1   110.1100470 384.091200
     18     17     21     1   108.0100461 406.684800
     18     17     19     1   109.7500473 328.025600
     19     17     21     1   108.0100461 406.684800
     20     28     29     1   108.0100461 406.684800
     20     28     30     1   108.0100461 406.684800
     20     31     32     1   108.0100461 406.684800
     20     31     33     1   108.0100461 406.684800
     21     22     23     1   108.0100461 406.684800
     21     22     24     1   108.0100461 406.684800
     21     25     26     1   108.0100461 406.684800
     21     25     27     1   108.0100461 406.684800
     22     21     59     1   110.1100470 384.091200
     22     34     35     1   109.8000471 387.438400
     22     34     36     1   109.8000471 387.438400
     23     22     34     1   110.5600475 386.601600
     23     22     24     1   109.7500473 328.025600
     24     22     34     1   110.5600475 386.601600
     25     21     59     1   110.1100470 384.091200
     25     37     38     1   109.8000471 387.438400
     25     37     39     1   109.8000471 387.438400
     26     25     37     1   110.5600475 386.601600
     26     25     27     1   109.7500473 328.025600
     27     25     37     1   110.5600475 386.601600
     28     20     58     1   110.1100470 384.091200
     28     40     41     1   109.8000471 387.438400
     28     40     42     1   109.8000471 387.438400
     29     28     40     1   110.5600475 386.601600
     29     28     30     1   109.7500473 328.025600
     30     28     40     1   110.5600475 386.601600
     31     20     58     1   110.1100470 384.091200
     31     43     44     1   109.8000471 387.438400
     31     43     45     1   109.8000471 387.438400
     32     31     43     1   110.5600475 386.601600
     32     31     33     1   109.7500473 328.025600
     33     31     43     1   110.5600475 386.601600
     34     55     56     1   109.8000471 387.438400
     34     55     57     1   109.8000471 387.438400
     35     34     55     1   109.8000471 387.438400
     35     34     36     1   107.5800459 329.699200
     36     34     55     1   109.8000471 387.438400
     37     52     53     1   109.8000471 387.438400
     37     52     54     1   109.8000471 387.438400
     38     37     52     1   109.8000471 387.438400
     38     37     39     1   107.5800459 329.699200
     39     37     52     1   109.8000471 387.438400
     40     49     50     1   109.8000471 387.438400
     40     49     51     1   109.8000471 387.438400
     41     40     49     1   109.8000471 387.438400
     41     40     42     1   107.5800459 329.699200
     42     40     49     1   109.8000471 387.438400
     43     46     47     1   109.8000471 387.438400
     43     46     48     1   109.8000471 387.438400
     44     43     46     1   109.8000471 387.438400
     44     43     45     1   107.5800459 329.699200
     45     43     46     1   109.8000471 387.438400
     47     46     88     1   108.7000466 426.768000
     47     46     48     1   107.5800459 329.699200
     48     46     88     1   108.7000466 426.768000
     50     49    118     1   108.7000466 426.768000
     50     49     51     1   107.5800459 329.699200
     51     49    118     1   108.7000466 426.768000
     53     52    148     1   108.7000466 426.768000
     53     52     54     1   107.5800459 329.699200
     54     52    148     1   108.7000466 426.768000
     56     55    178     1   108.7000466 426.768000
     56     55     57     1   107.5800459 329.699200
     57     55    178     1   108.7000466 426.768000
     60     61     62     1   108.0100461 406.684800
     60     61     63     1   108.0100461 406.684800
     60     64     65     1   108.0100461 406.684800
     60     64     66     1   108.0100461 406.684800
     60     67     68     1   108.0100461 406.684800
     60     67     69     1   108.0100461 406.684800
     61     60     89     1   110.1100470 384.091200
     61     73     74     1   109.8000471 387.438400
     61     73     75     1   109.8000471 387.438400
     62     61     73     1   110.5600475 386.601600
     62     61     63     1   109.7500473 328.025600
     63     61     73     1   110.5600475 386.601600
     64     60     89     1   110.1100470 384.091200
     64     76     77     1   109.8000471 387.438400
     64     76     78     1   109.8000471 387.438400
     65     64     76     1   110.5600475 386.601600
     65     64     66     1   109.7500473 328.025600
     66     64     76     1   110.5600475 386.601600
     67     60     89     1   110.1100470 384.091200
     67     70     71     1   109.8000471 387.438400
     67     70     72     1   109.8000471 387.438400
     68     67     70     1   110.5600475 386.601600
     68     67     69     1   109.7500473 328.025600
     69     67     70     1   110.5600475 386.601600
     70     79     80     1   109.5600471 388.275200
     70     79     81     1   109.5600471 388.275200
     71     70     79     1   109.8000471 387.438400
     71     70     72     1   107.5800459 329.699200
     72     70     79     1   109.8000471 387.438400
     73     85     86     1   109.5600471 388.275200
     73     85     87     1   109.5600471 388.275200
     74     73     85     1   109.8000471 387.438400
     74     73     75     1   107.5800459 329.699200
     75     73     85     1   109.8000471 387.438400
     76     82     83     1   109.5600471 388.275200
     76     82     84     1   109.5600471 388.275200
     77     76     82     1   109.8000471 387.438400
     77     76     78     1   107.5800459 329.699200
     78     76     82     1   109.8000471 387.438400
     80     79     88     1   109.7800468 425.094400
     80     79     81     1   108.4600466 328.025600
     81     79     88     1   109.7800468 425.094400
     83     82    208     1   109.7800468 425.094400
     83     82     84     1   108.4600466 328.025600
     84     82    208     1   109.7800468 425.094400
     86     85    238     1   109.7800468 425.094400
     86     85     87     1   108.4600466 328.025600
     87     85    238     1   109.7800468 425.094400
     90     91     92     1   108.0100461 406.684800
     90     91     93     1   108.0100461 406.684800
     90     94     95     1   108.0100461 406.684800
     90     94     96     1   108.0100461 406.684800
     90     97     98     1   108.0100461 406.684800
     90     97     99     1   108.0100461 406.684800
     91     90    119     1   110.1100470 384.091200
     91    103    104     1   109.8000471 387.438400
     91    103    105     1   109.8000471 387.438400
     92     91    103     1   110.5600475 386.601600
     92     91     93     1   109.7500473 328.025600
     93     91    103     1   110.5600475 386.601600
     94     90    119     1   110.1100470 384.091200
     94    106    107     1   109.8000471 387.438400
     94    106    108     1   109.8000471 387.438400
     95     94    106     1   110.5600475 386.601600
     95     94     96     1   109.7500473 328.025600
     96     94    106     1   110.5600475 386.601600
     97     90    119     1   110.1100470 384.091200
     97    100    101     1   109.8000471 387.438400
     97    100    102     1   109.8000471 387.438400
     98     97    100     1   110.5600475 386.601600
     98     97     99     1   109.7500473 328.025600
     99     97    100     1   110.5600475 386.601600
    100    109    110     1   109.5600471 388.275200
    100    109    111     1   109.5600471 388.275200
    101    100    109     1   109.8000471 387.438400
    101    100    102     1   107.5800459 329.699200
    102    100    109     1   109.8000471 387.438400
    103    115    116     1   109.5600471 388.275200
    103    115    117     1   109.5600471 388.275200
    104    103    115     1   109.8000471 387.438400
    104    103    105     1   107.5800459 329.699200
    105    103    115     1   109.8000471 387.438400
    106    112    113     1   109.5600471 388.275200
    106    112    114     1   109.5600471 388.275200
    107    106    112     1   109.8000471 387.438400
    107    106    108     1   107.5800459 329.699200
    108    106    112     1   109.8000471 387.438400
    110    109    118     1   109.7800468 425.094400
    110    109    111     1   108.4600466 328.025600
    111    109    118     1   109.7800468 425.094400
    113    112    268     1   109.7800468 425.094400
    113    112    114     1   108.4600466 328.025600
    114    112    268     1   109.7800468 425.094400
    116    115    298     1   109.7800468 425.094400
    116    115    117     1   108.4600466 328.025600
    117    115    298     1   109.7800468 425.094400
    120    121    122     1   108.0100461 406.684800
    120    121    123     1   108.0100461 406.684800
    120    124    125     1   108.0100461 406.684800
    120    124    126     1   108.0100461 406.684800
    120    127    128     1   108.0100461 406.684800
    120    127    129     1   108.0100461 406.684800
    121    120    149     1   110.1100470 384.091200
    121    133    134     1   109.8000471 387.438400
    121    133    135     1   109.8000471 387.438400
    122    121    133     1   110.5600475 386.601600
    122    121    123     1   109.7500473 328.025600
    123    121    133     1   110.5600475 386.601600
    124    120    149     1   110.1100470 384.091200
    124    136    137     1   109.8000471 387.438400
    124    136    138     1   109.8000471 387.438400
    125    124    136     1   110.5600475 386.601600
    125    124    126     1   109.7500473 328.025600
    126    124    136     1   110.5600475 386.601600
    127    120    149     1   110.1100470 384.091200
    127    130    131     1   109.8000471 387.438400
    127    130    132     1   109.8000471 387.438400
    128    127    130     1   110.5600475 386.601600
    128    127    129     1   109.7500473 328.025600
    129    127    130     1   110.5600475 386.601600
    130    139    140     1   109.5600471 388.275200
    130    139    141     1   109.5600471 388.275200
    131    130    139     1   109.8000471 387.438400
    131    130    132     1   107.5800459 329.699200
    132    130    139     1   109.8000471 387.438400
    133    145    146     1   109.5600471 388.275200
    133    145    147     1   109.5600471 388.275200
    134    133    145     1   109.8000471 387.438400
    134    133    135     1   107.5800459 329.699200
    135    133    145     1   109.8000471 387.438400
    136    142    143     1   109.5600471 388.275200
    136    142    144     1   109.5600471 388.275200
    137    136    142     1   109.8000471 387.438400
    137    136    138     1   107.5800459 329.699200
    138    136    142     1   109.8000471 387.438400
    140    139    148     1   109.7800468 425.094400
    140    139    141     1   108.4600466 328.025600
    141    139    148     1   109.7800468 425.094400
    143    142    328     1   109.7800468 425.094400
    143    142    144     1   108.4600466 328.025600
    144    142    328     1   109.7800468 425.094400
    146    145    358     1   109.7800468 425.094400
    146    145    147     1   108.4600466 328.025600
    147    145    358     1   109.7800468 425.094400
    150    151    152     1   108.0100461 406.684800
    150    151    153     1   108.0100461 406.684800
    150    154    155     1   108.0100461 406.684800
    150    154    156     1   108.0100461 406.684800
    150    157    158     1   108.0100461 406.684800
    150    157    159     1   108.0100461 406.684800
    151    150    179     1   110.1100470 384.091200
    151    163    164     1   109.8000471 387.438400
    151    163    165     1   109.8000471 387.438400
    152    151    163     1   110.5600475 386.601600
    152    151    153     1   109.7500473 328.025600
    153    151    163     1   110.5600475 386.601600
    154    150    179     1   110.1100470 384.091200
    154    166    167     1   109.8000471 387.438400
    154    166    168     1   109.8000471 387.438400
    155    154    166     1   110.5600475 386.601600
    155    154    156     1   109.7500473 328.025600
    156    154    166     1   110.5600475 386.601600
    157    150    179     1   110.1100470 384.091200
    157    160    161     1   109.8000471 387.438400
    157    160    162     1   109.8000471 387.438400
    158    157    160     1   110.5600475 386.601600
    158    157    159     1   109.7500473 328.025600
    159    157    160     1   110.5600475 386.601600
    160    169    170     1   109.5600471 388.275200
    160    169    171     1   109.5600471 388.275200
    161    160    169     1   109.8000471 387.438400
    161    160    162     1   107.5800459 329.699200
    162    160    169     1   109.8000471 387.438400
    163    175    176     1   109.5600471 388.275200
    163    175    177     1   109.5600471 388.275200
    164    163    175     1   109.8000471 387.438400
    164    163    165     1   107.5800459 329.699200
    165    163    175     1   109.8000471 387.438400
    166    172    173     1   109.5600471 388.275200
    166    172    174     1   109.5600471 388.275200
    167    166    172     1   109.8000471 387.438400
    167    166    168     1   107.5800459 329.699200
    168    166    172     1   109.8000471 387.438400
    170    169    178     1   109.7800468 425.094400
    170    169    171     1   108.4600466 328.025600
    171    169    178     1   109.7800468 425.094400
    173    172    388     1   109.7800468 425.094400
    173    172    174     1   108.4600466 328.025600
    174    172    388     1   109.7800468 425.094400
    176    175    418     1   109.7800468 425.094400
    176    175    177     1   108.4600466 328.025600
    177    175    418     1   109.7800468 425.094400
    180    181    182     1   108.0100461 406.684800
    180    181    183     1   108.0100461 406.684800
    180    184    185     1   108.0100461 406.684800
    180    184    186     1   108.0100461 406.684800
    180    187    188     1   108.0100461 406.684800
    180    187    189     1   108.0100461 406.684800
    181    180    209     1   110.1100470 384.091200
    181    193    194     1   109.8000471 387.438400
    181    193    195     1   109.8000471 387.438400
    182    181    193     1   110.5600475 386.601600
    182    181    183     1   109.7500473 328.025600
    183    181    193     1   110.5600475 386.601600
    184    180    209     1   110.1100470 384.091200
    184    196    197     1   109.8000471 387.438400
    184    196    198     1   109.8000471 387.438400
    185    184    196     1   110.5600475 386.601600
    185    184    186     1   109.7500473 328.025600
    186    184    196     1   110.5600475 386.601600
    187    180    209     1   110.1100470 384.091200
    187    190    191     1   109.8000471 387.438400
    187    190    192     1   109.8000471 387.438400
    188    187    190     1   110.5600475 386.601600
    188    187    189     1   109.7500473 328.025600
    189    187    190     1   110.5600475 386.601600
    190    199    200     1   109.5600471 388.275200
    190    199    201     1   109.5600471 388.275200
    191    190    199     1   109.8000471 387.438400
    191    190    192     1   107.5800459 329.699200
    192    190    199     1   109.8000471 387.438400
    193    205    206     1   109.5600471 388.275200
    193    205    207     1   109.5600471 388.275200
    194    193    205     1   109.8000471 387.438400
    194    193    195     1   107.5800459 329.699200
    195    193    205     1   109.8000471 387.438400
    196    202    203     1   109.5600471 388.275200
    196    202    204     1   109.5600471 388.275200
    197    196    202     1   109.8000471 387.438400
    197    196    198     1   107.5800459 329.699200
    198    196    202     1   109.8000471 387.438400
    200    199    208     1   109.7800468 425.094400
    200    199    201     1   108.4600466 328.025600
    201    199    208     1   109.7800468 425.094400
    203    202    448     1   109.7800468 425.094400
    203    202    204     1   108.4600466 328.025600
    204    202    448     1   109.7800468 425.094400
    206    205    478     1   109.7800468 425.094400
    206    205    207     1   108.4600466 328.025600
    207    205    478     1   109.7800468 425.094400
    210    211    212     1   108.0100461 406.684800
    210    211    213     1   108.0100461 406.684800
    210    214    215     1   108.0100461 406.684800
    210    214    216     1   108.0100461 406.684800
    210    217    218     1   108.0100461 406.684800
    210    217    219     1   108.0100461 406.684800
    211    210    239     1   110.1100470 384.091200
    211    223    224     1   109.8000471 387.438400
    211    223    225     1   109.8000471 387.438400
    212    211    223     1   110.5600475 386.601600
    212    211    213     1   109.7500473 328.025600
    213    211    223     1   110.5600475 386.601600
    214    210    239     1   110.1100470 384.091200
    214    226    227     1   109.8000471 387.438400
    214    226    228     1   109.8000471 387.438400
    215    214    226     1   110.5600475 386.601600
    215    214    216     1   109.7500473 328.025600
    216    214    226     1   110.5600475 386.601600
    217    210    239     1   110.1100470 384.091200
    217    220    221     1   109.8000471 387.438400
    217    220    222     1   109.8000471 387.438400
    218    217    220     1   110.5600475 386.601600
    218    217    219     1   109.7500473 328.025600
    219    217    220     1   110.5600475 386.601600
    220    229    230     1   109.5600471 388.275200
    220    229    231     1   109.5600471 388.275200
    221    220    229     1   109.8000471 387.438400
    221    220    222     1   107.5800459 329.699200
    222    220    229     1   109.8000471 387.438400
    223    235    236     1   109.5600471 388.275200
    223    235    237     1   109.5600471 388.275200
    224    223    235     1   109.8000471 387.438400
    224    223    225     1   107.5800459 329.699200
    225    223    235     1   109.8000471 387.438400
    226    232    233     1   109.5600471 388.275200
    226    232    234     1   109.5600471 388.275200
    227    226    232     1   109.8000471 387.438400
    227    226    228     1   107.5800459 329.699200
    228    226    232     1   109.8000471 387.438400
    230    229    238     1   109.7800468 425.094400
    230    229    231     1   108.4600466 328.025600
    231    229    238     1   109.7800468 425.094400
    233    232    508     1   109.7800468 425.094400
    233    232    234     1   108.4600466 328.025600
    234    232    508     1   109.7800468 425.094400
    236    235    538     1   109.7800468 425.094400
    236    235    237     1   108.4600466 328.025600
    237    235    538     1   109.7800468 425.094400
    240    241    242     1   108.0100461 406.684800
    240    241    243     1   108.0100461 406.684800
    240    244    245     1   108.0100461 406.684800
    240    244    246     1   108.0100461 406.684800
    240    247    248     1   108.0100461 406.684800
    240    247    249     1   108.0100461 406.684800
    241    240    269     1   110.1100470 384.091200
    241    253    254     1   109.8000471 387.438400
    241    253    255     1   109.8000471 387.438400
    242    241    253     1   110.5600475 386.601600
    242    241    243     1   109.7500473 328.025600
    243    241    253     1   110.5600475 386.601600
    244    240    269     1   110.1100470 384.091200
    244    256    257     1   109.8000471 387.438400
    244    256    258     1   109.8000471 387.438400
    245    244    256     1   110.5600475 386.601600
    245    244    246     1   109.7500473 328.025600
    246    244    256     1   110.5600475 386.601600
    247    240    269     1   110.1100470 384.091200
    247    250    251     1   109.8000471 387.438400
    247    250    252     1   109.8000471 387.438400
    248    247    250     1   110.5600475 386.601600
    248    247    249     1   109.7500473 328.025600
    249    247    250     1   110.5600475 386.601600
    250    259    260     1   109.5600471 388.275200
    250    259    261     1   109.5600471 388.275200
    251    250    259     1   109.8000471 387.438400
    251    250    252     1   107.5800459 329.699200
    252    250    259     1   109.8000471 387.438400
    253    265    266     1   109.5600471 388.275200
    253    265    267     1   109.5600471 388.275200
    254    253    265     1   109.8000471 387.438400
    254    253    255     1   107.5800459 329.699200
    255    253    265     1   109.8000471 387.438400
    256    262    263     1   109.5600471 388.275200
    256    262    264     1   109.5600471 388.275200
    257    256    262     1   109.8000471 387.438400
    257    256    258     1   107.5800459 329.699200
    258    256    262     1   109.8000471 387.438400
    260    259    268     1   109.7800468 425.094400
    260    259    261     1   108.4600466 328.025600
    261    259    268     1   109.7800468 425.094400
    263    262    568     1   109.7800468 425.094400
    263    262    264     1   108.4600466 328.025600
    264    262    568     1   109.7800468 425.094400
    266    265    598     1   109.7800468 425.094400
    266    265    267     1   108.4600466 328.025600
    267    265    598     1   109.7800468 425.094400
    270    271    272     1   108.0100461 406.684800
    270    271    273     1   108.0100461 406.684800
    270    274    275     1   108.0100461 406.684800
    270    274    276     1   108.0100461 406.684800
    270    277    278     1   108.0100461 406.684800
    270    277    279     1   108.0100461 406.684800
    271    270    299     1   110.1100470 384.091200
    271    283    284     1   109.8000471 387.438400
    271    283    285     1   109.8000471 387.438400
    272    271    283     1   110.5600475 386.601600
    272    271    273     1   109.7500473 328.025600
    273    271    283     1   110.5600475 386.601600
    274    270    299     1   110.1100470 384.091200
    274    286    287     1   109.8000471 387.438400
    274    286    288     1   109.8000471 387.438400
    275    274    286     1   110.5600475 386.601600
    275    274    276     1   109.7500473 328.025600
    276    274    286     1   110.5600475 386.601600
    277    270    299     1   110.1100470 384.091200
    277    280    281     1   109.8000471 387.438400
    277    280    282     1   109.8000471 387.438400
    278    277    280     1   110.5600475 386.601600
    278    277    279     1   109.7500473 328.025600
    279    277    280     1   110.5600475 386.601600
    280    289    290     1   109.5600471 388.275200
    280    289    291     1   109.5600471 388.275200
    281    280    289     1   109.8000471 387.438400
    281    280    282     1   107.5800459 329.699200
    282    280    289     1   109.8000471 387.438400
    283    295    296     1   109.5600471 388.275200
    283    295    297     1   109.5600471 388.275200
    284    283    295     1   109.8000471 387.438400
    284    283    285     1   107.5800459 329.699200
    285    283    295     1   109.8000471 387.438400
    286    292    293     1   109.5600471 388.275200
    286    292    294     1   109.5600471 388.275200
    287    286    292     1   109.8000471 387.438400
    287    286    288     1   107.5800459 329.699200
    288    286    292     1   109.8000471 387.438400
    290    289    298     1   109.7800468 425.094400
    290    289    291     1   108.4600466 328.025600
    291    289    298     1   109.7800468 425.094400
    293    292    628     1   109.7800468 425.094400
    293    292    294     1   108.4600466 328.025600
    294    292    628     1   109.7800468 425.094400
    296    295    658     1   109.7800468 425.094400
    296    295    297     1   108.4600466 328.025600
    297    295    658     1   109.7800468 425.094400
    300    301    302     1   108.0100461 406.684800
    300    301    303     1   108.0100461 406.684800
    300    304    305     1   108.0100461 406.684800
    300    304    306     1   108.0100461 406.684800
    300    307    308     1   108.0100461 406.684800
    300    307    309     1   108.0100461 406.684800
    301    300    329     1   110.1100470 384.091200
    301    313    314     1   109.8000471 387.438400
    301    313    315     1   109.8000471 387.438400
    302    301    313     1   110.5600475 386.601600
    302    301    303     1   109.7500473 328.025600
    303    301    313     1   110.5600475 386.601600
    304    300    329     1   110.1100470 384.091200
    304    316    317     1   109.8000471 387.438400
    304    316    318     1   109.8000471 387.438400
    305    304    316     1   110.5600475 386.601600
    305    304    306     1   109.7500473 328.025600
    306    304    316     1   110.5600475 386.601600
    307    300    329     1   110.1100470 384.091200
    307    310    311     1   109.8000471 387.438400
    307    310    312     1   109.8000471 387.438400
    308    307    310     1   110.5600475 386.601600
    308    307    309     1   109.7500473 328.025600
    309    307    310     1   110.5600475 386.601600
    310    319    320     1   109.5600471 388.275200
    310    319    321     1   109.5600471 388.275200
    311    310    319     1   109.8000471 387.438400
    311    310    312     1   107.5800459 329.699200
    312    310    319     1   109.8000471 387.438400
    313    325    326     1   109.5600471 388.275200
    313    325    327     1   109.5600471 388.275200
    314    313    325     1   109.8000471 387.438400
    314    313    315     1   107.5800459 329.699200
    315    313    325     1   109.8000471 387.438400
    316    322    323     1   109.5600471 388.275200
    316    322    324     1   109.5600471 388.275200
    317    316    322     1   109.8000471 387.438400
    317    316    318     1   107.5800459 329.699200
    318    316    322     1   109.8000471 387.438400
    320    319    328     1   109.7800468 425.094400
    320    319    321     1   108.4600466 328.025600
    321    319    328     1   109.7800468 425.094400
    323    322    688     1   109.7800468 425.094400
    323    322    324     1   108.4600466 328.025600
    324    322    688     1   109.7800468 425.094400
    326    325    718     1   109.7800468 425.094400
    326    325    327     1   108.4600466 328.025600
    327    325    718     1   109.7800468 425.094400
    330    331    332     1   108.0100461 406.684800
    330    331    333     1   108.0100461 406.684800
    330    334    335     1   108.0100461 406.684800
    330    334    336     1   108.0100461 406.684800
    330    337    338     1   108.0100461 406.684800
    330    337    339     1   108.0100461 406.684800
    331    330    359     1   110.1100470 384.091200
    331    343    344     1   109.8000471 387.438400
    331    343    345     1   109.8000471 387.438400
    332    331    343     1   110.5600475 386.601600
    332    331    333     1   109.7500473 328.025600
    333    331    343     1   110.5600475 386.601600
    334    330    359     1   110.1100470 384.091200
    334    346    347     1   109.8000471 387.438400
    334    346    348     1   109.8000471 387.438400
    335    334    346     1   110.5600475 386.601600
    335    334    336     1   109.7500473 328.025600
    336    334    346     1   110.5600475 386.601600
    337    330    359     1   110.1100470 384.091200
    337    340    341     1   109.8000471 387.438400
    337    340    342     1   109.8000471 387.438400
    338    337    340     1   110.5600475 386.601600
    338    337    339     1   109.7500473 328.025600
    339    337    340     1   110.5600475 386.601600
    340    349    350     1   109.5600471 388.275200
    340    349    351     1   109.5600471 388.275200
    341    340    349     1   109.8000471 387.438400
    341    340    342     1   107.5800459 329.699200
    342    340    349     1   109.8000471 387.438400
    343    355    356     1   109.5600471 388.275200
    343    355    357     1   109.5600471 388.275200
    344    343    355     1   109.8000471 387.438400
    344    343    345     1   107.5800459 329.699200
    345    343    355     1   109.8000471 387.438400
    346    352    353     1   109.5600471 388.275200
    346    352    354     1   109.5600471 388.275200
    347    346    352     1   109.8000471 387.438400
    347    346    348     1   107.5800459 329.699200
    348    346    352     1   109.8000471 387.438400
    350    349    358     1   109.7800468 425.094400
    350    349    351     1   108.4600466 328.025600
    351    349    358     1   109.7800468 425.094400
    353    352    748     1   109.7800468 425.094400
    353    352    354     1   108.4600466 328.025600
    354    352    748     1   109.7800468 425.094400
    356    355    778     1   109.7800468 425.094400
    356    355    357     1   108.4600466 328.025600
    357    355    778     1   109.7800468 425.094400
    360    361    362     1   108.0100461 406.684800
    360    361    363     1   108.0100461 406.684800
    360    364    365     1   108.0100461 406.684800
    360    364    366     1   108.0100461 406.684800
    360    367    368     1   108.0100461 406.684800
    360    367    369     1   108.0100461 406.684800
    361    360    389     1   110.1100470 384.091200
    361    373    374     1   109.8000471 387.438400
    361    373    375     1   109.8000471 387.438400
    362    361    373     1   110.5600475 386.601600
    362    361    363     1   109.7500473 328.025600
    363    361    373     1   110.5600475 386.601600
    364    360    389     1   110.1100470 384.091200
    364    376    377     1   109.8000471 387.438400
    364    376    378     1   109.8000471 387.438400
    365    364    376     1   110.5600475 386.601600
    365    364    366     1   109.7500473 328.025600
    366    364    376     1   110.5600475 386.601600
    367    360    389     1   110.1100470 384.091200
    367    370    371     1   109.8000471 387.438400
    367    370    372     1   109.8000471 387.438400
    368    367    370     1   110.5600475 386.601600
    368    367    369     1   109.7500473 328.025600
    369    367    370     1   110.5600475 386.601600
    370    379    380     1   109.5600471 388.275200
    370    379    381     1   109.5600471 388.275200
    371    370    379     1   109.8000471 387.438400
    371    370    372     1   107.5800459 329.699200
    372    370    379     1   109.8000471 387.438400
    373    385    386     1   109.5600471 388.275200
    373    385    387     1   109.5600471 388.275200
    374    373    385     1   109.8000471 387.438400
    374    373    375     1   107.5800459 329.699200
    375    373    385     1   109.8000471 387.438400
    376    382    383     1   109.5600471 388.275200
    376    382    384     1   109.5600471 388.275200
    377    376    382     1   109.8000471 387.438400
    377    376    378     1   107.5800459 329.699200
    378    376    382     1   109.8000471 387.438400
    380    379    388     1   109.7800468 425.094400
    380    379    381     1   108.4600466 328.025600
    381    379    388     1   109.7800468 425.094400
    383    382    808     1   109.7800468 425.094400
    383    382    384     1   108.4600466 328.025600
    384    382    808     1   109.7800468 425.094400
    386    385    838     1   109.7800468 425.094400
    386    385    387     1   108.4600466 328.025600
    387    385    838     1   109.7800468 425.094400
    390    391    392     1   108.0100461 406.684800
    390    391    393     1   108.0100461 406.684800
    390    394    395     1   108.0100461 406.684800
    390    394    396     1   108.0100461 406.684800
    390    397    398     1   108.0100461 406.684800
    390    397    399     1   108.0100461 406.684800
    391    390    419     1   110.1100470 384.091200
    391    403    404     1   109.8000471 387.438400
    391    403    405     1   109.8000471 387.438400
    392    391    403     1   110.5600475 386.601600
    392    391    393     1   109.7500473 328.025600
    393    391    403     1   110.5600475 386.601600
    394    390    419     1   110.1100470 384.091200
    394    406    407     1   109.8000471 387.438400
    394    406    408     1   109.8000471 387.438400
    395    394    406     1   110.5600475 386.601600
    395    394    396     1   109.7500473 328.025600
    396    394    406     1   110.5600475 386.601600
    397    390    419     1   110.1100470 384.091200
    397    400    401     1   109.8000471 387.438400
    397    400    402     1   109.8000471 387.438400
    398    397    400     1   110.5600475 386.601600
    398    397    399     1   109.7500473 328.025600
    399    397    400     1   110.5600475 386.601600
    400    409    410     1   109.5600471 388.275200
    400    409    411     1   109.5600471 388.275200
    401    400    409     1   109.8000471 387.438400
    401    400    402     1   107.5800459 329.699200
    402    400    409     1   109.8000471 387.438400
    403    415    416     1   109.5600471 388.275200
    403    415    417     1   109.5600471 388.275200
    404    403    415     1   109.8000471 387.438400
    404    403    405     1   107.5800459 329.699200
    405    403    415     1   109.8000471 387.438400
    406    412    413     1   109.5600471 388.275200
    406    412    414     1   109.5600471 388.275200
    407    406    412     1   109.8000471 387.438400
    407    406    408     1   107.5800459 329.699200
    408    406    412     1   109.8000471 387.438400
    410    409    418     1   109.7800468 425.094400
    410    409    411     1   108.4600466 328.025600
    411    409    418     1   109.7800468 425.094400
    413    412    868     1   109.7800468 425.094400
    413    412    414     1   108.4600466 328.025600
    414    412    868     1   109.7800468 425.094400
    416    415    898     1   109.7800468 425.094400
    416    415    417     1   108.4600466 328.025600
    417    415    898     1   109.7800468 425.094400
    420    421    422     1   108.0100461 406.684800
    420    421    423     1   108.0100461 406.684800
    420    424    425     1   108.0100461 406.684800
    420    424    426     1   108.0100461 406.684800
    420    427    428     1   108.0100461 406.684800
    420    427    429     1   108.0100461 406.684800
    421    420    449     1   110.1100470 384.091200
    421    433    434     1   109.8000471 387.438400
    421    433    435     1   109.8000471 387.438400
    422    421    433     1   110.5600475 386.601600
    422    421    423     1   109.7500473 328.025600
    423    421    433     1   110.5600475 386.601600
    424    420    449     1   110.1100470 384.091200
    424    436    437     1   109.8000471 387.438400
    424    436    438     1   109.8000471 387.438400
    425    424    436     1   110.5600475 386.601600
    425    424    426     1   109.7500473 328.025600
    426    424    436     1   110.5600475 386.601600
    427    420    449     1   110.1100470 384.091200
    427    430    431     1   109.8000471 387.438400
    427    430    432     1   109.8000471 387.438400
    428    427    430     1   110.5600475 386.601600
    428    427    429     1   109.7500473 328.025600
    429    427    430     1   110.5600475 386.601600
    430    439    440     1   109.5600471 388.275200
    430    439    441     1   109.5600471 388.275200
    431    430    439     1   109.8000471 387.438400
    431    430    432     1   107.5800459 329.699200
    432    430    439     1   109.8000471 387.438400
    433    445    446     1   109.5600471 388.275200
    433    445    447     1   109.5600471 388.275200
    434    433    445     1   109.8000471 387.438400
    434    433    435     1   107.5800459 329.699200
    435    433    445     1   109.8000471 387.438400
    436    442    443     1   109.5600471 388.275200
    436    442    444     1   109.5600471 388.275200
    437    436    442     1   109.8000471 387.438400
    437    436    438     1   107.5800459 329.699200
    438    436    442     1   109.8000471 387.438400
    440    439    448     1   109.7800468 425.094400
    440    439    441     1   108.4600466 328.025600
    441    439    448     1   109.7800468 425.094400
    443    442    928     1   109.7800468 425.094400
    443    442    444     1   108.4600466 328.025600
    444    442    928     1   109.7800468 425.094400
    446    445    958     1   109.7800468 425.094400
    446    445    447     1   108.4600466 328.025600
    447    445    958     1   109.7800468 425.094400
    450    451    452     1   108.0100461 406.684800
    450    451    453     1   108.0100461 406.684800
    450    454    455     1   108.0100461 406.684800
    450    454    456     1   108.0100461 406.684800
    450    457    458     1   108.0100461 406.684800
    450    457    459     1   108.0100461 406.684800
    451    450    479     1   110.1100470 384.091200
    451    463    464     1   109.8000471 387.438400
    451    463    465     1   109.8000471 387.438400
    452    451    463     1   110.5600475 386.601600
    452    451    453     1   109.7500473 328.025600
    453    451    463     1   110.5600475 386.601600
    454    450    479     1   110.1100470 384.091200
    454    466    467     1   109.8000471 387.438400
    454    466    468     1   109.8000471 387.438400
    455    454    466     1   110.5600475 386.601600
    455    454    456     1   109.7500473 328.025600
    456    454    466     1   110.5600475 386.601600
    457    450    479     1   110.1100470 384.091200
    457    460    461     1   109.8000471 387.438400
    457    460    462     1   109.8000471 387.438400
    458    457    460     1   110.5600475 386.601600
    458    457    459     1   109.7500473 328.025600
    459    457    460     1   110.5600475 386.601600
    460    469    470     1   109.5600471 388.275200
    460    469    471     1   109.5600471 388.275200
    461    460    469     1   109.8000471 387.438400
    461    460    462     1   107.5800459 329.699200
    462    460    469     1   109.8000471 387.438400
    463    475    476     1   109.5600471 388.275200
    463    475    477     1   109.5600471 388.275200
    464    463    475     1   109.8000471 387.438400
    464    463    465     1   107.5800459 329.699200
    465    463    475     1   109.8000471 387.438400
    466    472    473     1   109.5600471 388.275200
    466    472    474     1   109.5600471 388.275200
    467    466    472     1   109.8000471 387.438400
    467    466    468     1   107.5800459 329.699200
    468    466    472     1   109.8000471 387.438400
    470    469    478     1   109.7800468 425.094400
    470    469    471     1   108.4600466 328.025600
    471    469    478     1   109.7800468 425.094400
    473    472    988     1   109.7800468 425.094400
    473    472    474     1   108.4600466 328.025600
    474    472    988     1   109.7800468 425.094400
    476    475   1018     1   109.7800468 425.094400
    476    475    477     1   108.4600466 328.025600
    477    475   1018     1   109.7800468 425.094400
    480    481    482     1   108.0100461 406.684800
    480    481    483     1   108.0100461 406.684800
    480    484    485     1   108.0100461 406.684800
    480    484    486     1   108.0100461 406.684800
    480    487    488     1   108.0100461 406.684800
    480    487    489     1   108.0100461 406.684800
    481    480    509     1   110.1100470 384.091200
    481    493    494     1   109.8000471 387.438400
    481    493    495     1   109.8000471 387.438400
    482    481    493     1   110.5600475 386.601600
    482    481    483     1   109.7500473 328.025600
    483    481    493     1   110.5600475 386.601600
    484    480    509     1   110.1100470 384.091200
    484    496    497     1   109.8000471 387.438400
    484    496    498     1   109.8000471 387.438400
    485    484    496     1   110.5600475 386.601600
    485    484    486     1   109.7500473 328.025600
    486    484    496     1   110.5600475 386.601600
    487    480    509     1   110.1100470 384.091200
    487    490    491     1   109.8000471 387.438400
    487    490    492     1   109.8000471 387.438400
    488    487    490     1   110.5600475 386.601600
    488    487    489     1   109.7500473 328.025600
    489    487    490     1   110.5600475 386.601600
    490    499    500     1   109.5600471 388.275200
    490    499    501     1   109.5600471 388.275200
    491    490    499     1   109.8000471 387.438400
    491    490    492     1   107.5800459 329.699200
    492    490    499     1   109.8000471 387.438400
    493    505    506     1   109.5600471 388.275200
    493    505    507     1   109.5600471 388.275200
    494    493    505     1   109.8000471 387.438400
    494    493    495     1   107.5800459 329.699200
    495    493    505     1   109.8000471 387.438400
    496    502    503     1   109.5600471 388.275200
    496    502    504     1   109.5600471 388.275200
    497    496    502     1   109.8000471 387.438400
    497    496    498     1   107.5800459 329.699200
    498    496    502     1   109.8000471 387.438400
    500    499    508     1   109.7800468 425.094400
    500    499    501     1   108.4600466 328.025600
    501    499    508     1   109.7800468 425.094400
    503    502   1048     1   109.7800468 425.094400
    503    502    504     1   108.4600466 328.025600
    504    502   1048     1   109.7800468 425.094400
    506    505   1078     1   109.7800468 425.094400
    506    505    507     1   108.4600466 328.025600
    507    505   1078     1   109.7800468 425.094400
    510    511    512     1   108.0100461 406.684800
    510    511    513     1   108.0100461 406.684800
    510    514    515     1   108.0100461 406.684800
    510    514    516     1   108.0100461 406.684800
    510    517    518     1   108.0100461 406.684800
    510    517    519     1   108.0100461 406.684800
    511    510    539     1   110.1100470 384.091200
    511    523    524     1   109.8000471 387.438400
    511    523    525     1   109.8000471 387.438400
    512    511    523     1   110.5600475 386.601600
    512    511    513     1   109.7500473 328.025600
    513    511    523     1   110.5600475 386.601600
    514    510    539     1   110.1100470 384.091200
    514    526    527     1   109.8000471 387.438400
    514    526    528     1   109.8000471 387.438400
    515    514    526     1   110.5600475 386.601600
    515    514    516     1   109.7500473 328.025600
    516    514    526     1   110.5600475 386.601600
    517    510    539     1   110.1100470 384.091200
    517    520    521     1   109.8000471 387.438400
    517    520    522     1   109.8000471 387.438400
    518    517    520     1   110.5600475 386.601600
    518    517    519     1   109.7500473 328.025600
    519    517    520     1   110.5600475 386.601600
    520    529    530     1   109.5600471 388.275200
    520    529    531     1   109.5600471 388.275200
    521    520    529     1   109.8000471 387.438400
    521    520    522     1   107.5800459 329.699200
    522    520    529     1   109.8000471 387.438400
    523    535    536     1   109.5600471 388.275200
    523    535    537     1   109.5600471 388.275200
    524    523    535     1   109.8000471 387.438400
    524    523    525     1   107.5800459 329.699200
    525    523    535     1   109.8000471 387.438400
    526    532    533     1   109.5600471 388.275200
    526    532    534     1   109.5600471 388.275200
    527    526    532     1   109.8000471 387.438400
    527    526    528     1   107.5800459 329.699200
    528    526    532     1   109.8000471 387.438400
    530    529    538     1   109.7800468 425.094400
    530    529    531     1   108.4600466 328.025600
    531    529    538     1   109.7800468 425.094400
    533    532   1108     1   109.7800468 425.094400
    533    532    534     1   108.4600466 328.025600
    534    532   1108     1   109.7800468 425.094400
    536    535   1138     1   109.7800468 425.094400
    536    535    537     1   108.4600466 328.025600
    537    535   1138     1   109.7800468 425.094400
    540    541    542     1   108.0100461 406.684800
    540    541    543     1   108.0100461 406.684800
    540    544    545     1   108.0100461 406.684800
    540    544    546     1   108.0100461 406.684800
    540    547    548     1   108.0100461 406.684800
    540    547    549     1   108.0100461 406.684800
    541    540    569     1   110.1100470 384.091200
    541    553    554     1   109.8000471 387.438400
    541    553    555     1   109.8000471 387.438400
    542    541    553     1   110.5600475 386.601600
    542    541    543     1   109.7500473 328.025600
    543    541    553     1   110.5600475 386.601600
    544    540    569     1   110.1100470 384.091200
    544    556    557     1   109.8000471 387.438400
    544    556    558     1   109.8000471 387.438400
    545    544    556     1   110.5600475 386.601600
    545    544    546     1   109.7500473 328.025600
    546    544    556     1   110.5600475 386.601600
    547    540    569     1   110.1100470 384.091200
    547    550    551     1   109.8000471 387.438400
    547    550    552     1   109.8000471 387.438400
    548    547    550     1   110.5600475 386.601600
    548    547    549     1   109.7500473 328.025600
    549    547    550     1   110.5600475 386.601600
    550    559    560     1   109.5600471 388.275200
    550    559    561     1   109.5600471 388.275200
    551    550    559     1   109.8000471 387.438400
    551    550    552     1   107.5800459 329.699200
    552    550    559     1   109.8000471 387.438400
    553    565    566     1   109.5600471 388.275200
    553    565    567     1   109.5600471 388.275200
    554    553    565     1   109.8000471 387.438400
    554    553    555     1   107.5800459 329.699200
    555    553    565     1   109.8000471 387.438400
    556    562    563     1   109.5600471 388.275200
    556    562    564     1   109.5600471 388.275200
    557    556    562     1   109.8000471 387.438400
    557    556    558     1   107.5800459 329.699200
    558    556    562     1   109.8000471 387.438400
    560    559    568     1   109.7800468 425.094400
    560    559    561     1   108.4600466 328.025600
    561    559    568     1   109.7800468 425.094400
    563    562   1168     1   109.7800468 425.094400
    563    562    564     1   108.4600466 328.025600
    564    562   1168     1   109.7800468 425.094400
    566    565   1198     1   109.7800468 425.094400
    566    565    567     1   108.4600466 328.025600
    567    565   1198     1   109.7800468 425.094400
    570    571    572     1   108.0100461 406.684800
    570    571    573     1   108.0100461 406.684800
    570    574    575     1   108.0100461 406.684800
    570    574    576     1   108.0100461 406.684800
    570    577    578     1   108.0100461 406.684800
    570    577    579     1   108.0100461 406.684800
    571    570    599     1   110.1100470 384.091200
    571    583    584     1   109.8000471 387.438400
    571    583    585     1   109.8000471 387.438400
    572    571    583     1   110.5600475 386.601600
    572    571    573     1   109.7500473 328.025600
    573    571    583     1   110.5600475 386.601600
    574    570    599     1   110.1100470 384.091200
    574    586    587     1   109.8000471 387.438400
    574    586    588     1   109.8000471 387.438400
    575    574    586     1   110.5600475 386.601600
    575    574    576     1   109.7500473 328.025600
    576    574    586     1   110.5600475 386.601600
    577    570    599     1   110.1100470 384.091200
    577    580    581     1   109.8000471 387.438400
    577    580    582     1   109.8000471 387.438400
    578    577    580     1   110.5600475 386.601600
    578    577    579     1   109.7500473 328.025600
    579    577    580     1   110.5600475 386.601600
    580    589    590     1   109.5600471 388.275200
    580    589    591     1   109.5600471 388.275200
    581    580    589     1   109.8000471 387.438400
    581    580    582     1   107.5800459 329.699200
    582    580    589     1   109.8000471 387.438400
    583    595    596     1   109.5600471 388.275200
    583    595    597     1   109.5600471 388.275200
    584    583    595     1   109.8000471 387.438400
    584    583    585     1   107.5800459 329.699200
    585    583    595     1   109.8000471 387.438400
    586    592    593     1   109.5600471 388.275200
    586    592    594     1   109.5600471 388.275200
    587    586    592     1   109.8000471 387.438400
    587    586    588     1   107.5800459 329.699200
    588    586    592     1   109.8000471 387.438400
    590    589    598     1   109.7800468 425.094400
    590    589    591     1   108.4600466 328.025600
    591    589    598     1   109.7800468 425.094400
    593    592   1228     1   109.7800468 425.094400
    593    592    594     1   108.4600466 328.025600
    594    592   1228     1   109.7800468 425.094400
    596    595   1258     1   109.7800468 425.094400
    596    595    597     1   108.4600466 328.025600
    597    595   1258     1   109.7800468 425.094400
    600    601    602     1   108.0100461 406.684800
    600    601    603     1   108.0100461 406.684800
    600    604    605     1   108.0100461 406.684800
    600    604    606     1   108.0100461 406.684800
    600    607    608     1   108.0100461 406.684800
    600    607    609     1   108.0100461 406.684800
    601    600    629     1   110.1100470 384.091200
    601    613    614     1   109.8000471 387.438400
    601    613    615     1   109.8000471 387.438400
    602    601    613     1   110.5600475 386.601600
    602    601    603     1   109.7500473 328.025600
    603    601    613     1   110.5600475 386.601600
    604    600    629     1   110.1100470 384.091200
    604    616    617     1   109.8000471 387.438400
    604    616    618     1   109.8000471 387.438400
    605    604    616     1   110.5600475 386.601600
    605    604    606     1   109.7500473 328.025600
    606    604    616     1   110.5600475 386.601600
    607    600    629     1   110.1100470 384.091200
    607    610    611     1   109.8000471 387.438400
    607    610    612     1   109.8000471 387.438400
    608    607    610     1   110.5600475 386.601600
    608    607    609     1   109.7500473 328.025600
    609    607    610     1   110.5600475 386.601600
    610    619    620     1   109.5600471 388.275200
    610    619    621     1   109.5600471 388.275200
    611    610    619     1   109.8000471 387.438400
    611    610    612     1   107.5800459 329.699200
    612    610    619     1   109.8000471 387.438400
    613    625    626     1   109.5600471 388.275200
    613    625    627     1   109.5600471 388.275200
    614    613    625     1   109.8000471 387.438400
    614    613    615     1   107.5800459 329.699200
    615    613    625     1   109.8000471 387.438400
    616    622    623     1   109.5600471 388.275200
    616    622    624     1   109.5600471 388.275200
    617    616    622     1   109.8000471 387.438400
    617    616    618     1   107.5800459 329.699200
    618    616    622     1   109.8000471 387.438400
    620    619    628     1   109.7800468 425.094400
    620    619    621     1   108.4600466 328.025600
    621    619    628     1   109.7800468 425.094400
    623    622   1288     1   109.7800468 425.094400
    623    622    624     1   108.4600466 328.025600
    624    622   1288     1   109.7800468 425.094400
    626    625   1318     1   109.7800468 425.094400
    626    625    627     1   108.4600466 328.025600
    627    625   1318     1   109.7800468 425.094400
    630    631    632     1   108.0100461 406.684800
    630    631    633     1   108.0100461 406.684800
    630    634    635     1   108.0100461 406.684800
    630    634    636     1   108.0100461 406.684800
    630    637    638     1   108.0100461 406.684800
    630    637    639     1   108.0100461 406.684800
    631    630    659     1   110.1100470 384.091200
    631    643    644     1   109.8000471 387.438400
    631    643    645     1   109.8000471 387.438400
    632    631    643     1   110.5600475 386.601600
    632    631    633     1   109.7500473 328.025600
    633    631    643     1   110.5600475 386.601600
    634    630    659     1   110.1100470 384.091200
    634    646    647     1   109.8000471 387.438400
    634    646    648     1   109.8000471 387.438400
    635    634    646     1   110.5600475 386.601600
    635    634    636     1   109.7500473 328.025600
    636    634    646     1   110.5600475 386.601600
    637    630    659     1   110.1100470 384.091200
    637    640    641     1   109.8000471 387.438400
    637    640    642     1   109.8000471 387.438400
    638    637    640     1   110.5600475 386.601600
    638    637    639     1   109.7500473 328.025600
    639    637    640     1   110.5600475 386.601600
    640    649    650     1   109.5600471 388.275200
    640    649    651     1   109.5600471 388.275200
    641    640    649     1   109.8000471 387.438400
    641    640    642     1   107.5800459 329.699200
    642    640    649     1   109.8000471 387.438400
    643    655    656     1   109.5600471 388.275200
    643    655    657     1   109.5600471 388.275200
    644    643    655     1   109.8000471 387.438400
    644    643    645     1   107.5800459 329.699200
    645    643    655     1   109.8000471 387.438400
    646    652    653     1   109.5600471 388.275200
    646    652    654     1   109.5600471 388.275200
    647    646    652     1   109.8000471 387.438400
    647    646    648     1   107.5800459 329.699200
    648    646    652     1   109.8000471 387.438400
    650    649    658     1   109.7800468 425.094400
    650    649    651     1   108.4600466 328.025600
    651    649    658     1   109.7800468 425.094400
    653    652   1348     1   109.7800468 425.094400
    653    652    654     1   108.4600466 328.025600
    654    652   1348     1   109.7800468 425.094400
    656    655   1378     1   109.7800468 425.094400
    656    655    657     1   108.4600466 328.025600
    657    655   1378     1   109.7800468 425.094400
    660    661    662     1   108.0100461 406.684800
    660    661    663     1   108.0100461 406.684800
    660    664    665     1   108.0100461 406.684800
    660    664    666     1   108.0100461 406.684800
    660    667    668     1   108.0100461 406.684800
    660    667    669     1   108.0100461 406.684800
    661    660    689     1   110.1100470 384.091200
    661    673    674     1   109.8000471 387.438400
    661    673    675     1   109.8000471 387.438400
    662    661    673     1   110.5600475 386.601600
    662    661    663     1   109.7500473 328.025600
    663    661    673     1   110.5600475 386.601600
    664    660    689     1   110.1100470 384.091200
    664    676    677     1   109.8000471 387.438400
    664    676    678     1   109.8000471 387.438400
    665    664    676     1   110.5600475 386.601600
    665    664    666     1   109.7500473 328.025600
    666    664    676     1   110.5600475 386.601600
    667    660    689     1   110.1100470 384.091200
    667    670    671     1   109.8000471 387.438400
    667    670    672     1   109.8000471 387.438400
    668    667    670     1   110.5600475 386.601600
    668    667    669     1   109.7500473 328.025600
    669    667    670     1   110.5600475 386.601600
    670    679    680     1   109.5600471 388.275200
    670    679    681     1   109.5600471 388.275200
    671    670    679     1   109.8000471 387.438400
    671    670    672     1   107.5800459 329.699200
    672    670    679     1   109.8000471 387.438400
    673    685    686     1   109.5600471 388.275200
    673    685    687     1   109.5600471 388.275200
    674    673    685     1   109.8000471 387.438400
    674    673    675     1   107.5800459 329.699200
    675    673    685     1   109.8000471 387.438400
    676    682    683     1   109.5600471 388.275200
    676    682    684     1   109.5600471 388.275200
    677    676    682     1   109.8000471 387.438400
    677    676    678     1   107.5800459 329.699200
    678    676    682     1   109.8000471 387.438400
    680    679    688     1   109.7800468 425.094400
    680    679    681     1   108.4600466 328.025600
    681    679    688     1   109.7800468 425.094400
    683    682   1408     1   109.7800468 425.094400
    683    682    684     1   108.4600466 328.025600
    684    682   1408     1   109.7800468 425.094400
    686    685   1438     1   109.7800468 425.094400
    686    685    687     1   108.4600466 328.025600
    687    685   1438     1   109.7800468 425.094400
    690    691    692     1   108.0100461 406.684800
    690    691    693     1   108.0100461 406.684800
    690    694    695     1   108.0100461 406.684800
    690    694    696     1   108.0100461 406.684800
    690    697    698     1   108.0100461 406.684800
    690    697    699     1   108.0100461 406.684800
    691    690    719     1   110.1100470 384.091200
    691    703    704     1   109.8000471 387.438400
    691    703    705     1   109.8000471 387.438400
    692    691    703     1   110.5600475 386.601600
    692    691    693     1   109.7500473 328.025600
    693    691    703     1   110.5600475 386.601600
    694    690    719     1   110.1100470 384.091200
    694    706    707     1   109.8000471 387.438400
    694    706    708     1   109.8000471 387.438400
    695    694    706     1   110.5600475 386.601600
    695    694    696     1   109.7500473 328.025600
    696    694    706     1   110.5600475 386.601600
    697    690    719     1   110.1100470 384.091200
    697    700    701     1   109.8000471 387.438400
    697    700    702     1   109.8000471 387.438400
    698    697    700     1   110.5600475 386.601600
    698    697    699     1   109.7500473 328.025600
    699    697    700     1   110.5600475 386.601600
    700    709    710     1   109.5600471 388.275200
    700    709    711     1   109.5600471 388.275200
    701    700    709     1   109.8000471 387.438400
    701    700    702     1   107.5800459 329.699200
    702    700    709     1   109.8000471 387.438400
    703    715    716     1   109.5600471 388.275200
    703    715    717     1   109.5600471 388.275200
    704    703    715     1   109.8000471 387.438400
    704    703    705     1   107.5800459 329.699200
    705    703    715     1   109.8000471 387.438400
    706    712    713     1   109.5600471 388.275200
    706    712    714     1   109.5600471 388.275200
    707    706    712     1   109.8000471 387.438400
    707    706    708     1   107.5800459 329.699200
    708    706    712     1   109.8000471 387.438400
    710    709    718     1   109.7800468 425.094400
    710    709    711     1   108.4600466 328.025600
    711    709    718     1   109.7800468 425.094400
    713    712   1468     1   109.7800468 425.094400
    713    712    714     1   108.4600466 328.025600
    714    712   1468     1   109.7800468 425.094400
    716    715   1498     1   109.7800468 425.094400
    716    715    717     1   108.4600466 328.025600
    717    715   1498     1   109.7800468 425.094400
    720    721    722     1   108.0100461 406.684800
    720    721    723     1   108.0100461 406.684800
    720    724    725     1   108.0100461 406.684800
    720    724    726     1   108.0100461 406.684800
    720    727    728     1   108.0100461 406.684800
    720    727    729     1   108.0100461 406.684800
    721    720    749     1   110.1100470 384.091200
    721    733    734     1   109.8000471 387.438400
    721    733    735     1   109.8000471 387.438400
    722    721    733     1   110.5600475 386.601600
    722    721    723     1   109.7500473 328.025600
    723    721    733     1   110.5600475 386.601600
    724    720    749     1   110.1100470 384.091200
    724    736    737     1   109.8000471 387.438400
    724    736    738     1   109.8000471 387.438400
    725    724    736     1   110.5600475 386.601600
    725    724    726     1   109.7500473 328.025600
    726    724    736     1   110.5600475 386.601600
    727    720    749     1   110.1100470 384.091200
    727    730    731     1   109.8000471 387.438400
    727    730    732     1   109.8000471 387.438400
    728    727    730     1   110.5600475 386.601600
    728    727    729     1   109.7500473 328.025600
    729    727    730     1   110.5600475 386.601600
    730    739    740     1   109.5600471 388.275200
    730    739    741     1   109.5600471 388.275200
    731    730    739     1   109.8000471 387.438400
    731    730    732     1   107.5800459 329.699200
    732    730    739     1   109.8000471 387.438400
    733    745    746     1   109.5600471 388.275200
    733    745    747     1   109.5600471 388.275200
    734    733    745     1   109.8000471 387.438400
    734    733    735     1   107.5800459 329.699200
    735    733    745     1   109.8000471 387.438400
    736    742    743     1   109.5600471 388.275200
    736    742    744     1   109.5600471 388.275200
    737    736    742     1   109.8000471 387.438400
    737    736    738     1   107.5800459 329.699200
    738    736    742     1   109.8000471 387.438400
    740    739    748     1   109.7800468 425.094400
    740    739    741     1   108.4600466 328.025600
    741    739    748     1   109.7800468 425.094400
    743    742   1528     1   109.7800468 425.094400
    743    742    744     1   108.4600466 328.025600
    744    742   1528     1   109.7800468 425.094400
    746    745   1558     1   109.7800468 425.094400
    746    745    747     1   108.4600466 328.025600
    747    745   1558     1   109.7800468 425.094400
    750    751    752     1   108.0100461 406.684800
    750    751    753     1   108.0100461 406.684800
    750    754    755     1   108.0100461 406.684800
    750    754    756     1   108.0100461 406.684800
    750    757    758     1   108.0100461 406.684800
    750    757    759     1   108.0100461 406.684800
    751    750    779     1   110.1100470 384.091200
    751    763    764     1   109.8000471 387.438400
    751    763    765     1   109.8000471 387.438400
    752    751    763     1   110.5600475 386.601600
    752    751    753     1   109.7500473 328.025600
    753    751    763     1   110.5600475 386.601600
    754    750    779     1   110.1100470 384.091200
    754    766    767     1   109.8000471 387.438400
    754    766    768     1   109.8000471 387.438400
    755    754    766     1   110.5600475 386.601600
    755    754    756     1   109.7500473 328.025600
    756    754    766     1   110.5600475 386.601600
    757    750    779     1   110.1100470 384.091200
    757    760    761     1   109.8000471 387.438400
    757    760    762     1   109.8000471 387.438400
    758    757    760     1   110.5600475 386.601600
    758    757    759     1   109.7500473 328.025600
    759    757    760     1   110.5600475 386.601600
    760    769    770     1   109.5600471 388.275200
    760    769    771     1   109.5600471 388.275200
    761    760    769     1   109.8000471 387.438400
    761    760    762     1   107.5800459 329.699200
    762    760    769     1   109.8000471 387.438400
    763    775    776     1   109.5600471 388.275200
    763    775    777     1   109.5600471 388.275200
    764    763    775     1   109.8000471 387.438400
    764    763    765     1   107.5800459 329.699200
    765    763    775     1   109.8000471 387.438400
    766    772    773     1   109.5600471 388.275200
    766    772    774     1   109.5600471 388.275200
    767    766    772     1   109.8000471 387.438400
    767    766    768     1   107.5800459 329.699200
    768    766    772     1   109.8000471 387.438400
    770    769    778     1   109.7800468 425.094400
    770    769    771     1   108.4600466 328.025600
    771    769    778     1   109.7800468 425.094400
    773    772   1588     1   109.7800468 425.094400
    773    772    774     1   108.4600466 328.025600
    774    772   1588     1   109.7800468 425.094400
    776    775   1618     1   109.7800468 425.094400
    776    775    777     1   108.4600466 328.025600
    777    775   1618     1   109.7800468 425.094400
    780    781    782     1   108.0100461 406.684800
    780    781    783     1   108.0100461 406.684800
    780    784    785     1   108.0100461 406.684800
    780    784    786     1   108.0100461 406.684800
    780    787    788     1   108.0100461 406.684800
    780    787    789     1   108.0100461 406.684800
    781    780    809     1   110.1100470 384.091200
    781    793    794     1   109.8000471 387.438400
    781    793    795     1   109.8000471 387.438400
    782    781    793     1   110.5600475 386.601600
    782    781    783     1   109.7500473 328.025600
    783    781    793     1   110.5600475 386.601600
    784    780    809     1   110.1100470 384.091200
    784    796    797     1   109.8000471 387.438400
    784    796    798     1   109.8000471 387.438400
    785    784    796     1   110.5600475 386.601600
    785    784    786     1   109.7500473 328.025600
    786    784    796     1   110.5600475 386.601600
    787    780    809     1   110.1100470 384.091200
    787    790    791     1   109.8000471 387.438400
    787    790    792     1   109.8000471 387.438400
    788    787    790     1   110.5600475 386.601600
    788    787    789     1   109.7500473 328.025600
    789    787    790     1   110.5600475 386.601600
    790    799    800     1   109.5600471 388.275200
    790    799    801     1   109.5600471 388.275200
    791    790    799     1   109.8000471 387.438400
    791    790    792     1   107.5800459 329.699200
    792    790    799     1   109.8000471 387.438400
    793    805    806     1   109.5600471 388.275200
    793    805    807     1   109.5600471 388.275200
    794    793    805     1   109.8000471 387.438400
    794    793    795     1   107.5800459 329.699200
    795    793    805     1   109.8000471 387.438400
    796    802    803     1   109.5600471 388.275200
    796    802    804     1   109.5600471 388.275200
    797    796    802     1   109.8000471 387.438400
    797    796    798     1   107.5800459 329.699200
    798    796    802     1   109.8000471 387.438400
    800    799    808     1   109.7800468 425.094400
    800    799    801     1   108.4600466 328.025600
    801    799    808     1   109.7800468 425.094400
    803    802   1648     1   109.7800468 425.094400
    803    802    804     1   108.4600466 328.025600
    804    802   1648     1   109.7800468 425.094400
    806    805   1678     1   109.7800468 425.094400
    806    805    807     1   108.4600466 328.025600
    807    805   1678     1   109.7800468 425.094400
    810    811    812     1   108.0100461 406.684800
    810    811    813     1   108.0100461 406.684800
    810    814    815     1   108.0100461 406.684800
    810    814    816     1   108.0100461 406.684800
    810    817    818     1   108.0100461 406.684800
    810    817    819     1   108.0100461 406.684800
    811    810    839     1   110.1100470 384.091200
    811    823    824     1   109.8000471 387.438400
    811    823    825     1   109.8000471 387.438400
    812    811    823     1   110.5600475 386.601600
    812    811    813     1   109.7500473 328.025600
    813    811    823     1   110.5600475 386.601600
    814    810    839     1   110.1100470 384.091200
    814    826    827     1   109.8000471 387.438400
    814    826    828     1   109.8000471 387.438400
    815    814    826     1   110.5600475 386.601600
    815    814    816     1   109.7500473 328.025600
    816    814    826     1   110.5600475 386.601600
    817    810    839     1   110.1100470 384.091200
    817    820    821     1   109.8000471 387.438400
    817    820    822     1   109.8000471 387.438400
    818    817    820     1   110.5600475 386.601600
    818    817    819     1   109.7500473 328.025600
    819    817    820     1   110.5600475 386.601600
    820    829    830     1   109.5600471 388.275200
    820    829    831     1   109.5600471 388.275200
    821    820    829     1   109.8000471 387.438400
    821    820    822     1   107.5800459 329.699200
    822    820    829     1   109.8000471 387.438400
    823    835    836     1   109.5600471 388.275200
    823    835    837     1   109.5600471 388.275200
    824    823    835     1   109.8000471 387.438400
    824    823    825     1   107.5800459 329.699200
    825    823    835     1   109.8000471 387.438400
    826    832    833     1   109.5600471 388.275200
    826    832    834     1   109.5600471 388.275200
    827    826    832     1   109.8000471 387.438400
    827    826    828     1   107.5800459 329.699200
    828    826    832     1   109.8000471 387.438400
    830    829    838     1   109.7800468 425.094400
    830    829    831     1   108.4600466 328.025600
    831    829    838     1   109.7800468 425.094400
    833    832   1708     1   109.7800468 425.094400
    833    832    834     1   108.4600466 328.025600
    834    832   1708     1   109.7800468 425.094400
    836    835   1738     1   109.7800468 425.094400
    836    835    837     1   108.4600466 328.025600
    837    835   1738     1   109.7800468 425.094400
    840    841    842     1   108.0100461 406.684800
    840    841    843     1   108.0100461 406.684800
    840    844    845     1   108.0100461 406.684800
    840    844    846     1   108.0100461 406.684800
    840    847    848     1   108.0100461 406.684800
    840    847    849     1   108.0100461 406.684800
    841    840    869     1   110.1100470 384.091200
    841    853    854     1   109.8000471 387.438400
    841    853    855     1   109.8000471 387.438400
    842    841    853     1   110.5600475 386.601600
    842    841    843     1   109.7500473 328.025600
    843    841    853     1   110.5600475 386.601600
    844    840    869     1   110.1100470 384.091200
    844    856    857     1   109.8000471 387.438400
    844    856    858     1   109.8000471 387.438400
    845    844    856     1   110.5600475 386.601600
    845    844    846     1   109.7500473 328.025600
    846    844    856     1   110.5600475 386.601600
    847    840    869     1   110.1100470 384.091200
    847    850    851     1   109.8000471 387.438400
    847    850    852     1   109.8000471 387.438400
    848    847    850     1   110.5600475 386.601600
    848    847    849     1   109.7500473 328.025600
    849    847    850     1   110.5600475 386.601600
    850    859    860     1   109.5600471 388.275200
    850    859    861     1   109.5600471 388.275200
    851    850    859     1   109.8000471 387.438400
    851    850    852     1   107.5800459 329.699200
    852    850    859     1   109.8000471 387.438400
    853    865    866     1   109.5600471 388.275200
    853    865    867     1   109.5600471 388.275200
    854    853    865     1   109.8000471 387.438400
    854    853    855     1   107.5800459 329.699200
    855    853    865     1   109.8000471 387.438400
    856    862    863     1   109.5600471 388.275200
    856    862    864     1   109.5600471 388.275200
    857    856    862     1   109.8000471 387.438400
    857    856    858     1   107.5800459 329.699200
    858    856    862     1   109.8000471 387.438400
    860    859    868     1   109.7800468 425.094400
    860    859    861     1   108.4600466 328.025600
    861    859    868     1   109.7800468 425.094400
    863    862   1768     1   109.7800468 425.094400
    863    862    864     1   108.4600466 328.025600
    864    862   1768     1   109.7800468 425.094400
    866    865   1798     1   109.7800468 425.094400
    866    865    867     1   108.4600466 328.025600
    867    865   1798     1   109.7800468 425.094400
    870    871    872     1   108.0100461 406.684800
    870    871    873     1   108.0100461 406.684800
    870    874    875     1   108.0100461 406.684800
    870    874    876     1   108.0100461 406.684800
    870    877    878     1   108.0100461 406.684800
    870    877    879     1   108.0100461 406.684800
    871    870    899     1   110.1100470 384.091200
    871    883    884     1   109.8000471 387.438400
    871    883    885     1   109.8000471 387.438400
    872    871    883     1   110.5600475 386.601600
    872    871    873     1   109.7500473 328.025600
    873    871    883     1   110.5600475 386.601600
    874    870    899     1   110.1100470 384.091200
    874    886    887     1   109.8000471 387.438400
    874    886    888     1   109.8000471 387.438400
    875    874    886     1   110.5600475 386.601600
    875    874    876     1   109.7500473 328.025600
    876    874    886     1   110.5600475 386.601600
    877    870    899     1   110.1100470 384.091200
    877    880    881     1   109.8000471 387.438400
    877    880    882     1   109.8000471 387.438400
    878    877    880     1   110.5600475 386.601600
    878    877    879     1   109.7500473 328.025600
    879    877    880     1   110.5600475 386.601600
    880    889    890     1   109.5600471 388.275200
    880    889    891     1   109.5600471 388.275200
    881    880    889     1   109.8000471 387.438400
    881    880    882     1   107.5800459 329.699200
    882    880    889     1   109.8000471 387.438400
    883    895    896     1   109.5600471 388.275200
    883    895    897     1   109.5600471 388.275200
    884    883    895     1   109.8000471 387.438400
    884    883    885     1   107.5800459 329.699200
    885    883    895     1   109.8000471 387.438400
    886    892    893     1   109.5600471 388.275200
    886    892    894     1   109.5600471 388.275200
    887    886    892     1   109.8000471 387.438400
    887    886    888     1   107.5800459 329.699200
    888    886    892     1   109.8000471 387.438400
    890    889    898     1   109.7800468 425.094400
    890    889    891     1   108.4600466 328.025600
    891    889    898     1   109.7800468 425.094400
    893    892   1828     1   109.7800468 425.094400
    893    892    894     1   108.4600466 328.025600
    894    892   1828     1   109.7800468 425.094400
    896    895   1858     1   109.7800468 425.094400
    896    895    897     1   108.4600466 328.025600
    897    895   1858     1   109.7800468 425.094400
    900    901    902     1   108.0100461 406.684800
    900    901    903     1   108.0100461 406.684800
    900    904    905     1   108.0100461 406.684800
    900    904    906     1   108.0100461 406.684800
    900    907    908     1   108.0100461 406.684800
    900    907    909     1   108.0100461 406.684800
    901    900    929     1   110.1100470 384.091200
    901    913    914     1   109.8000471 387.438400
    901    913    915     1   109.8000471 387.438400
    902    901    913     1   110.5600475 386.601600
    902    901    903     1   109.7500473 328.025600
    903    901    913     1   110.5600475 386.601600
    904    900    929     1   110.1100470 384.091200
    904    916    917     1   109.8000471 387.438400
    904    916    918     1   109.8000471 387.438400
    905    904    916     1   110.5600475 386.601600
    905    904    906     1   109.7500473 328.025600
    906    904    916     1   110.5600475 386.601600
    907    900    929     1   110.1100470 384.091200
    907    910    911     1   109.8000471 387.438400
    907    910    912     1   109.8000471 387.438400
    908    907    910     1   110.5600475 386.601600
    908    907    909     1   109.7500473 328.025600
    909    907    910     1   110.5600475 386.601600
    910    919    920     1   109.5600471 388.275200
    910    919    921     1   109.5600471 388.275200
    911    910    919     1   109.8000471 387.438400
    911    910    912     1   107.5800459 329.699200
    912    910    919     1   109.8000471 387.438400
    913    925    926     1   109.5600471 388.275200
    913    925    927     1   109.5600471 388.275200
    914    913    925     1   109.8000471 387.438400
    914    913    915     1   107.5800459 329.699200
    915    913    925     1   109.8000471 387.438400
    916    922    923     1   109.5600471 388.275200
    916    922    924     1   109.5600471 388.275200
    917    916    922     1   109.8000471 387.438400
    917    916    918     1   107.5800459 329.699200
    918    916    922     1   109.8000471 387.438400
    920    919    928     1   109.7800468 425.094400
    920    919    921     1   108.4600466 328.025600
    921    919    928     1   109.7800468 425.094400
    923    922   1888     1   109.7800468 425.094400
    923    922    924     1   108.4600466 328.025600
    924    922   1888     1   109.7800468 425.094400
    926    925   1918     1   109.7800468 425.094400
    926    925    927     1   108.4600466 328.025600
    927    925   1918     1   109.7800468 425.094400
    930    931    932     1   108.0100461 406.684800
    930    931    933     1   108.0100461 406.684800
    930    934    935     1   108.0100461 406.684800
    930    934    936     1   108.0100461 406.684800
    930    937    938     1   108.0100461 406.684800
    930    937    939     1   108.0100461 406.684800
    931    930    959     1   110.1100470 384.091200
    931    943    944     1   109.8000471 387.438400
    931    943    945     1   109.8000471 387.438400
    932    931    943     1   110.5600475 386.601600
    932    931    933     1   109.7500473 328.025600
    933    931    943     1   110.5600475 386.601600
    934    930    959     1   110.1100470 384.091200
    934    946    947     1   109.8000471 387.438400
    934    946    948     1   109.8000471 387.438400
    935    934    946     1   110.5600475 386.601600
    935    934    936     1   109.7500473 328.025600
    936    934    946     1   110.5600475 386.601600
    937    930    959     1   110.1100470 384.091200
    937    940    941     1   109.8000471 387.438400
    937    940    942     1   109.8000471 387.438400
    938    937    940     1   110.5600475 386.601600
    938    937    939     1   109.7500473 328.025600
    939    937    940     1   110.5600475 386.601600
    940    949    950     1   109.5600471 388.275200
    940    949    951     1   109.5600471 388.275200
    941    940    949     1   109.8000471 387.438400
    941    940    942     1   107.5800459 329.699200
    942    940    949     1   109.8000471 387.438400
    943    955    956     1   109.5600471 388.275200
    943    955    957     1   109.5600471 388.275200
    944    943    955     1   109.8000471 387.438400
    944    943    945     1   107.5800459 329.699200
    945    943    955     1   109.8000471 387.438400
    946    952    953     1   109.5600471 388.275200
    946    952    954     1   109.5600471 388.275200
    947    946    952     1   109.8000471 387.438400
    947    946    948     1   107.5800459 329.699200
    948    946    952     1   109.8000471 387.438400
    950    949    958     1   109.7800468 425.094400
    950    949    951     1   108.4600466 328.025600
    951    949    958     1   109.7800468 425.094400
    953    952   1948     1   109.7800468 425.094400
    953    952    954     1   108.4600466 328.025600
    954    952   1948     1   109.7800468 425.094400
    956    955   1978     1   109.7800468 425.094400
    956    955    957     1   108.4600466 328.025600
    957    955   1978     1   109.7800468 425.094400
    960    961    962     1   108.0100461 406.684800
    960    961    963     1   108.0100461 406.684800
    960    964    965     1   108.0100461 406.684800
    960    964    966     1   108.0100461 406.684800
    960    967    968     1   108.0100461 406.684800
    960    967    969     1   108.0100461 406.684800
    961    960    989     1   110.1100470 384.091200
    961    973    974     1   109.8000471 387.438400
    961    973    975     1   109.8000471 387.438400
    962    961    973     1   110.5600475 386.601600
    962    961    963     1   109.7500473 328.025600
    963    961    973     1   110.5600475 386.601600
    964    960    989     1   110.1100470 384.091200
    964    976    977     1   109.8000471 387.438400
    964    976    978     1   109.8000471 387.438400
    965    964    976     1   110.5600475 386.601600
    965    964    966     1   109.7500473 328.025600
    966    964    976     1   110.5600475 386.601600
    967    960    989     1   110.1100470 384.091200
    967    970    971     1   109.8000471 387.438400
    967    970    972     1   109.8000471 387.438400
    968    967    970     1   110.5600475 386.601600
    968    967    969     1   109.7500473 328.025600
    969    967    970     1   110.5600475 386.601600
    970    979    980     1   109.5600471 388.275200
    970    979    981     1   109.5600471 388.275200
    971    970    979     1   109.8000471 387.438400
    971    970    972     1   107.5800459 329.699200
    972    970    979     1   109.8000471 387.438400
    973    985    986     1   109.5600471 388.275200
    973    985    987     1   109.5600471 388.275200
    974    973    985     1   109.8000471 387.438400
    974    973    975     1   107.5800459 329.699200
    975    973    985     1   109.8000471 387.438400
    976    982    983     1   109.5600471 388.275200
    976    982    984     1   109.5600471 388.275200
    977    976    982     1   109.8000471 387.438400
    977    976    978     1   107.5800459 329.699200
    978    976    982     1   109.8000471 387.438400
    980    979    988     1   109.7800468 425.094400
    980    979    981     1   108.4600466 328.025600
    981    979    988     1   109.7800468 425.094400
    983    982   2008     1   109.7800468 425.094400
    983    982    984     1   108.4600466 328.025600
    984    982   2008     1   109.7800468 425.094400
    986    985   2038     1   109.7800468 425.094400
    986    985    987     1   108.4600466 328.025600
    987    985   2038     1   109.7800468 425.094400
    990    991    992     1   108.0100461 406.684800
    990    991    993     1   108.0100461 406.684800
    990    994    995     1   108.0100461 406.684800
    990    994    996     1   108.0100461 406.684800
    990    997    998     1   108.0100461 406.684800
    990    997    999     1   108.0100461 406.684800
    991    990   1019     1   110.1100470 384.091200
    991   1003   1004     1   109.8000471 387.438400
    991   1003   1005     1   109.8000471 387.438400
    992    991   1003     1   110.5600475 386.601600
    992    991    993     1   109.7500473 328.025600
    993    991   1003     1   110.5600475 386.601600
    994    990   1019     1   110.1100470 384.091200
    994   1006   1007     1   109.8000471 387.438400
    994   1006   1008     1   109.8000471 387.438400
    995    994   1006     1   110.5600475 386.601600
    995    994    996     1   109.7500473 328.025600
    996    994   1006     1   110.5600475 386.601600
    997    990   1019     1   110.1100470 384.091200
    997   1000   1001     1   109.8000471 387.438400
    997   1000   1002     1   109.8000471 387.438400
    998    997   1000     1   110.5600475 386.601600
    998    997    999     1   109.7500473 328.025600
    999    997   1000     1   110.5600475 386.601600
   1000   1009   1010     1   109.5600471 388.275200
   1000   1009   1011     1   109.5600471 388.275200
   1001   1000   1009     1   109.8000471 387.438400
   1001   1000   1002     1   107.5800459 329.699200
   1002   1000   1009     1   109.8000471 387.438400
   1003   1015   1016     1   109.5600471 388.275200
   1003   1015   1017     1   109.5600471 388.275200
   1004   1003   1015     1   109.8000471 387.438400
   1004   1003   1005     1   107.5800459 329.699200
   1005   1003   1015     1   109.8000471 387.438400
   1006   1012   1013     1   109.5600471 388.275200
   1006   1012   1014     1   109.5600471 388.275200
   1007   1006   1012     1   109.8000471 387.438400
   1007   1006   1008     1   107.5800459 329.699200
   1008   1006   1012     1   109.8000471 387.438400
   1010   1009   1018     1   109.7800468 425.094400
   1010   1009   1011     1   108.4600466 328.025600
   1011   1009   1018     1   109.7800468 425.094400
   1013   1012   2068     1   109.7800468 425.094400
   1013   1012   1014     1   108.4600466 328.025600
   1014   1012   2068     1   109.7800468 425.094400
   1016   1015   2098     1   109.7800468 425.094400
   1016   1015   1017     1   108.4600466 328.025600
   1017   1015   2098     1   109.7800468 425.094400
   1020   1021   1022     1   108.0100461 406.684800
   1020   1021   1023     1   108.0100461 406.684800
   1020   1024   1025     1   108.0100461 406.684800
   1020   1024   1026     1   108.0100461 406.684800
   1020   1027   1028     1   108.0100461 406.684800
   1020   1027   1029     1   108.0100461 406.684800
   1021   1020   1049     1   110.1100470 384.091200
   1021   1033   1034     1   109.8000471 387.438400
   1021   1033   1035     1   109.8000471 387.438400
   1022   1021   1033     1   110.5600475 386.601600
   1022   1021   1023     1   109.7500473 328.025600
   1023   1021   1033     1   110.5600475 386.601600
   1024   1020   1049     1   110.1100470 384.091200
   1024   1036   1037     1   109.8000471 387.438400
   1024   1036   1038     1   109.8000471 387.438400
   1025   1024   1036     1   110.5600475 386.601600
   1025   1024   1026     1   109.7500473 328.025600
   1026   1024   1036     1   110.5600475 386.601600
   1027   1020   1049     1   110.1100470 384.091200
   1027   1030   1031     1   109.8000471 387.438400
   1027   1030   1032     1   109.8000471 387.438400
   1028   1027   1030     1   110.5600475 386.601600
   1028   1027   1029     1   109.7500473 328.025600
   1029   1027   1030     1   110.5600475 386.601600
   1030   1039   1040     1   109.5600471 388.275200
   1030   1039   1041     1   109.5600471 388.275200
   1031   1030   1039     1   109.8000471 387.438400
   1031   1030   1032     1   107.5800459 329.699200
   1032   1030   1039     1   109.8000471 387.438400
   1033   1045   1046     1   109.5600471 388.275200
   1033   1045   1047     1   109.5600471 388.275200
   1034   1033   1045     1   109.8000471 387.438400
   1034   1033   1035     1   107.5800459 329.699200
   1035   1033   1045     1   109.8000471 387.438400
   1036   1042   1043     1   109.5600471 388.275200
   1036   1042   1044     1   109.5600471 388.275200
   1037   1036   1042     1   109.8000471 387.438400
   1037   1036   1038     1   107.5800459 329.699200
   1038   1036   1042     1   109.8000471 387.438400
   1040   1039   1048     1   109.7800468 425.094400
   1040   1039   1041     1   108.4600466 328.025600
   1041   1039   1048     1   109.7800468 425.094400
   1043   1042   2128     1   109.7800468 425.094400
   1043   1042   1044     1   108.4600466 328.025600
   1044   1042   2128     1   109.7800468 425.094400
   1046   1045   2158     1   109.7800468 425.094400
   1046   1045   1047     1   108.4600466 328.025600
   1047   1045   2158     1   109.7800468 425.094400
   1050   1051   1052     1   108.0100461 406.684800
   1050   1051   1053     1   108.0100461 406.684800
   1050   1054   1055     1   108.0100461 406.684800
   1050   1054   1056     1   108.0100461 406.684800
   1050   1057   1058     1   108.0100461 406.684800
   1050   1057   1059     1   108.0100461 406.684800
   1051   1050   1079     1   110.1100470 384.091200
   1051   1063   1064     1   109.8000471 387.438400
   1051   1063   1065     1   109.8000471 387.438400
   1052   1051   1063     1   110.5600475 386.601600
   1052   1051   1053     1   109.7500473 328.025600
   1053   1051   1063     1   110.5600475 386.601600
   1054   1050   1079     1   110.1100470 384.091200
   1054   1066   1067     1   109.8000471 387.438400
   1054   1066   1068     1   109.8000471 387.438400
   1055   1054   1066     1   110.5600475 386.601600
   1055   1054   1056     1   109.7500473 328.025600
   1056   1054   1066     1   110.5600475 386.601600
   1057   1050   1079     1   110.1100470 384.091200
   1057   1060   1061     1   109.8000471 387.438400
   1057   1060   1062     1   109.8000471 387.438400
   1058   1057   1060     1   110.5600475 386.601600
   1058   1057   1059     1   109.7500473 328.025600
   1059   1057   1060     1   110.5600475 386.601600
   1060   1069   1070     1   109.5600471 388.275200
   1060   1069   1071     1   109.5600471 388.275200
   1061   1060   1069     1   109.8000471 387.438400
   1061   1060   1062     1   107.5800459 329.699200
   1062   1060   1069     1   109.8000471 387.438400
   1063   1075   1076     1   109.5600471 388.275200
   1063   1075   1077     1   109.5600471 388.275200
   1064   1063   1075     1   109.8000471 387.438400
   1064   1063   1065     1   107.5800459 329.699200
   1065   1063   1075     1   109.8000471 387.438400
   1066   1072   1073     1   109.5600471 388.275200
   1066   1072   1074     1   109.5600471 388.275200
   1067   1066   1072     1   109.8000471 387.438400
   1067   1066   1068     1   107.5800459 329.699200
   1068   1066   1072     1   109.8000471 387.438400
   1070   1069   1078     1   109.7800468 425.094400
   1070   1069   1071     1   108.4600466 328.025600
   1071   1069   1078     1   109.7800468 425.094400
   1073   1072   2188     1   109.7800468 425.094400
   1073   1072   1074     1   108.4600466 328.025600
   1074   1072   2188     1   109.7800468 425.094400
   1076   1075   2218     1   109.7800468 425.094400
   1076   1075   1077     1   108.4600466 328.025600
   1077   1075   2218     1   109.7800468 425.094400
   1080   1081   1082     1   108.0100461 406.684800
   1080   1081   1083     1   108.0100461 406.684800
   1080   1084   1085     1   108.0100461 406.684800
   1080   1084   1086     1   108.0100461 406.684800
   1080   1087   1088     1   108.0100461 406.684800
   1080   1087   1089     1   108.0100461 406.684800
   1081   1080   1109     1   110.1100470 384.091200
   1081   1093   1094     1   109.8000471 387.438400
   1081   1093   1095     1   109.8000471 387.438400
   1082   1081   1093     1   110.5600475 386.601600
   1082   1081   1083     1   109.7500473 328.025600
   1083   1081   1093     1   110.5600475 386.601600
   1084   1080   1109     1   110.1100470 384.091200
   1084   1096   1097     1   109.8000471 387.438400
   1084   1096   1098     1   109.8000471 387.438400
   1085   1084   1096     1   110.5600475 386.601600
   1085   1084   1086     1   109.7500473 328.025600
   1086   1084   1096     1   110.5600475 386.601600
   1087   1080   1109     1   110.1100470 384.091200
   1087   1090   1091     1   109.8000471 387.438400
   1087   1090   1092     1   109.8000471 387.438400
   1088   1087   1090     1   110.5600475 386.601600
   1088   1087   1089     1   109.7500473 328.025600
   1089   1087   1090     1   110.5600475 386.601600
   1090   1099   1100     1   109.5600471 388.275200
   1090   1099   1101     1   109.5600471 388.275200
   1091   1090   1099     1   109.8000471 387.438400
   1091   1090   1092     1   107.5800459 329.699200
   1092   1090   1099     1   109.8000471 387.438400
   1093   1105   1106     1   109.5600471 388.275200
   1093   1105   1107     1   109.5600471 388.275200
   1094   1093   1105     1   109.8000471 387.438400
   1094   1093   1095     1   107.5800459 329.699200
   1095   1093   1105     1   109.8000471 387.438400
   1096   1102   1103     1   109.5600471 388.275200
   1096   1102   1104     1   109.5600471 388.275200
   1097   1096   1102     1   109.8000471 387.438400
   1097   1096   1098     1   107.5800459 329.699200
   1098   1096   1102     1   109.8000471 387.438400
   1100   1099   1108     1   109.7800468 425.094400
   1100   1099   1101     1   108.4600466 328.025600
   1101   1099   1108     1   109.7800468 425.094400
   1103   1102   2248     1   109.7800468 425.094400
   1103   1102   1104     1   108.4600466 328.025600
   1104   1102   2248     1   109.7800468 425.094400
   1106   1105   2278     1   109.7800468 425.094400
   1106   1105   1107     1   108.4600466 328.025600
   1107   1105   2278     1   109.7800468 425.094400
   1110   1111   1112     1   108.0100461 406.684800
   1110   1111   1113     1   108.0100461 406.684800
   1110   1114   1115     1   108.0100461 406.684800
   1110   1114   1116     1   108.0100461 406.684800
   1110   1117   1118     1   108.0100461 406.684800
   1110   1117   1119     1   108.0100461 406.684800
   1111   1110   1139     1   110.1100470 384.091200
   1111   1123   1124     1   109.8000471 387.438400
   1111   1123   1125     1   109.8000471 387.438400
   1112   1111   1123     1   110.5600475 386.601600
   1112   1111   1113     1   109.7500473 328.025600
   1113   1111   1123     1   110.5600475 386.601600
   1114   1110   1139     1   110.1100470 384.091200
   1114   1126   1127     1   109.8000471 387.438400
   1114   1126   1128     1   109.8000471 387.438400
   1115   1114   1126     1   110.5600475 386.601600
   1115   1114   1116     1   109.7500473 328.025600
   1116   1114   1126     1   110.5600475 386.601600
   1117   1110   1139     1   110.1100470 384.091200
   1117   1120   1121     1   109.8000471 387.438400
   1117   1120   1122     1   109.8000471 387.438400
   1118   1117   1120     1   110.5600475 386.601600
   1118   1117   1119     1   109.7500473 328.025600
   1119   1117   1120     1   110.5600475 386.601600
   1120   1129   1130     1   109.5600471 388.275200
   1120   1129   1131     1   109.5600471 388.275200
   1121   1120   1129     1   109.8000471 387.438400
   1121   1120   1122     1   107.5800459 329.699200
   1122   1120   1129     1   109.8000471 387.438400
   1123   1135   1136     1   109.5600471 388.275200
   1123   1135   1137     1   109.5600471 388.275200
   1124   1123   1135     1   109.8000471 387.438400
   1124   1123   1125     1   107.5800459 329.699200
   1125   1123   1135     1   109.8000471 387.438400
   1126   1132   1133     1   109.5600471 388.275200
   1126   1132   1134     1   109.5600471 388.275200
   1127   1126   1132     1   109.8000471 387.438400
   1127   1126   1128     1   107.5800459 329.699200
   1128   1126   1132     1   109.8000471 387.438400
   1130   1129   1138     1   109.7800468 425.094400
   1130   1129   1131     1   108.4600466 328.025600
   1131   1129   1138     1   109.7800468 425.094400
   1133   1132   2308     1   109.7800468 425.094400
   1133   1132   1134     1   108.4600466 328.025600
   1134   1132   2308     1   109.7800468 425.094400
   1136   1135   2338     1   109.7800468 425.094400
   1136   1135   1137     1   108.4600466 328.025600
   1137   1135   2338     1   109.7800468 425.094400
   1140   1141   1142     1   108.0100461 406.684800
   1140   1141   1143     1   108.0100461 406.684800
   1140   1144   1145     1   108.0100461 406.684800
   1140   1144   1146     1   108.0100461 406.684800
   1140   1147   1148     1   108.0100461 406.684800
   1140   1147   1149     1   108.0100461 406.684800
   1141   1140   1169     1   110.1100470 384.091200
   1141   1153   1154     1   109.8000471 387.438400
   1141   1153   1155     1   109.8000471 387.438400
   1142   1141   1153     1   110.5600475 386.601600
   1142   1141   1143     1   109.7500473 328.025600
   1143   1141   1153     1   110.5600475 386.601600
   1144   1140   1169     1   110.1100470 384.091200
   1144   1156   1157     1   109.8000471 387.438400
   1144   1156   1158     1   109.8000471 387.438400
   1145   1144   1156     1   110.5600475 386.601600
   1145   1144   1146     1   109.7500473 328.025600
   1146   1144   1156     1   110.5600475 386.601600
   1147   1140   1169     1   110.1100470 384.091200
   1147   1150   1151     1   109.8000471 387.438400
   1147   1150   1152     1   109.8000471 387.438400
   1148   1147   1150     1   110.5600475 386.601600
   1148   1147   1149     1   109.7500473 328.025600
   1149   1147   1150     1   110.5600475 386.601600
   1150   1159   1160     1   109.5600471 388.275200
   1150   1159   1161     1   109.5600471 388.275200
   1151   1150   1159     1   109.8000471 387.438400
   1151   1150   1152     1   107.5800459 329.699200
   1152   1150   1159     1   109.8000471 387.438400
   1153   1165   1166     1   109.5600471 388.275200
   1153   1165   1167     1   109.5600471 388.275200
   1154   1153   1165     1   109.8000471 387.438400
   1154   1153   1155     1   107.5800459 329.699200
   1155   1153   1165     1   109.8000471 387.438400
   1156   1162   1163     1   109.5600471 388.275200
   1156   1162   1164     1   109.5600471 388.275200
   1157   1156   1162     1   109.8000471 387.438400
   1157   1156   1158     1   107.5800459 329.699200
   1158   1156   1162     1   109.8000471 387.438400
   1160   1159   1168     1   109.7800468 425.094400
   1160   1159   1161     1   108.4600466 328.025600
   1161   1159   1168     1   109.7800468 425.094400
   1163   1162   2368     1   109.7800468 425.094400
   1163   1162   1164     1   108.4600466 328.025600
   1164   1162   2368     1   109.7800468 425.094400
   1166   1165   2398     1   109.7800468 425.094400
   1166   1165   1167     1   108.4600466 328.025600
   1167   1165   2398     1   109.7800468 425.094400
   1170   1171   1172     1   108.0100461 406.684800
   1170   1171   1173     1   108.0100461 406.684800
   1170   1174   1175     1   108.0100461 406.684800
   1170   1174   1176     1   108.0100461 406.684800
   1170   1177   1178     1   108.0100461 406.684800
   1170   1177   1179     1   108.0100461 406.684800
   1171   1170   1199     1   110.1100470 384.091200
   1171   1183   1184     1   109.8000471 387.438400
   1171   1183   1185     1   109.8000471 387.438400
   1172   1171   1183     1   110.5600475 386.601600
   1172   1171   1173     1   109.7500473 328.025600
   1173   1171   1183     1   110.5600475 386.601600
   1174   1170   1199     1   110.1100470 384.091200
   1174   1186   1187     1   109.8000471 387.438400
   1174   1186   1188     1   109.8000471 387.438400
   1175   1174   1186     1   110.5600475 386.601600
   1175   1174   1176     1   109.7500473 328.025600
   1176   1174   1186     1   110.5600475 386.601600
   1177   1170   1199     1   110.1100470 384.091200
   1177   1180   1181     1   109.8000471 387.438400
   1177   1180   1182     1   109.8000471 387.438400
   1178   1177   1180     1   110.5600475 386.601600
   1178   1177   1179     1   109.7500473 328.025600
   1179   1177   1180     1   110.5600475 386.601600
   1180   1189   1190     1   109.5600471 388.275200
   1180   1189   1191     1   109.5600471 388.275200
   1181   1180   1189     1   109.8000471 387.438400
   1181   1180   1182     1   107.5800459 329.699200
   1182   1180   1189     1   109.8000471 387.438400
   1183   1195   1196     1   109.5600471 388.275200
   1183   1195   1197     1   109.5600471 388.275200
   1184   1183   1195     1   109.8000471 387.438400
   1184   1183   1185     1   107.5800459 329.699200
   1185   1183   1195     1   109.8000471 387.438400
   1186   1192   1193     1   109.5600471 388.275200
   1186   1192   1194     1   109.5600471 388.275200
   1187   1186   1192     1   109.8000471 387.438400
   1187   1186   1188     1   107.5800459 329.699200
   1188   1186   1192     1   109.8000471 387.438400
   1190   1189   1198     1   109.7800468 425.094400
   1190   1189   1191     1   108.4600466 328.025600
   1191   1189   1198     1   109.7800468 425.094400
   1193   1192   2428     1   109.7800468 425.094400
   1193   1192   1194     1   108.4600466 328.025600
   1194   1192   2428     1   109.7800468 425.094400
   1196   1195   2458     1   109.7800468 425.094400
   1196   1195   1197     1   108.4600466 328.025600
   1197   1195   2458     1   109.7800468 425.094400
   1200   1201   1202     1   108.0100461 406.684800
   1200   1201   1203     1   108.0100461 406.684800
   1200   1204   1205     1   108.0100461 406.684800
   1200   1204   1206     1   108.0100461 406.684800
   1200   1207   1208     1   108.0100461 406.684800
   1200   1207   1209     1   108.0100461 406.684800
   1201   1200   1229     1   110.1100470 384.091200
   1201   1213   1214     1   109.8000471 387.438400
   1201   1213   1215     1   109.8000471 387.438400
   1202   1201   1213     1   110.5600475 386.601600
   1202   1201   1203     1   109.7500473 328.025600
   1203   1201   1213     1   110.5600475 386.601600
   1204   1200   1229     1   110.1100470 384.091200
   1204   1216   1217     1   109.8000471 387.438400
   1204   1216   1218     1   109.8000471 387.438400
   1205   1204   1216     1   110.5600475 386.601600
   1205   1204   1206     1   109.7500473 328.025600
   1206   1204   1216     1   110.5600475 386.601600
   1207   1200   1229     1   110.1100470 384.091200
   1207   1210   1211     1   109.8000471 387.438400
   1207   1210   1212     1   109.8000471 387.438400
   1208   1207   1210     1   110.5600475 386.601600
   1208   1207   1209     1   109.7500473 328.025600
   1209   1207   1210     1   110.5600475 386.601600
   1210   1219   1220     1   109.5600471 388.275200
   1210   1219   1221     1   109.5600471 388.275200
   1211   1210   1219     1   109.8000471 387.438400
   1211   1210   1212     1   107.5800459 329.699200
   1212   1210   1219     1   109.8000471 387.438400
   1213   1225   1226     1   109.5600471 388.275200
   1213   1225   1227     1   109.5600471 388.275200
   1214   1213   1225     1   109.8000471 387.438400
   1214   1213   1215     1   107.5800459 329.699200
   1215   1213   1225     1   109.8000471 387.438400
   1216   1222   1223     1   109.5600471 388.275200
   1216   1222   1224     1   109.5600471 388.275200
   1217   1216   1222     1   109.8000471 387.438400
   1217   1216   1218     1   107.5800459 329.699200
   1218   1216   1222     1   109.8000471 387.438400
   1220   1219   1228     1   109.7800468 425.094400
   1220   1219   1221     1   108.4600466 328.025600
   1221   1219   1228     1   109.7800468 425.094400
   1223   1222   2488     1   109.7800468 425.094400
   1223   1222   1224     1   108.4600466 328.025600
   1224   1222   2488     1   109.7800468 425.094400
   1226   1225   2518     1   109.7800468 425.094400
   1226   1225   1227     1   108.4600466 328.025600
   1227   1225   2518     1   109.7800468 425.094400
   1230   1231   1232     1   108.0100461 406.684800
   1230   1231   1233     1   108.0100461 406.684800
   1230   1234   1235     1   108.0100461 406.684800
   1230   1234   1236     1   108.0100461 406.684800
   1230   1237   1238     1   108.0100461 406.684800
   1230   1237   1239     1   108.0100461 406.684800
   1231   1230   1259     1   110.1100470 384.091200
   1231   1243   1244     1   109.8000471 387.438400
   1231   1243   1245     1   109.8000471 387.438400
   1232   1231   1243     1   110.5600475 386.601600
   1232   1231   1233     1   109.7500473 328.025600
   1233   1231   1243     1   110.5600475 386.601600
   1234   1230   1259     1   110.1100470 384.091200
   1234   1246   1247     1   109.8000471 387.438400
   1234   1246   1248     1   109.8000471 387.438400
   1235   1234   1246     1   110.5600475 386.601600
   1235   1234   1236     1   109.7500473 328.025600
   1236   1234   1246     1   110.5600475 386.601600
   1237   1230   1259     1   110.1100470 384.091200
   1237   1240   1241     1   109.8000471 387.438400
   1237   1240   1242     1   109.8000471 387.438400
   1238   1237   1240     1   110.5600475 386.601600
   1238   1237   1239     1   109.7500473 328.025600
   1239   1237   1240     1   110.5600475 386.601600
   1240   1249   1250     1   109.5600471 388.275200
   1240   1249   1251     1   109.5600471 388.275200
   1241   1240   1249     1   109.8000471 387.438400
   1241   1240   1242     1   107.5800459 329.699200
   1242   1240   1249     1   109.8000471 387.438400
   1243   1255   1256     1   109.5600471 388.275200
   1243   1255   1257     1   109.5600471 388.275200
   1244   1243   1255     1   109.8000471 387.438400
   1244   1243   1245     1   107.5800459 329.699200
   1245   1243   1255     1   109.8000471 387.438400
   1246   1252   1253     1   109.5600471 388.275200
   1246   1252   1254     1   109.5600471 388.275200
   1247   1246   1252     1   109.8000471 387.438400
   1247   1246   1248     1   107.5800459 329.699200
   1248   1246   1252     1   109.8000471 387.438400
   1250   1249   1258     1   109.7800468 425.094400
   1250   1249   1251     1   108.4600466 328.025600
   1251   1249   1258     1   109.7800468 425.094400
   1253   1252   2548     1   109.7800468 425.094400
   1253   1252   1254     1   108.4600466 328.025600
   1254   1252   2548     1   109.7800468 425.094400
   1256   1255   2578     1   109.7800468 425.094400
   1256   1255   1257     1   108.4600466 328.025600
   1257   1255   2578     1   109.7800468 425.094400
   1260   1261   1262     1   108.0100461 406.684800
   1260   1261   1263     1   108.0100461 406.684800
   1260   1264   1265     1   108.0100461 406.684800
   1260   1264   1266     1   108.0100461 406.684800
   1260   1267   1268     1   108.0100461 406.684800
   1260   1267   1269     1   108.0100461 406.684800
   1261   1260   1289     1   110.1100470 384.091200
   1261   1273   1274     1   109.8000471 387.438400
   1261   1273   1275     1   109.8000471 387.438400
   1262   1261   1273     1   110.5600475 386.601600
   1262   1261   1263     1   109.7500473 328.025600
   1263   1261   1273     1   110.5600475 386.601600
   1264   1260   1289     1   110.1100470 384.091200
   1264   1276   1277     1   109.8000471 387.438400
   1264   1276   1278     1   109.8000471 387.438400
   1265   1264   1276     1   110.5600475 386.601600
   1265   1264   1266     1   109.7500473 328.025600
   1266   1264   1276     1   110.5600475 386.601600
   1267   1260   1289     1   110.1100470 384.091200
   1267   1270   1271     1   109.8000471 387.438400
   1267   1270   1272     1   109.8000471 387.438400
   1268   1267   1270     1   110.5600475 386.601600
   1268   1267   1269     1   109.7500473 328.025600
   1269   1267   1270     1   110.5600475 386.601600
   1270   1279   1280     1   109.5600471 388.275200
   1270   1279   1281     1   109.5600471 388.275200
   1271   1270   1279     1   109.8000471 387.438400
   1271   1270   1272     1   107.5800459 329.699200
   1272   1270   1279     1   109.8000471 387.438400
   1273   1285   1286     1   109.5600471 388.275200
   1273   1285   1287     1   109.5600471 388.275200
   1274   1273   1285     1   109.8000471 387.438400
   1274   1273   1275     1   107.5800459 329.699200
   1275   1273   1285     1   109.8000471 387.438400
   1276   1282   1283     1   109.5600471 388.275200
   1276   1282   1284     1   109.5600471 388.275200
   1277   1276   1282     1   109.8000471 387.438400
   1277   1276   1278     1   107.5800459 329.699200
   1278   1276   1282     1   109.8000471 387.438400
   1280   1279   1288     1   109.7800468 425.094400
   1280   1279   1281     1   108.4600466 328.025600
   1281   1279   1288     1   109.7800468 425.094400
   1283   1282   2608     1   109.7800468 425.094400
   1283   1282   1284     1   108.4600466 328.025600
   1284   1282   2608     1   109.7800468 425.094400
   1286   1285   2638     1   109.7800468 425.094400
   1286   1285   1287     1   108.4600466 328.025600
   1287   1285   2638     1   109.7800468 425.094400
   1290   1291   1292     1   108.0100461 406.684800
   1290   1291   1293     1   108.0100461 406.684800
   1290   1294   1295     1   108.0100461 406.684800
   1290   1294   1296     1   108.0100461 406.684800
   1290   1297   1298     1   108.0100461 406.684800
   1290   1297   1299     1   108.0100461 406.684800
   1291   1290   1319     1   110.1100470 384.091200
   1291   1303   1304     1   109.8000471 387.438400
   1291   1303   1305     1   109.8000471 387.438400
   1292   1291   1303     1   110.5600475 386.601600
   1292   1291   1293     1   109.7500473 328.025600
   1293   1291   1303     1   110.5600475 386.601600
   1294   1290   1319     1   110.1100470 384.091200
   1294   1306   1307     1   109.8000471 387.438400
   1294   1306   1308     1   109.8000471 387.438400
   1295   1294   1306     1   110.5600475 386.601600
   1295   1294   1296     1   109.7500473 328.025600
   1296   1294   1306     1   110.5600475 386.601600
   1297   1290   1319     1   110.1100470 384.091200
   1297   1300   1301     1   109.8000471 387.438400
   1297   1300   1302     1   109.8000471 387.438400
   1298   1297   1300     1   110.5600475 386.601600
   1298   1297   1299     1   109.7500473 328.025600
   1299   1297   1300     1   110.5600475 386.601600
   1300   1309   1310     1   109.5600471 388.275200
   1300   1309   1311     1   109.5600471 388.275200
   1301   1300   1309     1   109.8000471 387.438400
   1301   1300   1302     1   107.5800459 329.699200
   1302   1300   1309     1   109.8000471 387.438400
   1303   1315   1316     1   109.5600471 388.275200
   1303   1315   1317     1   109.5600471 388.275200
   1304   1303   1315     1   109.8000471 387.438400
   1304   1303   1305     1   107.5800459 329.699200
   1305   1303   1315     1   109.8000471 387.438400
   1306   1312   1313     1   109.5600471 388.275200
   1306   1312   1314     1   109.5600471 388.275200
   1307   1306   1312     1   109.8000471 387.438400
   1307   1306   1308     1   107.5800459 329.699200
   1308   1306   1312     1   109.8000471 387.438400
   1310   1309   1318     1   109.7800468 425.094400
   1310   1309   1311     1   108.4600466 328.025600
   1311   1309   1318     1   109.7800468 425.094400
   1313   1312   2668     1   109.7800468 425.094400
   1313   1312   1314     1   108.4600466 328.025600
   1314   1312   2668     1   109.7800468 425.094400
   1316   1315   2698     1   109.7800468 425.094400
   1316   1315   1317     1   108.4600466 328.025600
   1317   1315   2698     1   109.7800468 425.094400
   1320   1321   1322     1   108.0100461 406.684800
   1320   1321   1323     1   108.0100461 406.684800
   1320   1324   1325     1   108.0100461 406.684800
   1320   1324   1326     1   108.0100461 406.684800
   1320   1327   1328     1   108.0100461 406.684800
   1320   1327   1329     1   108.0100461 406.684800
   1321   1320   1349     1   110.1100470 384.091200
   1321   1333   1334     1   109.8000471 387.438400
   1321   1333   1335     1   109.8000471 387.438400
   1322   1321   1333     1   110.5600475 386.601600
   1322   1321   1323     1   109.7500473 328.025600
   1323   1321   1333     1   110.5600475 386.601600
   1324   1320   1349     1   110.1100470 384.091200
   1324   1336   1337     1   109.8000471 387.438400
   1324   1336   1338     1   109.8000471 387.438400
   1325   1324   1336     1   110.5600475 386.601600
   1325   1324   1326     1   109.7500473 328.025600
   1326   1324   1336     1   110.5600475 386.601600
   1327   1320   1349     1   110.1100470 384.091200
   1327   1330   1331     1   109.8000471 387.438400
   1327   1330   1332     1   109.8000471 387.438400
   1328   1327   1330     1   110.5600475 386.601600
   1328   1327   1329     1   109.7500473 328.025600
   1329   1327   1330     1   110.5600475 386.601600
   1330   1339   1340     1   109.5600471 388.275200
   1330   1339   1341     1   109.5600471 388.275200
   1331   1330   1339     1   109.8000471 387.438400
   1331   1330   1332     1   107.5800459 329.699200
   1332   1330   1339     1   109.8000471 387.438400
   1333   1345   1346     1   109.5600471 388.275200
   1333   1345   1347     1   109.5600471 388.275200
   1334   1333   1345     1   109.8000471 387.438400
   1334   1333   1335     1   107.5800459 329.699200
   1335   1333   1345     1   109.8000471 387.438400
   1336   1342   1343     1   109.5600471 388.275200
   1336   1342   1344     1   109.5600471 388.275200
   1337   1336   1342     1   109.8000471 387.438400
   1337   1336   1338     1   107.5800459 329.699200
   1338   1336   1342     1   109.8000471 387.438400
   1340   1339   1348     1   109.7800468 425.094400
   1340   1339   1341     1   108.4600466 328.025600
   1341   1339   1348     1   109.7800468 425.094400
   1343   1342   2728     1   109.7800468 425.094400
   1343   1342   1344     1   108.4600466 328.025600
   1344   1342   2728     1   109.7800468 425.094400
   1346   1345   2758     1   109.7800468 425.094400
   1346   1345   1347     1   108.4600466 328.025600
   1347   1345   2758     1   109.7800468 425.094400
   1350   1351   1352     1   108.0100461 406.684800
   1350   1351   1353     1   108.0100461 406.684800
   1350   1354   1355     1   108.0100461 406.684800
   1350   1354   1356     1   108.0100461 406.684800
   1350   1357   1358     1   108.0100461 406.684800
   1350   1357   1359     1   108.0100461 406.684800
   1351   1350   1379     1   110.1100470 384.091200
   1351   1363   1364     1   109.8000471 387.438400
   1351   1363   1365     1   109.8000471 387.438400
   1352   1351   1363     1   110.5600475 386.601600
   1352   1351   1353     1   109.7500473 328.025600
   1353   1351   1363     1   110.5600475 386.601600
   1354   1350   1379     1   110.1100470 384.091200
   1354   1366   1367     1   109.8000471 387.438400
   1354   1366   1368     1   109.8000471 387.438400
   1355   1354   1366     1   110.5600475 386.601600
   1355   1354   1356     1   109.7500473 328.025600
   1356   1354   1366     1   110.5600475 386.601600
   1357   1350   1379     1   110.1100470 384.091200
   1357   1360   1361     1   109.8000471 387.438400
   1357   1360   1362     1   109.8000471 387.438400
   1358   1357   1360     1   110.5600475 386.601600
   1358   1357   1359     1   109.7500473 328.025600
   1359   1357   1360     1   110.5600475 386.601600
   1360   1369   1370     1   109.5600471 388.275200
   1360   1369   1371     1   109.5600471 388.275200
   1361   1360   1369     1   109.8000471 387.438400
   1361   1360   1362     1   107.5800459 329.699200
   1362   1360   1369     1   109.8000471 387.438400
   1363   1375   1376     1   109.5600471 388.275200
   1363   1375   1377     1   109.5600471 388.275200
   1364   1363   1375     1   109.8000471 387.438400
   1364   1363   1365     1   107.5800459 329.699200
   1365   1363   1375     1   109.8000471 387.438400
   1366   1372   1373     1   109.5600471 388.275200
   1366   1372   1374     1   109.5600471 388.275200
   1367   1366   1372     1   109.8000471 387.438400
   1367   1366   1368     1   107.5800459 329.699200
   1368   1366   1372     1   109.8000471 387.438400
   1370   1369   1378     1   109.7800468 425.094400
   1370   1369   1371     1   108.4600466 328.025600
   1371   1369   1378     1   109.7800468 425.094400
   1373   1372   2788     1   109.7800468 425.094400
   1373   1372   1374     1   108.4600466 328.025600
   1374   1372   2788     1   109.7800468 425.094400
   1376   1375   2818     1   109.7800468 425.094400
   1376   1375   1377     1   108.4600466 328.025600
   1377   1375   2818     1   109.7800468 425.094400
   1380   1381   1382     1   108.0100461 406.684800
   1380   1381   1383     1   108.0100461 406.684800
   1380   1384   1385     1   108.0100461 406.684800
   1380   1384   1386     1   108.0100461 406.684800
   1380   1387   1388     1   108.0100461 406.684800
   1380   1387   1389     1   108.0100461 406.684800
   1381   1380   1409     1   110.1100470 384.091200
   1381   1393   1394     1   109.8000471 387.438400
   1381   1393   1395     1   109.8000471 387.438400
   1382   1381   1393     1   110.5600475 386.601600
   1382   1381   1383     1   109.7500473 328.025600
   1383   1381   1393     1   110.5600475 386.601600
   1384   1380   1409     1   110.1100470 384.091200
   1384   1396   1397     1   109.8000471 387.438400
   1384   1396   1398     1   109.8000471 387.438400
   1385   1384   1396     1   110.5600475 386.601600
   1385   1384   1386     1   109.7500473 328.025600
   1386   1384   1396     1   110.5600475 386.601600
   1387   1380   1409     1   110.1100470 384.091200
   1387   1390   1391     1   109.8000471 387.438400
   1387   1390   1392     1   109.8000471 387.438400
   1388   1387   1390     1   110.5600475 386.601600
   1388   1387   1389     1   109.7500473 328.025600
   1389   1387   1390     1   110.5600475 386.601600
   1390   1399   1400     1   109.5600471 388.275200
   1390   1399   1401     1   109.5600471 388.275200
   1391   1390   1399     1   109.8000471 387.438400
   1391   1390   1392     1   107.5800459 329.699200
   1392   1390   1399     1   109.8000471 387.438400
   1393   1405   1406     1   109.5600471 388.275200
   1393   1405   1407     1   109.5600471 388.275200
   1394   1393   1405     1   109.8000471 387.438400
   1394   1393   1395     1   107.5800459 329.699200
   1395   1393   1405     1   109.8000471 387.438400
   1396   1402   1403     1   109.5600471 388.275200
   1396   1402   1404     1   109.5600471 388.275200
   1397   1396   1402     1   109.8000471 387.438400
   1397   1396   1398     1   107.5800459 329.699200
   1398   1396   1402     1   109.8000471 387.438400
   1400   1399   1408     1   109.7800468 425.094400
   1400   1399   1401     1   108.4600466 328.025600
   1401   1399   1408     1   109.7800468 425.094400
   1403   1402   2848     1   109.7800468 425.094400
   1403   1402   1404     1   108.4600466 328.025600
   1404   1402   2848     1   109.7800468 425.094400
   1406   1405   2878     1   109.7800468 425.094400
   1406   1405   1407     1   108.4600466 328.025600
   1407   1405   2878     1   109.7800468 425.094400
   1410   1411   1412     1   108.0100461 406.684800
   1410   1411   1413     1   108.0100461 406.684800
   1410   1414   1415     1   108.0100461 406.684800
   1410   1414   1416     1   108.0100461 406.684800
   1410   1417   1418     1   108.0100461 406.684800
   1410   1417   1419     1   108.0100461 406.684800
   1411   1410   1439     1   110.1100470 384.091200
   1411   1423   1424     1   109.8000471 387.438400
   1411   1423   1425     1   109.8000471 387.438400
   1412   1411   1423     1   110.5600475 386.601600
   1412   1411   1413     1   109.7500473 328.025600
   1413   1411   1423     1   110.5600475 386.601600
   1414   1410   1439     1   110.1100470 384.091200
   1414   1426   1427     1   109.8000471 387.438400
   1414   1426   1428     1   109.8000471 387.438400
   1415   1414   1426     1   110.5600475 386.601600
   1415   1414   1416     1   109.7500473 328.025600
   1416   1414   1426     1   110.5600475 386.601600
   1417   1410   1439     1   110.1100470 384.091200
   1417   1420   1421     1   109.8000471 387.438400
   1417   1420   1422     1   109.8000471 387.438400
   1418   1417   1420     1   110.5600475 386.601600
   1418   1417   1419     1   109.7500473 328.025600
   1419   1417   1420     1   110.5600475 386.601600
   1420   1429   1430     1   109.5600471 388.275200
   1420   1429   1431     1   109.5600471 388.275200
   1421   1420   1429     1   109.8000471 387.438400
   1421   1420   1422     1   107.5800459 329.699200
   1422   1420   1429     1   109.8000471 387.438400
   1423   1435   1436     1   109.5600471 388.275200
   1423   1435   1437     1   109.5600471 388.275200
   1424   1423   1435     1   109.8000471 387.438400
   1424   1423   1425     1   107.5800459 329.699200
   1425   1423   1435     1   109.8000471 387.438400
   1426   1432   1433     1   109.5600471 388.275200
   1426   1432   1434     1   109.5600471 388.275200
   1427   1426   1432     1   109.8000471 387.438400
   1427   1426   1428     1   107.5800459 329.699200
   1428   1426   1432     1   109.8000471 387.438400
   1430   1429   1438     1   109.7800468 425.094400
   1430   1429   1431     1   108.4600466 328.025600
   1431   1429   1438     1   109.7800468 425.094400
   1433   1432   2908     1   109.7800468 425.094400
   1433   1432   1434     1   108.4600466 328.025600
   1434   1432   2908     1   109.7800468 425.094400
   1436   1435   2938     1   109.7800468 425.094400
   1436   1435   1437     1   108.4600466 328.025600
   1437   1435   2938     1   109.7800468 425.094400
   1440   1441   1442     1   108.0100461 406.684800
   1440   1441   1443     1   108.0100461 406.684800
   1440   1444   1445     1   108.0100461 406.684800
   1440   1444   1446     1   108.0100461 406.684800
   1440   1447   1448     1   108.0100461 406.684800
   1440   1447   1449     1   108.0100461 406.684800
   1441   1440   1469     1   110.1100470 384.091200
   1441   1453   1454     1   109.8000471 387.438400
   1441   1453   1455     1   109.8000471 387.438400
   1442   1441   1453     1   110.5600475 386.601600
   1442   1441   1443     1   109.7500473 328.025600
   1443   1441   1453     1   110.5600475 386.601600
   1444   1440   1469     1   110.1100470 384.091200
   1444   1456   1457     1   109.8000471 387.438400
   1444   1456   1458     1   109.8000471 387.438400
   1445   1444   1456     1   110.5600475 386.601600
   1445   1444   1446     1   109.7500473 328.025600
   1446   1444   1456     1   110.5600475 386.601600
   1447   1440   1469     1   110.1100470 384.091200
   1447   1450   1451     1   109.8000471 387.438400
   1447   1450   1452     1   109.8000471 387.438400
   1448   1447   1450     1   110.5600475 386.601600
   1448   1447   1449     1   109.7500473 328.025600
   1449   1447   1450     1   110.5600475 386.601600
   1450   1459   1460     1   109.5600471 388.275200
   1450   1459   1461     1   109.5600471 388.275200
   1451   1450   1459     1   109.8000471 387.438400
   1451   1450   1452     1   107.5800459 329.699200
   1452   1450   1459     1   109.8000471 387.438400
   1453   1465   1466     1   109.5600471 388.275200
   1453   1465   1467     1   109.5600471 388.275200
   1454   1453   1465     1   109.8000471 387.438400
   1454   1453   1455     1   107.5800459 329.699200
   1455   1453   1465     1   109.8000471 387.438400
   1456   1462   1463     1   109.5600471 388.275200
   1456   1462   1464     1   109.5600471 388.275200
   1457   1456   1462     1   109.8000471 387.438400
   1457   1456   1458     1   107.5800459 329.699200
   1458   1456   1462     1   109.8000471 387.438400
   1460   1459   1468     1   109.7800468 425.094400
   1460   1459   1461     1   108.4600466 328.025600
   1461   1459   1468     1   109.7800468 425.094400
   1463   1462   2968     1   109.7800468 425.094400
   1463   1462   1464     1   108.4600466 328.025600
   1464   1462   2968     1   109.7800468 425.094400
   1466   1465   2998     1   109.7800468 425.094400
   1466   1465   1467     1   108.4600466 328.025600
   1467   1465   2998     1   109.7800468 425.094400
   1470   1471   1472     1   108.0100461 406.684800
   1470   1471   1473     1   108.0100461 406.684800
   1470   1474   1475     1   108.0100461 406.684800
   1470   1474   1476     1   108.0100461 406.684800
   1470   1477   1478     1   108.0100461 406.684800
   1470   1477   1479     1   108.0100461 406.684800
   1471   1470   1499     1   110.1100470 384.091200
   1471   1483   1484     1   109.8000471 387.438400
   1471   1483   1485     1   109.8000471 387.438400
   1472   1471   1483     1   110.5600475 386.601600
   1472   1471   1473     1   109.7500473 328.025600
   1473   1471   1483     1   110.5600475 386.601600
   1474   1470   1499     1   110.1100470 384.091200
   1474   1486   1487     1   109.8000471 387.438400
   1474   1486   1488     1   109.8000471 387.438400
   1475   1474   1486     1   110.5600475 386.601600
   1475   1474   1476     1   109.7500473 328.025600
   1476   1474   1486     1   110.5600475 386.601600
   1477   1470   1499     1   110.1100470 384.091200
   1477   1480   1481     1   109.8000471 387.438400
   1477   1480   1482     1   109.8000471 387.438400
   1478   1477   1480     1   110.5600475 386.601600
   1478   1477   1479     1   109.7500473 328.025600
   1479   1477   1480     1   110.5600475 386.601600
   1480   1489   1490     1   109.5600471 388.275200
   1480   1489   1491     1   109.5600471 388.275200
   1481   1480   1489     1   109.8000471 387.438400
   1481   1480   1482     1   107.5800459 329.699200
   1482   1480   1489     1   109.8000471 387.438400
   1483   1495   1496     1   109.5600471 388.275200
   1483   1495   1497     1   109.5600471 388.275200
   1484   1483   1495     1   109.8000471 387.438400
   1484   1483   1485     1   107.5800459 329.699200
   1485   1483   1495     1   109.8000471 387.438400
   1486   1492   1493     1   109.5600471 388.275200
   1486   1492   1494     1   109.5600471 388.275200
   1487   1486   1492     1   109.8000471 387.438400
   1487   1486   1488     1   107.5800459 329.699200
   1488   1486   1492     1   109.8000471 387.438400
   1490   1489   1498     1   109.7800468 425.094400
   1490   1489   1491     1   108.4600466 328.025600
   1491   1489   1498     1   109.7800468 425.094400
   1493   1492   3028     1   109.7800468 425.094400
   1493   1492   1494     1   108.4600466 328.025600
   1494   1492   3028     1   109.7800468 425.094400
   1496   1495   3058     1   109.7800468 425.094400
   1496   1495   1497     1   108.4600466 328.025600
   1497   1495   3058     1   109.7800468 425.094400
   1500   1501   1502     1   108.0100461 406.684800
   1500   1501   1503     1   108.0100461 406.684800
   1500   1504   1505     1   108.0100461 406.684800
   1500   1504   1506     1   108.0100461 406.684800
   1500   1507   1508     1   108.0100461 406.684800
   1500   1507   1509     1   108.0100461 406.684800
   1501   1500   1529     1   110.1100470 384.091200
   1501   1513   1514     1   109.8000471 387.438400
   1501   1513   1515     1   109.8000471 387.438400
   1502   1501   1513     1   110.5600475 386.601600
   1502   1501   1503     1   109.7500473 328.025600
   1503   1501   1513     1   110.5600475 386.601600
   1504   1500   1529     1   110.1100470 384.091200
   1504   1516   1517     1   109.8000471 387.438400
   1504   1516   1518     1   109.8000471 387.438400
   1505   1504   1516     1   110.5600475 386.601600
   1505   1504   1506     1   109.7500473 328.025600
   1506   1504   1516     1   110.5600475 386.601600
   1507   1500   1529     1   110.1100470 384.091200
   1507   1510   1511     1   109.8000471 387.438400
   1507   1510   1512     1   109.8000471 387.438400
   1508   1507   1510     1   110.5600475 386.601600
   1508   1507   1509     1   109.7500473 328.025600
   1509   1507   1510     1   110.5600475 386.601600
   1510   1519   1520     1   109.5600471 388.275200
   1510   1519   1521     1   109.5600471 388.275200
   1511   1510   1519     1   109.8000471 387.438400
   1511   1510   1512     1   107.5800459 329.699200
   1512   1510   1519     1   109.8000471 387.438400
   1513   1525   1526     1   109.5600471 388.275200
   1513   1525   1527     1   109.5600471 388.275200
   1514   1513   1525     1   109.8000471 387.438400
   1514   1513   1515     1   107.5800459 329.699200
   1515   1513   1525     1   109.8000471 387.438400
   1516   1522   1523     1   109.5600471 388.275200
   1516   1522   1524     1   109.5600471 388.275200
   1517   1516   1522     1   109.8000471 387.438400
   1517   1516   1518     1   107.5800459 329.699200
   1518   1516   1522     1   109.8000471 387.438400
   1520   1519   1528     1   109.7800468 425.094400
   1520   1519   1521     1   108.4600466 328.025600
   1521   1519   1528     1   109.7800468 425.094400
   1523   1522   3088     1   109.7800468 425.094400
   1523   1522   1524     1   108.4600466 328.025600
   1524   1522   3088     1   109.7800468 425.094400
   1526   1525   3118     1   109.7800468 425.094400
   1526   1525   1527     1   108.4600466 328.025600
   1527   1525   3118     1   109.7800468 425.094400
   1530   1531   1532     1   108.0100461 406.684800
   1530   1531   1533     1   108.0100461 406.684800
   1530   1534   1535     1   108.0100461 406.684800
   1530   1534   1536     1   108.0100461 406.684800
   1530   1537   1538     1   108.0100461 406.684800
   1530   1537   1539     1   108.0100461 406.684800
   1531   1530   1559     1   110.1100470 384.091200
   1531   1543   1544     1   109.8000471 387.438400
   1531   1543   1545     1   109.8000471 387.438400
   1532   1531   1543     1   110.5600475 386.601600
   1532   1531   1533     1   109.7500473 328.025600
   1533   1531   1543     1   110.5600475 386.601600
   1534   1530   1559     1   110.1100470 384.091200
   1534   1546   1547     1   109.8000471 387.438400
   1534   1546   1548     1   109.8000471 387.438400
   1535   1534   1546     1   110.5600475 386.601600
   1535   1534   1536     1   109.7500473 328.025600
   1536   1534   1546     1   110.5600475 386.601600
   1537   1530   1559     1   110.1100470 384.091200
   1537   1540   1541     1   109.8000471 387.438400
   1537   1540   1542     1   109.8000471 387.438400
   1538   1537   1540     1   110.5600475 386.601600
   1538   1537   1539     1   109.7500473 328.025600
   1539   1537   1540     1   110.5600475 386.601600
   1540   1549   1550     1   109.5600471 388.275200
   1540   1549   1551     1   109.5600471 388.275200
   1541   1540   1549     1   109.8000471 387.438400
   1541   1540   1542     1   107.5800459 329.699200
   1542   1540   1549     1   109.8000471 387.438400
   1543   1555   1556     1   109.5600471 388.275200
   1543   1555   1557     1   109.5600471 388.275200
   1544   1543   1555     1   109.8000471 387.438400
   1544   1543   1545     1   107.5800459 329.699200
   1545   1543   1555     1   109.8000471 387.438400
   1546   1552   1553     1   109.5600471 388.275200
   1546   1552   1554     1   109.5600471 388.275200
   1547   1546   1552     1   109.8000471 387.438400
   1547   1546   1548     1   107.5800459 329.699200
   1548   1546   1552     1   109.8000471 387.438400
   1550   1549   1558     1   109.7800468 425.094400
   1550   1549   1551     1   108.4600466 328.025600
   1551   1549   1558     1   109.7800468 425.094400
   1553   1552   3148     1   109.7800468 425.094400
   1553   1552   1554     1   108.4600466 328.025600
   1554   1552   3148     1   109.7800468 425.094400
   1556   1555   3178     1   109.7800468 425.094400
   1556   1555   1557     1   108.4600466 328.025600
   1557   1555   3178     1   109.7800468 425.094400
   1560   1561   1562     1   108.0100461 406.684800
   1560   1561   1563     1   108.0100461 406.684800
   1560   1564   1565     1   108.0100461 406.684800
   1560   1564   1566     1   108.0100461 406.684800
   1560   1567   1568     1   108.0100461 406.684800
   1560   1567   1569     1   108.0100461 406.684800
   1561   1560   1589     1   110.1100470 384.091200
   1561   1573   1574     1   109.8000471 387.438400
   1561   1573   1575     1   109.8000471 387.438400
   1562   1561   1573     1   110.5600475 386.601600
   1562   1561   1563     1   109.7500473 328.025600
   1563   1561   1573     1   110.5600475 386.601600
   1564   1560   1589     1   110.1100470 384.091200
   1564   1576   1577     1   109.8000471 387.438400
   1564   1576   1578     1   109.8000471 387.438400
   1565   1564   1576     1   110.5600475 386.601600
   1565   1564   1566     1   109.7500473 328.025600
   1566   1564   1576     1   110.5600475 386.601600
   1567   1560   1589     1   110.1100470 384.091200
   1567   1570   1571     1   109.8000471 387.438400
   1567   1570   1572     1   109.8000471 387.438400
   1568   1567   1570     1   110.5600475 386.601600
   1568   1567   1569     1   109.7500473 328.025600
   1569   1567   1570     1   110.5600475 386.601600
   1570   1579   1580     1   109.5600471 388.275200
   1570   1579   1581     1   109.5600471 388.275200
   1571   1570   1579     1   109.8000471 387.438400
   1571   1570   1572     1   107.5800459 329.699200
   1572   1570   1579     1   109.8000471 387.438400
   1573   1585   1586     1   109.5600471 388.275200
   1573   1585   1587     1   109.5600471 388.275200
   1574   1573   1585     1   109.8000471 387.438400
   1574   1573   1575     1   107.5800459 329.699200
   1575   1573   1585     1   109.8000471 387.438400
   1576   1582   1583     1   109.5600471 388.275200
   1576   1582   1584     1   109.5600471 388.275200
   1577   1576   1582     1   109.8000471 387.438400
   1577   1576   1578     1   107.5800459 329.699200
   1578   1576   1582     1   109.8000471 387.438400
   1580   1579   1588     1   109.7800468 425.094400
   1580   1579   1581     1   108.4600466 328.025600
   1581   1579   1588     1   109.7800468 425.094400
   1583   1582   3208     1   109.7800468 425.094400
   1583   1582   1584     1   108.4600466 328.025600
   1584   1582   3208     1   109.7800468 425.094400
   1586   1585   3238     1   109.7800468 425.094400
   1586   1585   1587     1   108.4600466 328.025600
   1587   1585   3238     1   109.7800468 425.094400
   1590   1591   1592     1   108.0100461 406.684800
   1590   1591   1593     1   108.0100461 406.684800
   1590   1594   1595     1   108.0100461 406.684800
   1590   1594   1596     1   108.0100461 406.684800
   1590   1597   1598     1   108.0100461 406.684800
   1590   1597   1599     1   108.0100461 406.684800
   1591   1590   1619     1   110.1100470 384.091200
   1591   1603   1604     1   109.8000471 387.438400
   1591   1603   1605     1   109.8000471 387.438400
   1592   1591   1603     1   110.5600475 386.601600
   1592   1591   1593     1   109.7500473 328.025600
   1593   1591   1603     1   110.5600475 386.601600
   1594   1590   1619     1   110.1100470 384.091200
   1594   1606   1607     1   109.8000471 387.438400
   1594   1606   1608     1   109.8000471 387.438400
   1595   1594   1606     1   110.5600475 386.601600
   1595   1594   1596     1   109.7500473 328.025600
   1596   1594   1606     1   110.5600475 386.601600
   1597   1590   1619     1   110.1100470 384.091200
   1597   1600   1601     1   109.8000471 387.438400
   1597   1600   1602     1   109.8000471 387.438400
   1598   1597   1600     1   110.5600475 386.601600
   1598   1597   1599     1   109.7500473 328.025600
   1599   1597   1600     1   110.5600475 386.601600
   1600   1609   1610     1   109.5600471 388.275200
   1600   1609   1611     1   109.5600471 388.275200
   1601   1600   1609     1   109.8000471 387.438400
   1601   1600   1602     1   107.5800459 329.699200
   1602   1600   1609     1   109.8000471 387.438400
   1603   1615   1616     1   109.5600471 388.275200
   1603   1615   1617     1   109.5600471 388.275200
   1604   1603   1615     1   109.8000471 387.438400
   1604   1603   1605     1   107.5800459 329.699200
   1605   1603   1615     1   109.8000471 387.438400
   1606   1612   1613     1   109.5600471 388.275200
   1606   1612   1614     1   109.5600471 388.275200
   1607   1606   1612     1   109.8000471 387.438400
   1607   1606   1608     1   107.5800459 329.699200
   1608   1606   1612     1   109.8000471 387.438400
   1610   1609   1618     1   109.7800468 425.094400
   1610   1609   1611     1   108.4600466 328.025600
   1611   1609   1618     1   109.7800468 425.094400
   1613   1612   3268     1   109.7800468 425.094400
   1613   1612   1614     1   108.4600466 328.025600
   1614   1612   3268     1   109.7800468 425.094400
   1616   1615   3298     1   109.7800468 425.094400
   1616   1615   1617     1   108.4600466 328.025600
   1617   1615   3298     1   109.7800468 425.094400
   1620   1621   1622     1   108.0100461 406.684800
   1620   1621   1623     1   108.0100461 406.684800
   1620   1624   1625     1   108.0100461 406.684800
   1620   1624   1626     1   108.0100461 406.684800
   1620   1627   1628     1   108.0100461 406.684800
   1620   1627   1629     1   108.0100461 406.684800
   1621   1620   1649     1   110.1100470 384.091200
   1621   1633   1634     1   109.8000471 387.438400
   1621   1633   1635     1   109.8000471 387.438400
   1622   1621   1633     1   110.5600475 386.601600
   1622   1621   1623     1   109.7500473 328.025600
   1623   1621   1633     1   110.5600475 386.601600
   1624   1620   1649     1   110.1100470 384.091200
   1624   1636   1637     1   109.8000471 387.438400
   1624   1636   1638     1   109.8000471 387.438400
   1625   1624   1636     1   110.5600475 386.601600
   1625   1624   1626     1   109.7500473 328.025600
   1626   1624   1636     1   110.5600475 386.601600
   1627   1620   1649     1   110.1100470 384.091200
   1627   1630   1631     1   109.8000471 387.438400
   1627   1630   1632     1   109.8000471 387.438400
   1628   1627   1630     1   110.5600475 386.601600
   1628   1627   1629     1   109.7500473 328.025600
   1629   1627   1630     1   110.5600475 386.601600
   1630   1639   1640     1   109.5600471 388.275200
   1630   1639   1641     1   109.5600471 388.275200
   1631   1630   1639     1   109.8000471 387.438400
   1631   1630   1632     1   107.5800459 329.699200
   1632   1630   1639     1   109.8000471 387.438400
   1633   1645   1646     1   109.5600471 388.275200
   1633   1645   1647     1   109.5600471 388.275200
   1634   1633   1645     1   109.8000471 387.438400
   1634   1633   1635     1   107.5800459 329.699200
   1635   1633   1645     1   109.8000471 387.438400
   1636   1642   1643     1   109.5600471 388.275200
   1636   1642   1644     1   109.5600471 388.275200
   1637   1636   1642     1   109.8000471 387.438400
   1637   1636   1638     1   107.5800459 329.699200
   1638   1636   1642     1   109.8000471 387.438400
   1640   1639   1648     1   109.7800468 425.094400
   1640   1639   1641     1   108.4600466 328.025600
   1641   1639   1648     1   109.7800468 425.094400
   1643   1642   3328     1   109.7800468 425.094400
   1643   1642   1644     1   108.4600466 328.025600
   1644   1642   3328     1   109.7800468 425.094400
   1646   1645   3358     1   109.7800468 425.094400
   1646   1645   1647     1   108.4600466 328.025600
   1647   1645   3358     1   109.7800468 425.094400
   1650   1651   1652     1   108.0100461 406.684800
   1650   1651   1653     1   108.0100461 406.684800
   1650   1654   1655     1   108.0100461 406.684800
   1650   1654   1656     1   108.0100461 406.684800
   1650   1657   1658     1   108.0100461 406.684800
   1650   1657   1659     1   108.0100461 406.684800
   1651   1650   1679     1   110.1100470 384.091200
   1651   1663   1664     1   109.8000471 387.438400
   1651   1663   1665     1   109.8000471 387.438400
   1652   1651   1663     1   110.5600475 386.601600
   1652   1651   1653     1   109.7500473 328.025600
   1653   1651   1663     1   110.5600475 386.601600
   1654   1650   1679     1   110.1100470 384.091200
   1654   1666   1667     1   109.8000471 387.438400
   1654   1666   1668     1   109.8000471 387.438400
   1655   1654   1666     1   110.5600475 386.601600
   1655   1654   1656     1   109.7500473 328.025600
   1656   1654   1666     1   110.5600475 386.601600
   1657   1650   1679     1   110.1100470 384.091200
   1657   1660   1661     1   109.8000471 387.438400
   1657   1660   1662     1   109.8000471 387.438400
   1658   1657   1660     1   110.5600475 386.601600
   1658   1657   1659     1   109.7500473 328.025600
   1659   1657   1660     1   110.5600475 386.601600
   1660   1669   1670     1   109.5600471 388.275200
   1660   1669   1671     1   109.5600471 388.275200
   1661   1660   1669     1   109.8000471 387.438400
   1661   1660   1662     1   107.5800459 329.699200
   1662   1660   1669     1   109.8000471 387.438400
   1663   1675   1676     1   109.5600471 388.275200
   1663   1675   1677     1   109.5600471 388.275200
   1664   1663   1675     1   109.8000471 387.438400
   1664   1663   1665     1   107.5800459 329.699200
   1665   1663   1675     1   109.8000471 387.438400
   1666   1672   1673     1   109.5600471 388.275200
   1666   1672   1674     1   109.5600471 388.275200
   1667   1666   1672     1   109.8000471 387.438400
   1667   1666   1668     1   107.5800459 329.699200
   1668   1666   1672     1   109.8000471 387.438400
   1670   1669   1678     1   109.7800468 425.094400
   1670   1669   1671     1   108.4600466 328.025600
   1671   1669   1678     1   109.7800468 425.094400
   1673   1672   3388     1   109.7800468 425.094400
   1673   1672   1674     1   108.4600466 328.025600
   1674   1672   3388     1   109.7800468 425.094400
   1676   1675   3418     1   109.7800468 425.094400
   1676   1675   1677     1   108.4600466 328.025600
   1677   1675   3418     1   109.7800468 425.094400
   1680   1681   1682     1   108.0100461 406.684800
   1680   1681   1683     1   108.0100461 406.684800
   1680   1684   1685     1   108.0100461 406.684800
   1680   1684   1686     1   108.0100461 406.684800
   1680   1687   1688     1   108.0100461 406.684800
   1680   1687   1689     1   108.0100461 406.684800
   1681   1680   1709     1   110.1100470 384.091200
   1681   1693   1694     1   109.8000471 387.438400
   1681   1693   1695     1   109.8000471 387.438400
   1682   1681   1693     1   110.5600475 386.601600
   1682   1681   1683     1   109.7500473 328.025600
   1683   1681   1693     1   110.5600475 386.601600
   1684   1680   1709     1   110.1100470 384.091200
   1684   1696   1697     1   109.8000471 387.438400
   1684   1696   1698     1   109.8000471 387.438400
   1685   1684   1696     1   110.5600475 386.601600
   1685   1684   1686     1   109.7500473 328.025600
   1686   1684   1696     1   110.5600475 386.601600
   1687   1680   1709     1   110.1100470 384.091200
   1687   1690   1691     1   109.8000471 387.438400
   1687   1690   1692     1   109.8000471 387.438400
   1688   1687   1690     1   110.5600475 386.601600
   1688   1687   1689     1   109.7500473 328.025600
   1689   1687   1690     1   110.5600475 386.601600
   1690   1699   1700     1   109.5600471 388.275200
   1690   1699   1701     1   109.5600471 388.275200
   1691   1690   1699     1   109.8000471 387.438400
   1691   1690   1692     1   107.5800459 329.699200
   1692   1690   1699     1   109.8000471 387.438400
   1693   1705   1706     1   109.5600471 388.275200
   1693   1705   1707     1   109.5600471 388.275200
   1694   1693   1705     1   109.8000471 387.438400
   1694   1693   1695     1   107.5800459 329.699200
   1695   1693   1705     1   109.8000471 387.438400
   1696   1702   1703     1   109.5600471 388.275200
   1696   1702   1704     1   109.5600471 388.275200
   1697   1696   1702     1   109.8000471 387.438400
   1697   1696   1698     1   107.5800459 329.699200
   1698   1696   1702     1   109.8000471 387.438400
   1700   1699   1708     1   109.7800468 425.094400
   1700   1699   1701     1   108.4600466 328.025600
   1701   1699   1708     1   109.7800468 425.094400
   1703   1702   3448     1   109.7800468 425.094400
   1703   1702   1704     1   108.4600466 328.025600
   1704   1702   3448     1   109.7800468 425.094400
   1706   1705   3478     1   109.7800468 425.094400
   1706   1705   1707     1   108.4600466 328.025600
   1707   1705   3478     1   109.7800468 425.094400
   1710   1711   1712     1   108.0100461 406.684800
   1710   1711   1713     1   108.0100461 406.684800
   1710   1714   1715     1   108.0100461 406.684800
   1710   1714   1716     1   108.0100461 406.684800
   1710   1717   1718     1   108.0100461 406.684800
   1710   1717   1719     1   108.0100461 406.684800
   1711   1710   1739     1   110.1100470 384.091200
   1711   1723   1724     1   109.8000471 387.438400
   1711   1723   1725     1   109.8000471 387.438400
   1712   1711   1723     1   110.5600475 386.601600
   1712   1711   1713     1   109.7500473 328.025600
   1713   1711   1723     1   110.5600475 386.601600
   1714   1710   1739     1   110.1100470 384.091200
   1714   1726   1727     1   109.8000471 387.438400
   1714   1726   1728     1   109.8000471 387.438400
   1715   1714   1726     1   110.5600475 386.601600
   1715   1714   1716     1   109.7500473 328.025600
   1716   1714   1726     1   110.5600475 386.601600
   1717   1710   1739     1   110.1100470 384.091200
   1717   1720   1721     1   109.8000471 387.438400
   1717   1720   1722     1   109.8000471 387.438400
   1718   1717   1720     1   110.5600475 386.601600
   1718   1717   1719     1   109.7500473 328.025600
   1719   1717   1720     1   110.5600475 386.601600
   1720   1729   1730     1   109.5600471 388.275200
   1720   1729   1731     1   109.5600471 388.275200
   1721   1720   1729     1   109.8000471 387.438400
   1721   1720   1722     1   107.5800459 329.699200
   1722   1720   1729     1   109.8000471 387.438400
   1723   1735   1736     1   109.5600471 388.275200
   1723   1735   1737     1   109.5600471 388.275200
   1724   1723   1735     1   109.8000471 387.438400
   1724   1723   1725     1   107.5800459 329.699200
   1725   1723   1735     1   109.8000471 387.438400
   1726   1732   1733     1   109.5600471 388.275200
   1726   1732   1734     1   109.5600471 388.275200
   1727   1726   1732     1   109.8000471 387.438400
   1727   1726   1728     1   107.5800459 329.699200
   1728   1726   1732     1   109.8000471 387.438400
   1730   1729   1738     1   109.7800468 425.094400
   1730   1729   1731     1   108.4600466 328.025600
   1731   1729   1738     1   109.7800468 425.094400
   1733   1732   3508     1   109.7800468 425.094400
   1733   1732   1734     1   108.4600466 328.025600
   1734   1732   3508     1   109.7800468 425.094400
   1736   1735   3538     1   109.7800468 425.094400
   1736   1735   1737     1   108.4600466 328.025600
   1737   1735   3538     1   109.7800468 425.094400
   1740   1741   1742     1   108.0100461 406.684800
   1740   1741   1743     1   108.0100461 406.684800
   1740   1744   1745     1   108.0100461 406.684800
   1740   1744   1746     1   108.0100461 406.684800
   1740   1747   1748     1   108.0100461 406.684800
   1740   1747   1749     1   108.0100461 406.684800
   1741   1740   1769     1   110.1100470 384.091200
   1741   1753   1754     1   109.8000471 387.438400
   1741   1753   1755     1   109.8000471 387.438400
   1742   1741   1753     1   110.5600475 386.601600
   1742   1741   1743     1   109.7500473 328.025600
   1743   1741   1753     1   110.5600475 386.601600
   1744   1740   1769     1   110.1100470 384.091200
   1744   1756   1757     1   109.8000471 387.438400
   1744   1756   1758     1   109.8000471 387.438400
   1745   1744   1756     1   110.5600475 386.601600
   1745   1744   1746     1   109.7500473 328.025600
   1746   1744   1756     1   110.5600475 386.601600
   1747   1740   1769     1   110.1100470 384.091200
   1747   1750   1751     1   109.8000471 387.438400
   1747   1750   1752     1   109.8000471 387.438400
   1748   1747   1750     1   110.5600475 386.601600
   1748   1747   1749     1   109.7500473 328.025600
   1749   1747   1750     1   110.5600475 386.601600
   1750   1759   1760     1   109.5600471 388.275200
   1750   1759   1761     1   109.5600471 388.275200
   1751   1750   1759     1   109.8000471 387.438400
   1751   1750   1752     1   107.5800459 329.699200
   1752   1750   1759     1   109.8000471 387.438400
   1753   1765   1766     1   109.5600471 388.275200
   1753   1765   1767     1   109.5600471 388.275200
   1754   1753   1765     1   109.8000471 387.438400
   1754   1753   1755     1   107.5800459 329.699200
   1755   1753   1765     1   109.8000471 387.438400
   1756   1762   1763     1   109.5600471 388.275200
   1756   1762   1764     1   109.5600471 388.275200
   1757   1756   1762     1   109.8000471 387.438400
   1757   1756   1758     1   107.5800459 329.699200
   1758   1756   1762     1   109.8000471 387.438400
   1760   1759   1768     1   109.7800468 425.094400
   1760   1759   1761     1   108.4600466 328.025600
   1761   1759   1768     1   109.7800468 425.094400
   1763   1762   3568     1   109.7800468 425.094400
   1763   1762   1764     1   108.4600466 328.025600
   1764   1762   3568     1   109.7800468 425.094400
   1766   1765   3598     1   109.7800468 425.094400
   1766   1765   1767     1   108.4600466 328.025600
   1767   1765   3598     1   109.7800468 425.094400
   1770   1771   1772     1   108.0100461 406.684800
   1770   1771   1773     1   108.0100461 406.684800
   1770   1774   1775     1   108.0100461 406.684800
   1770   1774   1776     1   108.0100461 406.684800
   1770   1777   1778     1   108.0100461 406.684800
   1770   1777   1779     1   108.0100461 406.684800
   1771   1770   1799     1   110.1100470 384.091200
   1771   1783   1784     1   109.8000471 387.438400
   1771   1783   1785     1   109.8000471 387.438400
   1772   1771   1783     1   110.5600475 386.601600
   1772   1771   1773     1   109.7500473 328.025600
   1773   1771   1783     1   110.5600475 386.601600
   1774   1770   1799     1   110.1100470 384.091200
   1774   1786   1787     1   109.8000471 387.438400
   1774   1786   1788     1   109.8000471 387.438400
   1775   1774   1786     1   110.5600475 386.601600
   1775   1774   1776     1   109.7500473 328.025600
   1776   1774   1786     1   110.5600475 386.601600
   1777   1770   1799     1   110.1100470 384.091200
   1777   1780   1781     1   109.8000471 387.438400
   1777   1780   1782     1   109.8000471 387.438400
   1778   1777   1780     1   110.5600475 386.601600
   1778   1777   1779     1   109.7500473 328.025600
   1779   1777   1780     1   110.5600475 386.601600
   1780   1789   1790     1   109.5600471 388.275200
   1780   1789   1791     1   109.5600471 388.275200
   1781   1780   1789     1   109.8000471 387.438400
   1781   1780   1782     1   107.5800459 329.699200
   1782   1780   1789     1   109.8000471 387.438400
   1783   1795   1796     1   109.5600471 388.275200
   1783   1795   1797     1   109.5600471 388.275200
   1784   1783   1795     1   109.8000471 387.438400
   1784   1783   1785     1   107.5800459 329.699200
   1785   1783   1795     1   109.8000471 387.438400
   1786   1792   1793     1   109.5600471 388.275200
   1786   1792   1794     1   109.5600471 388.275200
   1787   1786   1792     1   109.8000471 387.438400
   1787   1786   1788     1   107.5800459 329.699200
   1788   1786   1792     1   109.8000471 387.438400
   1790   1789   1798     1   109.7800468 425.094400
   1790   1789   1791     1   108.4600466 328.025600
   1791   1789   1798     1   109.7800468 425.094400
   1793   1792   3628     1   109.7800468 425.094400
   1793   1792   1794     1   108.4600466 328.025600
   1794   1792   3628     1   109.7800468 425.094400
   1796   1795   3658     1   109.7800468 425.094400
   1796   1795   1797     1   108.4600466 328.025600
   1797   1795   3658     1   109.7800468 425.094400
   1800   1801   1802     1   108.0100461 406.684800
   1800   1801   1803     1   108.0100461 406.684800
   1800   1804   1805     1   108.0100461 406.684800
   1800   1804   1806     1   108.0100461 406.684800
   1800   1807   1808     1   108.0100461 406.684800
   1800   1807   1809     1   108.0100461 406.684800
   1801   1800   1829     1   110.1100470 384.091200
   1801   1813   1814     1   109.8000471 387.438400
   1801   1813   1815     1   109.8000471 387.438400
   1802   1801   1813     1   110.5600475 386.601600
   1802   1801   1803     1   109.7500473 328.025600
   1803   1801   1813     1   110.5600475 386.601600
   1804   1800   1829     1   110.1100470 384.091200
   1804   1816   1817     1   109.8000471 387.438400
   1804   1816   1818     1   109.8000471 387.438400
   1805   1804   1816     1   110.5600475 386.601600
   1805   1804   1806     1   109.7500473 328.025600
   1806   1804   1816     1   110.5600475 386.601600
   1807   1800   1829     1   110.1100470 384.091200
   1807   1810   1811     1   109.8000471 387.438400
   1807   1810   1812     1   109.8000471 387.438400
   1808   1807   1810     1   110.5600475 386.601600
   1808   1807   1809     1   109.7500473 328.025600
   1809   1807   1810     1   110.5600475 386.601600
   1810   1819   1820     1   109.5600471 388.275200
   1810   1819   1821     1   109.5600471 388.275200
   1811   1810   1819     1   109.8000471 387.438400
   1811   1810   1812     1   107.5800459 329.699200
   1812   1810   1819     1   109.8000471 387.438400
   1813   1825   1826     1   109.5600471 388.275200
   1813   1825   1827     1   109.5600471 388.275200
   1814   1813   1825     1   109.8000471 387.438400
   1814   1813   1815     1   107.5800459 329.699200
   1815   1813   1825     1   109.8000471 387.438400
   1816   1822   1823     1   109.5600471 388.275200
   1816   1822   1824     1   109.5600471 388.275200
   1817   1816   1822     1   109.8000471 387.438400
   1817   1816   1818     1   107.5800459 329.699200
   1818   1816   1822     1   109.8000471 387.438400
   1820   1819   1828     1   109.7800468 425.094400
   1820   1819   1821     1   108.4600466 328.025600
   1821   1819   1828     1   109.7800468 425.094400
   1823   1822   3688     1   109.7800468 425.094400
   1823   1822   1824     1   108.4600466 328.025600
   1824   1822   3688     1   109.7800468 425.094400
   1826   1825   3718     1   109.7800468 425.094400
   1826   1825   1827     1   108.4600466 328.025600
   1827   1825   3718     1   109.7800468 425.094400
   1830   1831   1832     1   108.0100461 406.684800
   1830   1831   1833     1   108.0100461 406.684800
   1830   1834   1835     1   108.0100461 406.684800
   1830   1834   1836     1   108.0100461 406.684800
   1830   1837   1838     1   108.0100461 406.684800
   1830   1837   1839     1   108.0100461 406.684800
   1831   1830   1859     1   110.1100470 384.091200
   1831   1843   1844     1   109.8000471 387.438400
   1831   1843   1845     1   109.8000471 387.438400
   1832   1831   1843     1   110.5600475 386.601600
   1832   1831   1833     1   109.7500473 328.025600
   1833   1831   1843     1   110.5600475 386.601600
   1834   1830   1859     1   110.1100470 384.091200
   1834   1846   1847     1   109.8000471 387.438400
   1834   1846   1848     1   109.8000471 387.438400
   1835   1834   1846     1   110.5600475 386.601600
   1835   1834   1836     1   109.7500473 328.025600
   1836   1834   1846     1   110.5600475 386.601600
   1837   1830   1859     1   110.1100470 384.091200
   1837   1840   1841     1   109.8000471 387.438400
   1837   1840   1842     1   109.8000471 387.438400
   1838   1837   1840     1   110.5600475 386.601600
   1838   1837   1839     1   109.7500473 328.025600
   1839   1837   1840     1   110.5600475 386.601600
   1840   1849   1850     1   109.5600471 388.275200
   1840   1849   1851     1   109.5600471 388.275200
   1841   1840   1849     1   109.8000471 387.438400
   1841   1840   1842     1   107.5800459 329.699200
   1842   1840   1849     1   109.8000471 387.438400
   1843   1855   1856     1   109.5600471 388.275200
   1843   1855   1857     1   109.5600471 388.275200
   1844   1843   1855     1   109.8000471 387.438400
   1844   1843   1845     1   107.5800459 329.699200
   1845   1843   1855     1   109.8000471 387.438400
   1846   1852   1853     1   109.5600471 388.275200
   1846   1852   1854     1   109.5600471 388.275200
   1847   1846   1852     1   109.8000471 387.438400
   1847   1846   1848     1   107.5800459 329.699200
   1848   1846   1852     1   109.8000471 387.438400
   1850   1849   1858     1   109.7800468 425.094400
   1850   1849   1851     1   108.4600466 328.025600
   1851   1849   1858     1   109.7800468 425.094400
   1853   1852   3748     1   109.7800468 425.094400
   1853   1852   1854     1   108.4600466 328.025600
   1854   1852   3748     1   109.7800468 425.094400
   1856   1855   3778     1   109.7800468 425.094400
   1856   1855   1857     1   108.4600466 328.025600
   1857   1855   3778     1   109.7800468 425.094400
   1860   1861   1862     1   108.0100461 406.684800
   1860   1861   1863     1   108.0100461 406.684800
   1860   1864   1865     1   108.0100461 406.684800
   1860   1864   1866     1   108.0100461 406.684800
   1860   1867   1868     1   108.0100461 406.684800
   1860   1867   1869     1   108.0100461 406.684800
   1861   1860   1889     1   110.1100470 384.091200
   1861   1873   1874     1   109.8000471 387.438400
   1861   1873   1875     1   109.8000471 387.438400
   1862   1861   1873     1   110.5600475 386.601600
   1862   1861   1863     1   109.7500473 328.025600
   1863   1861   1873     1   110.5600475 386.601600
   1864   1860   1889     1   110.1100470 384.091200
   1864   1876   1877     1   109.8000471 387.438400
   1864   1876   1878     1   109.8000471 387.438400
   1865   1864   1876     1   110.5600475 386.601600
   1865   1864   1866     1   109.7500473 328.025600
   1866   1864   1876     1   110.5600475 386.601600
   1867   1860   1889     1   110.1100470 384.091200
   1867   1870   1871     1   109.8000471 387.438400
   1867   1870   1872     1   109.8000471 387.438400
   1868   1867   1870     1   110.5600475 386.601600
   1868   1867   1869     1   109.7500473 328.025600
   1869   1867   1870     1   110.5600475 386.601600
   1870   1879   1880     1   109.5600471 388.275200
   1870   1879   1881     1   109.5600471 388.275200
   1871   1870   1879     1   109.8000471 387.438400
   1871   1870   1872     1   107.5800459 329.699200
   1872   1870   1879     1   109.8000471 387.438400
   1873   1885   1886     1   109.5600471 388.275200
   1873   1885   1887     1   109.5600471 388.275200
   1874   1873   1885     1   109.8000471 387.438400
   1874   1873   1875     1   107.5800459 329.699200
   1875   1873   1885     1   109.8000471 387.438400
   1876   1882   1883     1   109.5600471 388.275200
   1876   1882   1884     1   109.5600471 388.275200
   1877   1876   1882     1   109.8000471 387.438400
   1877   1876   1878     1   107.5800459 329.699200
   1878   1876   1882     1   109.8000471 387.438400
   1880   1879   1888     1   109.7800468 425.094400
   1880   1879   1881     1   108.4600466 328.025600
   1881   1879   1888     1   109.7800468 425.094400
   1883   1882   3792     1   109.7800468 425.094400
   1883   1882   1884     1   108.4600466 328.025600
   1884   1882   3792     1   109.7800468 425.094400
   1886   1885   3806     1   109.7800468 425.094400
   1886   1885   1887     1   108.4600466 328.025600
   1887   1885   3806     1   109.7800468 425.094400
   1890   1891   1892     1   108.0100461 406.684800
   1890   1891   1893     1   108.0100461 406.684800
   1890   1894   1895     1   108.0100461 406.684800
   1890   1894   1896     1   108.0100461 406.684800
   1890   1897   1898     1   108.0100461 406.684800
   1890   1897   1899     1   108.0100461 406.684800
   1891   1890   1919     1   110.1100470 384.091200
   1891   1903   1904     1   109.8000471 387.438400
   1891   1903   1905     1   109.8000471 387.438400
   1892   1891   1903     1   110.5600475 386.601600
   1892   1891   1893     1   109.7500473 328.025600
   1893   1891   1903     1   110.5600475 386.601600
   1894   1890   1919     1   110.1100470 384.091200
   1894   1906   1907     1   109.8000471 387.438400
   1894   1906   1908     1   109.8000471 387.438400
   1895   1894   1906     1   110.5600475 386.601600
   1895   1894   1896     1   109.7500473 328.025600
   1896   1894   1906     1   110.5600475 386.601600
   1897   1890   1919     1   110.1100470 384.091200
   1897   1900   1901     1   109.8000471 387.438400
   1897   1900   1902     1   109.8000471 387.438400
   1898   1897   1900     1   110.5600475 386.601600
   1898   1897   1899     1   109.7500473 328.025600
   1899   1897   1900     1   110.5600475 386.601600
   1900   1909   1910     1   109.5600471 388.275200
   1900   1909   1911     1   109.5600471 388.275200
   1901   1900   1909     1   109.8000471 387.438400
   1901   1900   1902     1   107.5800459 329.699200
   1902   1900   1909     1   109.8000471 387.438400
   1903   1915   1916     1   109.5600471 388.275200
   1903   1915   1917     1   109.5600471 388.275200
   1904   1903   1915     1   109.8000471 387.438400
   1904   1903   1905     1   107.5800459 329.699200
   1905   1903   1915     1   109.8000471 387.438400
   1906   1912   1913     1   109.5600471 388.275200
   1906   1912   1914     1   109.5600471 388.275200
   1907   1906   1912     1   109.8000471 387.438400
   1907   1906   1908     1   107.5800459 329.699200
   1908   1906   1912     1   109.8000471 387.438400
   1910   1909   1918     1   109.7800468 425.094400
   1910   1909   1911     1   108.4600466 328.025600
   1911   1909   1918     1   109.7800468 425.094400
   1913   1912   3820     1   109.7800468 425.094400
   1913   1912   1914     1   108.4600466 328.025600
   1914   1912   3820     1   109.7800468 425.094400
   1916   1915   3834     1   109.7800468 425.094400
   1916   1915   1917     1   108.4600466 328.025600
   1917   1915   3834     1   109.7800468 425.094400
   1920   1921   1922     1   108.0100461 406.684800
   1920   1921   1923     1   108.0100461 406.684800
   1920   1924   1925     1   108.0100461 406.684800
   1920   1924   1926     1   108.0100461 406.684800
   1920   1927   1928     1   108.0100461 406.684800
   1920   1927   1929     1   108.0100461 406.684800
   1921   1920   1949     1   110.1100470 384.091200
   1921   1933   1934     1   109.8000471 387.438400
   1921   1933   1935     1   109.8000471 387.438400
   1922   1921   1933     1   110.5600475 386.601600
   1922   1921   1923     1   109.7500473 328.025600
   1923   1921   1933     1   110.5600475 386.601600
   1924   1920   1949     1   110.1100470 384.091200
   1924   1936   1937     1   109.8000471 387.438400
   1924   1936   1938     1   109.8000471 387.438400
   1925   1924   1936     1   110.5600475 386.601600
   1925   1924   1926     1   109.7500473 328.025600
   1926   1924   1936     1   110.5600475 386.601600
   1927   1920   1949     1   110.1100470 384.091200
   1927   1930   1931     1   109.8000471 387.438400
   1927   1930   1932     1   109.8000471 387.438400
   1928   1927   1930     1   110.5600475 386.601600
   1928   1927   1929     1   109.7500473 328.025600
   1929   1927   1930     1   110.5600475 386.601600
   1930   1939   1940     1   109.5600471 388.275200
   1930   1939   1941     1   109.5600471 388.275200
   1931   1930   1939     1   109.8000471 387.438400
   1931   1930   1932     1   107.5800459 329.699200
   1932   1930   1939     1   109.8000471 387.438400
   1933   1945   1946     1   109.5600471 388.275200
   1933   1945   1947     1   109.5600471 388.275200
   1934   1933   1945     1   109.8000471 387.438400
   1934   1933   1935     1   107.5800459 329.699200
   1935   1933   1945     1   109.8000471 387.438400
   1936   1942   1943     1   109.5600471 388.275200
   1936   1942   1944     1   109.5600471 388.275200
   1937   1936   1942     1   109.8000471 387.438400
   1937   1936   1938     1   107.5800459 329.699200
   1938   1936   1942     1   109.8000471 387.438400
   1940   1939   1948     1   109.7800468 425.094400
   1940   1939   1941     1   108.4600466 328.025600
   1941   1939   1948     1   109.7800468 425.094400
   1943   1942   3848     1   109.7800468 425.094400
   1943   1942   1944     1   108.4600466 328.025600
   1944   1942   3848     1   109.7800468 425.094400
   1946   1945   3862     1   109.7800468 425.094400
   1946   1945   1947     1   108.4600466 328.025600
   1947   1945   3862     1   109.7800468 425.094400
   1950   1951   1952     1   108.0100461 406.684800
   1950   1951   1953     1   108.0100461 406.684800
   1950   1954   1955     1   108.0100461 406.684800
   1950   1954   1956     1   108.0100461 406.684800
   1950   1957   1958     1   108.0100461 406.684800
   1950   1957   1959     1   108.0100461 406.684800
   1951   1950   1979     1   110.1100470 384.091200
   1951   1963   1964     1   109.8000471 387.438400
   1951   1963   1965     1   109.8000471 387.438400
   1952   1951   1963     1   110.5600475 386.601600
   1952   1951   1953     1   109.7500473 328.025600
   1953   1951   1963     1   110.5600475 386.601600
   1954   1950   1979     1   110.1100470 384.091200
   1954   1966   1967     1   109.8000471 387.438400
   1954   1966   1968     1   109.8000471 387.438400
   1955   1954   1966     1   110.5600475 386.601600
   1955   1954   1956     1   109.7500473 328.025600
   1956   1954   1966     1   110.5600475 386.601600
   1957   1950   1979     1   110.1100470 384.091200
   1957   1960   1961     1   109.8000471 387.438400
   1957   1960   1962     1   109.8000471 387.438400
   1958   1957   1960     1   110.5600475 386.601600
   1958   1957   1959     1   109.7500473 328.025600
   1959   1957   1960     1   110.5600475 386.601600
   1960   1969   1970     1   109.5600471 388.275200
   1960   1969   1971     1   109.5600471 388.275200
   1961   1960   1969     1   109.8000471 387.438400
   1961   1960   1962     1   107.5800459 329.699200
   1962   1960   1969     1   109.8000471 387.438400
   1963   1975   1976     1   109.5600471 388.275200
   1963   1975   1977     1   109.5600471 388.275200
   1964   1963   1975     1   109.8000471 387.438400
   1964   1963   1965     1   107.5800459 329.699200
   1965   1963   1975     1   109.8000471 387.438400
   1966   1972   1973     1   109.5600471 388.275200
   1966   1972   1974     1   109.5600471 388.275200
   1967   1966   1972     1   109.8000471 387.438400
   1967   1966   1968     1   107.5800459 329.699200
   1968   1966   1972     1   109.8000471 387.438400
   1970   1969   1978     1   109.7800468 425.094400
   1970   1969   1971     1   108.4600466 328.025600
   1971   1969   1978     1   109.7800468 425.094400
   1973   1972   3876     1   109.7800468 425.094400
   1973   1972   1974     1   108.4600466 328.025600
   1974   1972   3876     1   109.7800468 425.094400
   1976   1975   3890     1   109.7800468 425.094400
   1976   1975   1977     1   108.4600466 328.025600
   1977   1975   3890     1   109.7800468 425.094400
   1980   1981   1982     1   108.0100461 406.684800
   1980   1981   1983     1   108.0100461 406.684800
   1980   1984   1985     1   108.0100461 406.684800
   1980   1984   1986     1   108.0100461 406.684800
   1980   1987   1988     1   108.0100461 406.684800
   1980   1987   1989     1   108.0100461 406.684800
   1981   1980   2009     1   110.1100470 384.091200
   1981   1993   1994     1   109.8000471 387.438400
   1981   1993   1995     1   109.8000471 387.438400
   1982   1981   1993     1   110.5600475 386.601600
   1982   1981   1983     1   109.7500473 328.025600
   1983   1981   1993     1   110.5600475 386.601600
   1984   1980   2009     1   110.1100470 384.091200
   1984   1996   1997     1   109.8000471 387.438400
   1984   1996   1998     1   109.8000471 387.438400
   1985   1984   1996     1   110.5600475 386.601600
   1985   1984   1986     1   109.7500473 328.025600
   1986   1984   1996     1   110.5600475 386.601600
   1987   1980   2009     1   110.1100470 384.091200
   1987   1990   1991     1   109.8000471 387.438400
   1987   1990   1992     1   109.8000471 387.438400
   1988   1987   1990     1   110.5600475 386.601600
   1988   1987   1989     1   109.7500473 328.025600
   1989   1987   1990     1   110.5600475 386.601600
   1990   1999   2000     1   109.5600471 388.275200
   1990   1999   2001     1   109.5600471 388.275200
   1991   1990   1999     1   109.8000471 387.438400
   1991   1990   1992     1   107.5800459 329.699200
   1992   1990   1999     1   109.8000471 387.438400
   1993   2005   2006     1   109.5600471 388.275200
   1993   2005   2007     1   109.5600471 388.275200
   1994   1993   2005     1   109.8000471 387.438400
   1994   1993   1995     1   107.5800459 329.699200
   1995   1993   2005     1   109.8000471 387.438400
   1996   2002   2003     1   109.5600471 388.275200
   1996   2002   2004     1   109.5600471 388.275200
   1997   1996   2002     1   109.8000471 387.438400
   1997   1996   1998     1   107.5800459 329.699200
   1998   1996   2002     1   109.8000471 387.438400
   2000   1999   2008     1   109.7800468 425.094400
   2000   1999   2001     1   108.4600466 328.025600
   2001   1999   2008     1   109.7800468 425.094400
   2003   2002   3904     1   109.7800468 425.094400
   2003   2002   2004     1   108.4600466 328.025600
   2004   2002   3904     1   109.7800468 425.094400
   2006   2005   3918     1   109.7800468 425.094400
   2006   2005   2007     1   108.4600466 328.025600
   2007   2005   3918     1   109.7800468 425.094400
   2010   2011   2012     1   108.0100461 406.684800
   2010   2011   2013     1   108.0100461 406.684800
   2010   2014   2015     1   108.0100461 406.684800
   2010   2014   2016     1   108.0100461 406.684800
   2010   2017   2018     1   108.0100461 406.684800
   2010   2017   2019     1   108.0100461 406.684800
   2011   2010   2039     1   110.1100470 384.091200
   2011   2023   2024     1   109.8000471 387.438400
   2011   2023   2025     1   109.8000471 387.438400
   2012   2011   2023     1   110.5600475 386.601600
   2012   2011   2013     1   109.7500473 328.025600
   2013   2011   2023     1   110.5600475 386.601600
   2014   2010   2039     1   110.1100470 384.091200
   2014   2026   2027     1   109.8000471 387.438400
   2014   2026   2028     1   109.8000471 387.438400
   2015   2014   2026     1   110.5600475 386.601600
   2015   2014   2016     1   109.7500473 328.025600
   2016   2014   2026     1   110.5600475 386.601600
   2017   2010   2039     1   110.1100470 384.091200
   2017   2020   2021     1   109.8000471 387.438400
   2017   2020   2022     1   109.8000471 387.438400
   2018   2017   2020     1   110.5600475 386.601600
   2018   2017   2019     1   109.7500473 328.025600
   2019   2017   2020     1   110.5600475 386.601600
   2020   2029   2030     1   109.5600471 388.275200
   2020   2029   2031     1   109.5600471 388.275200
   2021   2020   2029     1   109.8000471 387.438400
   2021   2020   2022     1   107.5800459 329.699200
   2022   2020   2029     1   109.8000471 387.438400
   2023   2035   2036     1   109.5600471 388.275200
   2023   2035   2037     1   109.5600471 388.275200
   2024   2023   2035     1   109.8000471 387.438400
   2024   2023   2025     1   107.5800459 329.699200
   2025   2023   2035     1   109.8000471 387.438400
   2026   2032   2033     1   109.5600471 388.275200
   2026   2032   2034     1   109.5600471 388.275200
   2027   2026   2032     1   109.8000471 387.438400
   2027   2026   2028     1   107.5800459 329.699200
   2028   2026   2032     1   109.8000471 387.438400
   2030   2029   2038     1   109.7800468 425.094400
   2030   2029   2031     1   108.4600466 328.025600
   2031   2029   2038     1   109.7800468 425.094400
   2033   2032   3932     1   109.7800468 425.094400
   2033   2032   2034     1   108.4600466 328.025600
   2034   2032   3932     1   109.7800468 425.094400
   2036   2035   3946     1   109.7800468 425.094400
   2036   2035   2037     1   108.4600466 328.025600
   2037   2035   3946     1   109.7800468 425.094400
   2040   2041   2042     1   108.0100461 406.684800
   2040   2041   2043     1   108.0100461 406.684800
   2040   2044   2045     1   108.0100461 406.684800
   2040   2044   2046     1   108.0100461 406.684800
   2040   2047   2048     1   108.0100461 406.684800
   2040   2047   2049     1   108.0100461 406.684800
   2041   2040   2069     1   110.1100470 384.091200
   2041   2053   2054     1   109.8000471 387.438400
   2041   2053   2055     1   109.8000471 387.438400
   2042   2041   2053     1   110.5600475 386.601600
   2042   2041   2043     1   109.7500473 328.025600
   2043   2041   2053     1   110.5600475 386.601600
   2044   2040   2069     1   110.1100470 384.091200
   2044   2056   2057     1   109.8000471 387.438400
   2044   2056   2058     1   109.8000471 387.438400
   2045   2044   2056     1   110.5600475 386.601600
   2045   2044   2046     1   109.7500473 328.025600
   2046   2044   2056     1   110.5600475 386.601600
   2047   2040   2069     1   110.1100470 384.091200
   2047   2050   2051     1   109.8000471 387.438400
   2047   2050   2052     1   109.8000471 387.438400
   2048   2047   2050     1   110.5600475 386.601600
   2048   2047   2049     1   109.7500473 328.025600
   2049   2047   2050     1   110.5600475 386.601600
   2050   2059   2060     1   109.5600471 388.275200
   2050   2059   2061     1   109.5600471 388.275200
   2051   2050   2059     1   109.8000471 387.438400
   2051   2050   2052     1   107.5800459 329.699200
   2052   2050   2059     1   109.8000471 387.438400
   2053   2065   2066     1   109.5600471 388.275200
   2053   2065   2067     1   109.5600471 388.275200
   2054   2053   2065     1   109.8000471 387.438400
   2054   2053   2055     1   107.5800459 329.699200
   2055   2053   2065     1   109.8000471 387.438400
   2056   2062   2063     1   109.5600471 388.275200
   2056   2062   2064     1   109.5600471 388.275200
   2057   2056   2062     1   109.8000471 387.438400
   2057   2056   2058     1   107.5800459 329.699200
   2058   2056   2062     1   109.8000471 387.438400
   2060   2059   2068     1   109.7800468 425.094400
   2060   2059   2061     1   108.4600466 328.025600
   2061   2059   2068     1   109.7800468 425.094400
   2063   2062   3960     1   109.7800468 425.094400
   2063   2062   2064     1   108.4600466 328.025600
   2064   2062   3960     1   109.7800468 425.094400
   2066   2065   3974     1   109.7800468 425.094400
   2066   2065   2067     1   108.4600466 328.025600
   2067   2065   3974     1   109.7800468 425.094400
   2070   2071   2072     1   108.0100461 406.684800
   2070   2071   2073     1   108.0100461 406.684800
   2070   2074   2075     1   108.0100461 406.684800
   2070   2074   2076     1   108.0100461 406.684800
   2070   2077   2078     1   108.0100461 406.684800
   2070   2077   2079     1   108.0100461 406.684800
   2071   2070   2099     1   110.1100470 384.091200
   2071   2083   2084     1   109.8000471 387.438400
   2071   2083   2085     1   109.8000471 387.438400
   2072   2071   2083     1   110.5600475 386.601600
   2072   2071   2073     1   109.7500473 328.025600
   2073   2071   2083     1   110.5600475 386.601600
   2074   2070   2099     1   110.1100470 384.091200
   2074   2086   2087     1   109.8000471 387.438400
   2074   2086   2088     1   109.8000471 387.438400
   2075   2074   2086     1   110.5600475 386.601600
   2075   2074   2076     1   109.7500473 328.025600
   2076   2074   2086     1   110.5600475 386.601600
   2077   2070   2099     1   110.1100470 384.091200
   2077   2080   2081     1   109.8000471 387.438400
   2077   2080   2082     1   109.8000471 387.438400
   2078   2077   2080     1   110.5600475 386.601600
   2078   2077   2079     1   109.7500473 328.025600
   2079   2077   2080     1   110.5600475 386.601600
   2080   2089   2090     1   109.5600471 388.275200
   2080   2089   2091     1   109.5600471 388.275200
   2081   2080   2089     1   109.8000471 387.438400
   2081   2080   2082     1   107.5800459 329.699200
   2082   2080   2089     1   109.8000471 387.438400
   2083   2095   2096     1   109.5600471 388.275200
   2083   2095   2097     1   109.5600471 388.275200
   2084   2083   2095     1   109.8000471 387.438400
   2084   2083   2085     1   107.5800459 329.699200
   2085   2083   2095     1   109.8000471 387.438400
   2086   2092   2093     1   109.5600471 388.275200
   2086   2092   2094     1   109.5600471 388.275200
   2087   2086   2092     1   109.8000471 387.438400
   2087   2086   2088     1   107.5800459 329.699200
   2088   2086   2092     1   109.8000471 387.438400
   2090   2089   2098     1   109.7800468 425.094400
   2090   2089   2091     1   108.4600466 328.025600
   2091   2089   2098     1   109.7800468 425.094400
   2093   2092   3988     1   109.7800468 425.094400
   2093   2092   2094     1   108.4600466 328.025600
   2094   2092   3988     1   109.7800468 425.094400
   2096   2095   4002     1   109.7800468 425.094400
   2096   2095   2097     1   108.4600466 328.025600
   2097   2095   4002     1   109.7800468 425.094400
   2100   2101   2102     1   108.0100461 406.684800
   2100   2101   2103     1   108.0100461 406.684800
   2100   2104   2105     1   108.0100461 406.684800
   2100   2104   2106     1   108.0100461 406.684800
   2100   2107   2108     1   108.0100461 406.684800
   2100   2107   2109     1   108.0100461 406.684800
   2101   2100   2129     1   110.1100470 384.091200
   2101   2113   2114     1   109.8000471 387.438400
   2101   2113   2115     1   109.8000471 387.438400
   2102   2101   2113     1   110.5600475 386.601600
   2102   2101   2103     1   109.7500473 328.025600
   2103   2101   2113     1   110.5600475 386.601600
   2104   2100   2129     1   110.1100470 384.091200
   2104   2116   2117     1   109.8000471 387.438400
   2104   2116   2118     1   109.8000471 387.438400
   2105   2104   2116     1   110.5600475 386.601600
   2105   2104   2106     1   109.7500473 328.025600
   2106   2104   2116     1   110.5600475 386.601600
   2107   2100   2129     1   110.1100470 384.091200
   2107   2110   2111     1   109.8000471 387.438400
   2107   2110   2112     1   109.8000471 387.438400
   2108   2107   2110     1   110.5600475 386.601600
   2108   2107   2109     1   109.7500473 328.025600
   2109   2107   2110     1   110.5600475 386.601600
   2110   2119   2120     1   109.5600471 388.275200
   2110   2119   2121     1   109.5600471 388.275200
   2111   2110   2119     1   109.8000471 387.438400
   2111   2110   2112     1   107.5800459 329.699200
   2112   2110   2119     1   109.8000471 387.438400
   2113   2125   2126     1   109.5600471 388.275200
   2113   2125   2127     1   109.5600471 388.275200
   2114   2113   2125     1   109.8000471 387.438400
   2114   2113   2115     1   107.5800459 329.699200
   2115   2113   2125     1   109.8000471 387.438400
   2116   2122   2123     1   109.5600471 388.275200
   2116   2122   2124     1   109.5600471 388.275200
   2117   2116   2122     1   109.8000471 387.438400
   2117   2116   2118     1   107.5800459 329.699200
   2118   2116   2122     1   109.8000471 387.438400
   2120   2119   2128     1   109.7800468 425.094400
   2120   2119   2121     1   108.4600466 328.025600
   2121   2119   2128     1   109.7800468 425.094400
   2123   2122   4016     1   109.7800468 425.094400
   2123   2122   2124     1   108.4600466 328.025600
   2124   2122   4016     1   109.7800468 425.094400
   2126   2125   4030     1   109.7800468 425.094400
   2126   2125   2127     1   108.4600466 328.025600
   2127   2125   4030     1   109.7800468 425.094400
   2130   2131   2132     1   108.0100461 406.684800
   2130   2131   2133     1   108.0100461 406.684800
   2130   2134   2135     1   108.0100461 406.684800
   2130   2134   2136     1   108.0100461 406.684800
   2130   2137   2138     1   108.0100461 406.684800
   2130   2137   2139     1   108.0100461 406.684800
   2131   2130   2159     1   110.1100470 384.091200
   2131   2143   2144     1   109.8000471 387.438400
   2131   2143   2145     1   109.8000471 387.438400
   2132   2131   2143     1   110.5600475 386.601600
   2132   2131   2133     1   109.7500473 328.025600
   2133   2131   2143     1   110.5600475 386.601600
   2134   2130   2159     1   110.1100470 384.091200
   2134   2146   2147     1   109.8000471 387.438400
   2134   2146   2148     1   109.8000471 387.438400
   2135   2134   2146     1   110.5600475 386.601600
   2135   2134   2136     1   109.7500473 328.025600
   2136   2134   2146     1   110.5600475 386.601600
   2137   2130   2159     1   110.1100470 384.091200
   2137   2140   2141     1   109.8000471 387.438400
   2137   2140   2142     1   109.8000471 387.438400
   2138   2137   2140     1   110.5600475 386.601600
   2138   2137   2139     1   109.7500473 328.025600
   2139   2137   2140     1   110.5600475 386.601600
   2140   2149   2150     1   109.5600471 388.275200
   2140   2149   2151     1   109.5600471 388.275200
   2141   2140   2149     1   109.8000471 387.438400
   2141   2140   2142     1   107.5800459 329.699200
   2142   2140   2149     1   109.8000471 387.438400
   2143   2155   2156     1   109.5600471 388.275200
   2143   2155   2157     1   109.5600471 388.275200
   2144   2143   2155     1   109.8000471 387.438400
   2144   2143   2145     1   107.5800459 329.699200
   2145   2143   2155     1   109.8000471 387.438400
   2146   2152   2153     1   109.5600471 388.275200
   2146   2152   2154     1   109.5600471 388.275200
   2147   2146   2152     1   109.8000471 387.438400
   2147   2146   2148     1   107.5800459 329.699200
   2148   2146   2152     1   109.8000471 387.438400
   2150   2149   2158     1   109.7800468 425.094400
   2150   2149   2151     1   108.4600466 328.025600
   2151   2149   2158     1   109.7800468 425.094400
   2153   2152   4044     1   109.7800468 425.094400
   2153   2152   2154     1   108.4600466 328.025600
   2154   2152   4044     1   109.7800468 425.094400
   2156   2155   4058     1   109.7800468 425.094400
   2156   2155   2157     1   108.4600466 328.025600
   2157   2155   4058     1   109.7800468 425.094400
   2160   2161   2162     1   108.0100461 406.684800
   2160   2161   2163     1   108.0100461 406.684800
   2160   2164   2165     1   108.0100461 406.684800
   2160   2164   2166     1   108.0100461 406.684800
   2160   2167   2168     1   108.0100461 406.684800
   2160   2167   2169     1   108.0100461 406.684800
   2161   2160   2189     1   110.1100470 384.091200
   2161   2173   2174     1   109.8000471 387.438400
   2161   2173   2175     1   109.8000471 387.438400
   2162   2161   2173     1   110.5600475 386.601600
   2162   2161   2163     1   109.7500473 328.025600
   2163   2161   2173     1   110.5600475 386.601600
   2164   2160   2189     1   110.1100470 384.091200
   2164   2176   2177     1   109.8000471 387.438400
   2164   2176   2178     1   109.8000471 387.438400
   2165   2164   2176     1   110.5600475 386.601600
   2165   2164   2166     1   109.7500473 328.025600
   2166   2164   2176     1   110.5600475 386.601600
   2167   2160   2189     1   110.1100470 384.091200
   2167   2170   2171     1   109.8000471 387.438400
   2167   2170   2172     1   109.8000471 387.438400
   2168   2167   2170     1   110.5600475 386.601600
   2168   2167   2169     1   109.7500473 328.025600
   2169   2167   2170     1   110.5600475 386.601600
   2170   2179   2180     1   109.5600471 388.275200
   2170   2179   2181     1   109.5600471 388.275200
   2171   2170   2179     1   109.8000471 387.438400
   2171   2170   2172     1   107.5800459 329.699200
   2172   2170   2179     1   109.8000471 387.438400
   2173   2185   2186     1   109.5600471 388.275200
   2173   2185   2187     1   109.5600471 388.275200
   2174   2173   2185     1   109.8000471 387.438400
   2174   2173   2175     1   107.5800459 329.699200
   2175   2173   2185     1   109.8000471 387.438400
   2176   2182   2183     1   109.5600471 388.275200
   2176   2182   2184     1   109.5600471 388.275200
   2177   2176   2182     1   109.8000471 387.438400
   2177   2176   2178     1   107.5800459 329.699200
   2178   2176   2182     1   109.8000471 387.438400
   2180   2179   2188     1   109.7800468 425.094400
   2180   2179   2181     1   108.4600466 328.025600
   2181   2179   2188     1   109.7800468 425.094400
   2183   2182   4072     1   109.7800468 425.094400
   2183   2182   2184     1   108.4600466 328.025600
   2184   2182   4072     1   109.7800468 425.094400
   2186   2185   4086     1   109.7800468 425.094400
   2186   2185   2187     1   108.4600466 328.025600
   2187   2185   4086     1   109.7800468 425.094400
   2190   2191   2192     1   108.0100461 406.684800
   2190   2191   2193     1   108.0100461 406.684800
   2190   2194   2195     1   108.0100461 406.684800
   2190   2194   2196     1   108.0100461 406.684800
   2190   2197   2198     1   108.0100461 406.684800
   2190   2197   2199     1   108.0100461 406.684800
   2191   2190   2219     1   110.1100470 384.091200
   2191   2203   2204     1   109.8000471 387.438400
   2191   2203   2205     1   109.8000471 387.438400
   2192   2191   2203     1   110.5600475 386.601600
   2192   2191   2193     1   109.7500473 328.025600
   2193   2191   2203     1   110.5600475 386.601600
   2194   2190   2219     1   110.1100470 384.091200
   2194   2206   2207     1   109.8000471 387.438400
   2194   2206   2208     1   109.8000471 387.438400
   2195   2194   2206     1   110.5600475 386.601600
   2195   2194   2196     1   109.7500473 328.025600
   2196   2194   2206     1   110.5600475 386.601600
   2197   2190   2219     1   110.1100470 384.091200
   2197   2200   2201     1   109.8000471 387.438400
   2197   2200   2202     1   109.8000471 387.438400
   2198   2197   2200     1   110.5600475 386.601600
   2198   2197   2199     1   109.7500473 328.025600
   2199   2197   2200     1   110.5600475 386.601600
   2200   2209   2210     1   109.5600471 388.275200
   2200   2209   2211     1   109.5600471 388.275200
   2201   2200   2209     1   109.8000471 387.438400
   2201   2200   2202     1   107.5800459 329.699200
   2202   2200   2209     1   109.8000471 387.438400
   2203   2215   2216     1   109.5600471 388.275200
   2203   2215   2217     1   109.5600471 388.275200
   2204   2203   2215     1   109.8000471 387.438400
   2204   2203   2205     1   107.5800459 329.699200
   2205   2203   2215     1   109.8000471 387.438400
   2206   2212   2213     1   109.5600471 388.275200
   2206   2212   2214     1   109.5600471 388.275200
   2207   2206   2212     1   109.8000471 387.438400
   2207   2206   2208     1   107.5800459 329.699200
   2208   2206   2212     1   109.8000471 387.438400
   2210   2209   2218     1   109.7800468 425.094400
   2210   2209   2211     1   108.4600466 328.025600
   2211   2209   2218     1   109.7800468 425.094400
   2213   2212   4100     1   109.7800468 425.094400
   2213   2212   2214     1   108.4600466 328.025600
   2214   2212   4100     1   109.7800468 425.094400
   2216   2215   4114     1   109.7800468 425.094400
   2216   2215   2217     1   108.4600466 328.025600
   2217   2215   4114     1   109.7800468 425.094400
   2220   2221   2222     1   108.0100461 406.684800
   2220   2221   2223     1   108.0100461 406.684800
   2220   2224   2225     1   108.0100461 406.684800
   2220   2224   2226     1   108.0100461 406.684800
   2220   2227   2228     1   108.0100461 406.684800
   2220   2227   2229     1   108.0100461 406.684800
   2221   2220   2249     1   110.1100470 384.091200
   2221   2233   2234     1   109.8000471 387.438400
   2221   2233   2235     1   109.8000471 387.438400
   2222   2221   2233     1   110.5600475 386.601600
   2222   2221   2223     1   109.7500473 328.025600
   2223   2221   2233     1   110.5600475 386.601600
   2224   2220   2249     1   110.1100470 384.091200
   2224   2236   2237     1   109.8000471 387.438400
   2224   2236   2238     1   109.8000471 387.438400
   2225   2224   2236     1   110.5600475 386.601600
   2225   2224   2226     1   109.7500473 328.025600
   2226   2224   2236     1   110.5600475 386.601600
   2227   2220   2249     1   110.1100470 384.091200
   2227   2230   2231     1   109.8000471 387.438400
   2227   2230   2232     1   109.8000471 387.438400
   2228   2227   2230     1   110.5600475 386.601600
   2228   2227   2229     1   109.7500473 328.025600
   2229   2227   2230     1   110.5600475 386.601600
   2230   2239   2240     1   109.5600471 388.275200
   2230   2239   2241     1   109.5600471 388.275200
   2231   2230   2239     1   109.8000471 387.438400
   2231   2230   2232     1   107.5800459 329.699200
   2232   2230   2239     1   109.8000471 387.438400
   2233   2245   2246     1   109.5600471 388.275200
   2233   2245   2247     1   109.5600471 388.275200
   2234   2233   2245     1   109.8000471 387.438400
   2234   2233   2235     1   107.5800459 329.699200
   2235   2233   2245     1   109.8000471 387.438400
   2236   2242   2243     1   109.5600471 388.275200
   2236   2242   2244     1   109.5600471 388.275200
   2237   2236   2242     1   109.8000471 387.438400
   2237   2236   2238     1   107.5800459 329.699200
   2238   2236   2242     1   109.8000471 387.438400
   2240   2239   2248     1   109.7800468 425.094400
   2240   2239   2241     1   108.4600466 328.025600
   2241   2239   2248     1   109.7800468 425.094400
   2243   2242   4128     1   109.7800468 425.094400
   2243   2242   2244     1   108.4600466 328.025600
   2244   2242   4128     1   109.7800468 425.094400
   2246   2245   4142     1   109.7800468 425.094400
   2246   2245   2247     1   108.4600466 328.025600
   2247   2245   4142     1   109.7800468 425.094400
   2250   2251   2252     1   108.0100461 406.684800
   2250   2251   2253     1   108.0100461 406.684800
   2250   2254   2255     1   108.0100461 406.684800
   2250   2254   2256     1   108.0100461 406.684800
   2250   2257   2258     1   108.0100461 406.684800
   2250   2257   2259     1   108.0100461 406.684800
   2251   2250   2279     1   110.1100470 384.091200
   2251   2263   2264     1   109.8000471 387.438400
   2251   2263   2265     1   109.8000471 387.438400
   2252   2251   2263     1   110.5600475 386.601600
   2252   2251   2253     1   109.7500473 328.025600
   2253   2251   2263     1   110.5600475 386.601600
   2254   2250   2279     1   110.1100470 384.091200
   2254   2266   2267     1   109.8000471 387.438400
   2254   2266   2268     1   109.8000471 387.438400
   2255   2254   2266     1   110.5600475 386.601600
   2255   2254   2256     1   109.7500473 328.025600
   2256   2254   2266     1   110.5600475 386.601600
   2257   2250   2279     1   110.1100470 384.091200
   2257   2260   2261     1   109.8000471 387.438400
   2257   2260   2262     1   109.8000471 387.438400
   2258   2257   2260     1   110.5600475 386.601600
   2258   2257   2259     1   109.7500473 328.025600
   2259   2257   2260     1   110.5600475 386.601600
   2260   2269   2270     1   109.5600471 388.275200
   2260   2269   2271     1   109.5600471 388.275200
   2261   2260   2269     1   109.8000471 387.438400
   2261   2260   2262     1   107.5800459 329.699200
   2262   2260   2269     1   109.8000471 387.438400
   2263   2275   2276     1   109.5600471 388.275200
   2263   2275   2277     1   109.5600471 388.275200
   2264   2263   2275     1   109.8000471 387.438400
   2264   2263   2265     1   107.5800459 329.699200
   2265   2263   2275     1   109.8000471 387.438400
   2266   2272   2273     1   109.5600471 388.275200
   2266   2272   2274     1   109.5600471 388.275200
   2267   2266   2272     1   109.8000471 387.438400
   2267   2266   2268     1   107.5800459 329.699200
   2268   2266   2272     1   109.8000471 387.438400
   2270   2269   2278     1   109.7800468 425.094400
   2270   2269   2271     1   108.4600466 328.025600
   2271   2269   2278     1   109.7800468 425.094400
   2273   2272   4156     1   109.7800468 425.094400
   2273   2272   2274     1   108.4600466 328.025600
   2274   2272   4156     1   109.7800468 425.094400
   2276   2275   4170     1   109.7800468 425.094400
   2276   2275   2277     1   108.4600466 328.025600
   2277   2275   4170     1   109.7800468 425.094400
   2280   2281   2282     1   108.0100461 406.684800
   2280   2281   2283     1   108.0100461 406.684800
   2280   2284   2285     1   108.0100461 406.684800
   2280   2284   2286     1   108.0100461 406.684800
   2280   2287   2288     1   108.0100461 406.684800
   2280   2287   2289     1   108.0100461 406.684800
   2281   2280   2309     1   110.1100470 384.091200
   2281   2293   2294     1   109.8000471 387.438400
   2281   2293   2295     1   109.8000471 387.438400
   2282   2281   2293     1   110.5600475 386.601600
   2282   2281   2283     1   109.7500473 328.025600
   2283   2281   2293     1   110.5600475 386.601600
   2284   2280   2309     1   110.1100470 384.091200
   2284   2296   2297     1   109.8000471 387.438400
   2284   2296   2298     1   109.8000471 387.438400
   2285   2284   2296     1   110.5600475 386.601600
   2285   2284   2286     1   109.7500473 328.025600
   2286   2284   2296     1   110.5600475 386.601600
   2287   2280   2309     1   110.1100470 384.091200
   2287   2290   2291     1   109.8000471 387.438400
   2287   2290   2292     1   109.8000471 387.438400
   2288   2287   2290     1   110.5600475 386.601600
   2288   2287   2289     1   109.7500473 328.025600
   2289   2287   2290     1   110.5600475 386.601600
   2290   2299   2300     1   109.5600471 388.275200
   2290   2299   2301     1   109.5600471 388.275200
   2291   2290   2299     1   109.8000471 387.438400
   2291   2290   2292     1   107.5800459 329.699200
   2292   2290   2299     1   109.8000471 387.438400
   2293   2305   2306     1   109.5600471 388.275200
   2293   2305   2307     1   109.5600471 388.275200
   2294   2293   2305     1   109.8000471 387.438400
   2294   2293   2295     1   107.5800459 329.699200
   2295   2293   2305     1   109.8000471 387.438400
   2296   2302   2303     1   109.5600471 388.275200
   2296   2302   2304     1   109.5600471 388.275200
   2297   2296   2302     1   109.8000471 387.438400
   2297   2296   2298     1   107.5800459 329.699200
   2298   2296   2302     1   109.8000471 387.438400
   2300   2299   2308     1   109.7800468 425.094400
   2300   2299   2301     1   108.4600466 328.025600
   2301   2299   2308     1   109.7800468 425.094400
   2303   2302   4184     1   109.7800468 425.094400
   2303   2302   2304     1   108.4600466 328.025600
   2304   2302   4184     1   109.7800468 425.094400
   2306   2305   4198     1   109.7800468 425.094400
   2306   2305   2307     1   108.4600466 328.025600
   2307   2305   4198     1   109.7800468 425.094400
   2310   2311   2312     1   108.0100461 406.684800
   2310   2311   2313     1   108.0100461 406.684800
   2310   2314   2315     1   108.0100461 406.684800
   2310   2314   2316     1   108.0100461 406.684800
   2310   2317   2318     1   108.0100461 406.684800
   2310   2317   2319     1   108.0100461 406.684800
   2311   2310   2339     1   110.1100470 384.091200
   2311   2323   2324     1   109.8000471 387.438400
   2311   2323   2325     1   109.8000471 387.438400
   2312   2311   2323     1   110.5600475 386.601600
   2312   2311   2313     1   109.7500473 328.025600
   2313   2311   2323     1   110.5600475 386.601600
   2314   2310   2339     1   110.1100470 384.091200
   2314   2326   2327     1   109.8000471 387.438400
   2314   2326   2328     1   109.8000471 387.438400
   2315   2314   2326     1   110.5600475 386.601600
   2315   2314   2316     1   109.7500473 328.025600
   2316   2314   2326     1   110.5600475 386.601600
   2317   2310   2339     1   110.1100470 384.091200
   2317   2320   2321     1   109.8000471 387.438400
   2317   2320   2322     1   109.8000471 387.438400
   2318   2317   2320     1   110.5600475 386.601600
   2318   2317   2319     1   109.7500473 328.025600
   2319   2317   2320     1   110.5600475 386.601600
   2320   2329   2330     1   109.5600471 388.275200
   2320   2329   2331     1   109.5600471 388.275200
   2321   2320   2329     1   109.8000471 387.438400
   2321   2320   2322     1   107.5800459 329.699200
   2322   2320   2329     1   109.8000471 387.438400
   2323   2335   2336     1   109.5600471 388.275200
   2323   2335   2337     1   109.5600471 388.275200
   2324   2323   2335     1   109.8000471 387.438400
   2324   2323   2325     1   107.5800459 329.699200
   2325   2323   2335     1   109.8000471 387.438400
   2326   2332   2333     1   109.5600471 388.275200
   2326   2332   2334     1   109.5600471 388.275200
   2327   2326   2332     1   109.8000471 387.438400
   2327   2326   2328     1   107.5800459 329.699200
   2328   2326   2332     1   109.8000471 387.438400
   2330   2329   2338     1   109.7800468 425.094400
   2330   2329   2331     1   108.4600466 328.025600
   2331   2329   2338     1   109.7800468 425.094400
   2333   2332   4212     1   109.7800468 425.094400
   2333   2332   2334     1   108.4600466 328.025600
   2334   2332   4212     1   109.7800468 425.094400
   2336   2335   4226     1   109.7800468 425.094400
   2336   2335   2337     1   108.4600466 328.025600
   2337   2335   4226     1   109.7800468 425.094400
   2340   2341   2342     1   108.0100461 406.684800
   2340   2341   2343     1   108.0100461 406.684800
   2340   2344   2345     1   108.0100461 406.684800
   2340   2344   2346     1   108.0100461 406.684800
   2340   2347   2348     1   108.0100461 406.684800
   2340   2347   2349     1   108.0100461 406.684800
   2341   2340   2369     1   110.1100470 384.091200
   2341   2353   2354     1   109.8000471 387.438400
   2341   2353   2355     1   109.8000471 387.438400
   2342   2341   2353     1   110.5600475 386.601600
   2342   2341   2343     1   109.7500473 328.025600
   2343   2341   2353     1   110.5600475 386.601600
   2344   2340   2369     1   110.1100470 384.091200
   2344   2356   2357     1   109.8000471 387.438400
   2344   2356   2358     1   109.8000471 387.438400
   2345   2344   2356     1   110.5600475 386.601600
   2345   2344   2346     1   109.7500473 328.025600
   2346   2344   2356     1   110.5600475 386.601600
   2347   2340   2369     1   110.1100470 384.091200
   2347   2350   2351     1   109.8000471 387.438400
   2347   2350   2352     1   109.8000471 387.438400
   2348   2347   2350     1   110.5600475 386.601600
   2348   2347   2349     1   109.7500473 328.025600
   2349   2347   2350     1   110.5600475 386.601600
   2350   2359   2360     1   109.5600471 388.275200
   2350   2359   2361     1   109.5600471 388.275200
   2351   2350   2359     1   109.8000471 387.438400
   2351   2350   2352     1   107.5800459 329.699200
   2352   2350   2359     1   109.8000471 387.438400
   2353   2365   2366     1   109.5600471 388.275200
   2353   2365   2367     1   109.5600471 388.275200
   2354   2353   2365     1   109.8000471 387.438400
   2354   2353   2355     1   107.5800459 329.699200
   2355   2353   2365     1   109.8000471 387.438400
   2356   2362   2363     1   109.5600471 388.275200
   2356   2362   2364     1   109.5600471 388.275200
   2357   2356   2362     1   109.8000471 387.438400
   2357   2356   2358     1   107.5800459 329.699200
   2358   2356   2362     1   109.8000471 387.438400
   2360   2359   2368     1   109.7800468 425.094400
   2360   2359   2361     1   108.4600466 328.025600
   2361   2359   2368     1   109.7800468 425.094400
   2363   2362   4240     1   109.7800468 425.094400
   2363   2362   2364     1   108.4600466 328.025600
   2364   2362   4240     1   109.7800468 425.094400
   2366   2365   4254     1   109.7800468 425.094400
   2366   2365   2367     1   108.4600466 328.025600
   2367   2365   4254     1   109.7800468 425.094400
   2370   2371   2372     1   108.0100461 406.684800
   2370   2371   2373     1   108.0100461 406.684800
   2370   2374   2375     1   108.0100461 406.684800
   2370   2374   2376     1   108.0100461 406.684800
   2370   2377   2378     1   108.0100461 406.684800
   2370   2377   2379     1   108.0100461 406.684800
   2371   2370   2399     1   110.1100470 384.091200
   2371   2383   2384     1   109.8000471 387.438400
   2371   2383   2385     1   109.8000471 387.438400
   2372   2371   2383     1   110.5600475 386.601600
   2372   2371   2373     1   109.7500473 328.025600
   2373   2371   2383     1   110.5600475 386.601600
   2374   2370   2399     1   110.1100470 384.091200
   2374   2386   2387     1   109.8000471 387.438400
   2374   2386   2388     1   109.8000471 387.438400
   2375   2374   2386     1   110.5600475 386.601600
   2375   2374   2376     1   109.7500473 328.025600
   2376   2374   2386     1   110.5600475 386.601600
   2377   2370   2399     1   110.1100470 384.091200
   2377   2380   2381     1   109.8000471 387.438400
   2377   2380   2382     1   109.8000471 387.438400
   2378   2377   2380     1   110.5600475 386.601600
   2378   2377   2379     1   109.7500473 328.025600
   2379   2377   2380     1   110.5600475 386.601600
   2380   2389   2390     1   109.5600471 388.275200
   2380   2389   2391     1   109.5600471 388.275200
   2381   2380   2389     1   109.8000471 387.438400
   2381   2380   2382     1   107.5800459 329.699200
   2382   2380   2389     1   109.8000471 387.438400
   2383   2395   2396     1   109.5600471 388.275200
   2383   2395   2397     1   109.5600471 388.275200
   2384   2383   2395     1   109.8000471 387.438400
   2384   2383   2385     1   107.5800459 329.699200
   2385   2383   2395     1   109.8000471 387.438400
   2386   2392   2393     1   109.5600471 388.275200
   2386   2392   2394     1   109.5600471 388.275200
   2387   2386   2392     1   109.8000471 387.438400
   2387   2386   2388     1   107.5800459 329.699200
   2388   2386   2392     1   109.8000471 387.438400
   2390   2389   2398     1   109.7800468 425.094400
   2390   2389   2391     1   108.4600466 328.025600
   2391   2389   2398     1   109.7800468 425.094400
   2393   2392   4268     1   109.7800468 425.094400
   2393   2392   2394     1   108.4600466 328.025600
   2394   2392   4268     1   109.7800468 425.094400
   2396   2395   4282     1   109.7800468 425.094400
   2396   2395   2397     1   108.4600466 328.025600
   2397   2395   4282     1   109.7800468 425.094400
   2400   2401   2402     1   108.0100461 406.684800
   2400   2401   2403     1   108.0100461 406.684800
   2400   2404   2405     1   108.0100461 406.684800
   2400   2404   2406     1   108.0100461 406.684800
   2400   2407   2408     1   108.0100461 406.684800
   2400   2407   2409     1   108.0100461 406.684800
   2401   2400   2429     1   110.1100470 384.091200
   2401   2413   2414     1   109.8000471 387.438400
   2401   2413   2415     1   109.8000471 387.438400
   2402   2401   2413     1   110.5600475 386.601600
   2402   2401   2403     1   109.7500473 328.025600
   2403   2401   2413     1   110.5600475 386.601600
   2404   2400   2429     1   110.1100470 384.091200
   2404   2416   2417     1   109.8000471 387.438400
   2404   2416   2418     1   109.8000471 387.438400
   2405   2404   2416     1   110.5600475 386.601600
   2405   2404   2406     1   109.7500473 328.025600
   2406   2404   2416     1   110.5600475 386.601600
   2407   2400   2429     1   110.1100470 384.091200
   2407   2410   2411     1   109.8000471 387.438400
   2407   2410   2412     1   109.8000471 387.438400
   2408   2407   2410     1   110.5600475 386.601600
   2408   2407   2409     1   109.7500473 328.025600
   2409   2407   2410     1   110.5600475 386.601600
   2410   2419   2420     1   109.5600471 388.275200
   2410   2419   2421     1   109.5600471 388.275200
   2411   2410   2419     1   109.8000471 387.438400
   2411   2410   2412     1   107.5800459 329.699200
   2412   2410   2419     1   109.8000471 387.438400
   2413   2425   2426     1   109.5600471 388.275200
   2413   2425   2427     1   109.5600471 388.275200
   2414   2413   2425     1   109.8000471 387.438400
   2414   2413   2415     1   107.5800459 329.699200
   2415   2413   2425     1   109.8000471 387.438400
   2416   2422   2423     1   109.5600471 388.275200
   2416   2422   2424     1   109.5600471 388.275200
   2417   2416   2422     1   109.8000471 387.438400
   2417   2416   2418     1   107.5800459 329.699200
   2418   2416   2422     1   109.8000471 387.438400
   2420   2419   2428     1   109.7800468 425.094400
   2420   2419   2421     1   108.4600466 328.025600
   2421   2419   2428     1   109.7800468 425.094400
   2423   2422   4296     1   109.7800468 425.094400
   2423   2422   2424     1   108.4600466 328.025600
   2424   2422   4296     1   109.7800468 425.094400
   2426   2425   4310     1   109.7800468 425.094400
   2426   2425   2427     1   108.4600466 328.025600
   2427   2425   4310     1   109.7800468 425.094400
   2430   2431   2432     1   108.0100461 406.684800
   2430   2431   2433     1   108.0100461 406.684800
   2430   2434   2435     1   108.0100461 406.684800
   2430   2434   2436     1   108.0100461 406.684800
   2430   2437   2438     1   108.0100461 406.684800
   2430   2437   2439     1   108.0100461 406.684800
   2431   2430   2459     1   110.1100470 384.091200
   2431   2443   2444     1   109.8000471 387.438400
   2431   2443   2445     1   109.8000471 387.438400
   2432   2431   2443     1   110.5600475 386.601600
   2432   2431   2433     1   109.7500473 328.025600
   2433   2431   2443     1   110.5600475 386.601600
   2434   2430   2459     1   110.1100470 384.091200
   2434   2446   2447     1   109.8000471 387.438400
   2434   2446   2448     1   109.8000471 387.438400
   2435   2434   2446     1   110.5600475 386.601600
   2435   2434   2436     1   109.7500473 328.025600
   2436   2434   2446     1   110.5600475 386.601600
   2437   2430   2459     1   110.1100470 384.091200
   2437   2440   2441     1   109.8000471 387.438400
   2437   2440   2442     1   109.8000471 387.438400
   2438   2437   2440     1   110.5600475 386.601600
   2438   2437   2439     1   109.7500473 328.025600
   2439   2437   2440     1   110.5600475 386.601600
   2440   2449   2450     1   109.5600471 388.275200
   2440   2449   2451     1   109.5600471 388.275200
   2441   2440   2449     1   109.8000471 387.438400
   2441   2440   2442     1   107.5800459 329.699200
   2442   2440   2449     1   109.8000471 387.438400
   2443   2455   2456     1   109.5600471 388.275200
   2443   2455   2457     1   109.5600471 388.275200
   2444   2443   2455     1   109.8000471 387.438400
   2444   2443   2445     1   107.5800459 329.699200
   2445   2443   2455     1   109.8000471 387.438400
   2446   2452   2453     1   109.5600471 388.275200
   2446   2452   2454     1   109.5600471 388.275200
   2447   2446   2452     1   109.8000471 387.438400
   2447   2446   2448     1   107.5800459 329.699200
   2448   2446   2452     1   109.8000471 387.438400
   2450   2449   2458     1   109.7800468 425.094400
   2450   2449   2451     1   108.4600466 328.025600
   2451   2449   2458     1   109.7800468 425.094400
   2453   2452   4324     1   109.7800468 425.094400
   2453   2452   2454     1   108.4600466 328.025600
   2454   2452   4324     1   109.7800468 425.094400
   2456   2455   4338     1   109.7800468 425.094400
   2456   2455   2457     1   108.4600466 328.025600
   2457   2455   4338     1   109.7800468 425.094400
   2460   2461   2462     1   108.0100461 406.684800
   2460   2461   2463     1   108.0100461 406.684800
   2460   2464   2465     1   108.0100461 406.684800
   2460   2464   2466     1   108.0100461 406.684800
   2460   2467   2468     1   108.0100461 406.684800
   2460   2467   2469     1   108.0100461 406.684800
   2461   2460   2489     1   110.1100470 384.091200
   2461   2473   2474     1   109.8000471 387.438400
   2461   2473   2475     1   109.8000471 387.438400
   2462   2461   2473     1   110.5600475 386.601600
   2462   2461   2463     1   109.7500473 328.025600
   2463   2461   2473     1   110.5600475 386.601600
   2464   2460   2489     1   110.1100470 384.091200
   2464   2476   2477     1   109.8000471 387.438400
   2464   2476   2478     1   109.8000471 387.438400
   2465   2464   2476     1   110.5600475 386.601600
   2465   2464   2466     1   109.7500473 328.025600
   2466   2464   2476     1   110.5600475 386.601600
   2467   2460   2489     1   110.1100470 384.091200
   2467   2470   2471     1   109.8000471 387.438400
   2467   2470   2472     1   109.8000471 387.438400
   2468   2467   2470     1   110.5600475 386.601600
   2468   2467   2469     1   109.7500473 328.025600
   2469   2467   2470     1   110.5600475 386.601600
   2470   2479   2480     1   109.5600471 388.275200
   2470   2479   2481     1   109.5600471 388.275200
   2471   2470   2479     1   109.8000471 387.438400
   2471   2470   2472     1   107.5800459 329.699200
   2472   2470   2479     1   109.8000471 387.438400
   2473   2485   2486     1   109.5600471 388.275200
   2473   2485   2487     1   109.5600471 388.275200
   2474   2473   2485     1   109.8000471 387.438400
   2474   2473   2475     1   107.5800459 329.699200
   2475   2473   2485     1   109.8000471 387.438400
   2476   2482   2483     1   109.5600471 388.275200
   2476   2482   2484     1   109.5600471 388.275200
   2477   2476   2482     1   109.8000471 387.438400
   2477   2476   2478     1   107.5800459 329.699200
   2478   2476   2482     1   109.8000471 387.438400
   2480   2479   2488     1   109.7800468 425.094400
   2480   2479   2481     1   108.4600466 328.025600
   2481   2479   2488     1   109.7800468 425.094400
   2483   2482   4352     1   109.7800468 425.094400
   2483   2482   2484     1   108.4600466 328.025600
   2484   2482   4352     1   109.7800468 425.094400
   2486   2485   4366     1   109.7800468 425.094400
   2486   2485   2487     1   108.4600466 328.025600
   2487   2485   4366     1   109.7800468 425.094400
   2490   2491   2492     1   108.0100461 406.684800
   2490   2491   2493     1   108.0100461 406.684800
   2490   2494   2495     1   108.0100461 406.684800
   2490   2494   2496     1   108.0100461 406.684800
   2490   2497   2498     1   108.0100461 406.684800
   2490   2497   2499     1   108.0100461 406.684800
   2491   2490   2519     1   110.1100470 384.091200
   2491   2503   2504     1   109.8000471 387.438400
   2491   2503   2505     1   109.8000471 387.438400
   2492   2491   2503     1   110.5600475 386.601600
   2492   2491   2493     1   109.7500473 328.025600
   2493   2491   2503     1   110.5600475 386.601600
   2494   2490   2519     1   110.1100470 384.091200
   2494   2506   2507     1   109.8000471 387.438400
   2494   2506   2508     1   109.8000471 387.438400
   2495   2494   2506     1   110.5600475 386.601600
   2495   2494   2496     1   109.7500473 328.025600
   2496   2494   2506     1   110.5600475 386.601600
   2497   2490   2519     1   110.1100470 384.091200
   2497   2500   2501     1   109.8000471 387.438400
   2497   2500   2502     1   109.8000471 387.438400
   2498   2497   2500     1   110.5600475 386.601600
   2498   2497   2499     1   109.7500473 328.025600
   2499   2497   2500     1   110.5600475 386.601600
   2500   2509   2510     1   109.5600471 388.275200
   2500   2509   2511     1   109.5600471 388.275200
   2501   2500   2509     1   109.8000471 387.438400
   2501   2500   2502     1   107.5800459 329.699200
   2502   2500   2509     1   109.8000471 387.438400
   2503   2515   2516     1   109.5600471 388.275200
   2503   2515   2517     1   109.5600471 388.275200
   2504   2503   2515     1   109.8000471 387.438400
   2504   2503   2505     1   107.5800459 329.699200
   2505   2503   2515     1   109.8000471 387.438400
   2506   2512   2513     1   109.5600471 388.275200
   2506   2512   2514     1   109.5600471 388.275200
   2507   2506   2512     1   109.8000471 387.438400
   2507   2506   2508     1   107.5800459 329.699200
   2508   2506   2512     1   109.8000471 387.438400
   2510   2509   2518     1   109.7800468 425.094400
   2510   2509   2511     1   108.4600466 328.025600
   2511   2509   2518     1   109.7800468 425.094400
   2513   2512   4380     1   109.7800468 425.094400
   2513   2512   2514     1   108.4600466 328.025600
   2514   2512   4380     1   109.7800468 425.094400
   2516   2515   4394     1   109.7800468 425.094400
   2516   2515   2517     1   108.4600466 328.025600
   2517   2515   4394     1   109.7800468 425.094400
   2520   2521   2522     1   108.0100461 406.684800
   2520   2521   2523     1   108.0100461 406.684800
   2520   2524   2525     1   108.0100461 406.684800
   2520   2524   2526     1   108.0100461 406.684800
   2520   2527   2528     1   108.0100461 406.684800
   2520   2527   2529     1   108.0100461 406.684800
   2521   2520   2549     1   110.1100470 384.091200
   2521   2533   2534     1   109.8000471 387.438400
   2521   2533   2535     1   109.8000471 387.438400
   2522   2521   2533     1   110.5600475 386.601600
   2522   2521   2523     1   109.7500473 328.025600
   2523   2521   2533     1   110.5600475 386.601600
   2524   2520   2549     1   110.1100470 384.091200
   2524   2536   2537     1   109.8000471 387.438400
   2524   2536   2538     1   109.8000471 387.438400
   2525   2524   2536     1   110.5600475 386.601600
   2525   2524   2526     1   109.7500473 328.025600
   2526   2524   2536     1   110.5600475 386.601600
   2527   2520   2549     1   110.1100470 384.091200
   2527   2530   2531     1   109.8000471 387.438400
   2527   2530   2532     1   109.8000471 387.438400
   2528   2527   2530     1   110.5600475 386.601600
   2528   2527   2529     1   109.7500473 328.025600
   2529   2527   2530     1   110.5600475 386.601600
   2530   2539   2540     1   109.5600471 388.275200
   2530   2539   2541     1   109.5600471 388.275200
   2531   2530   2539     1   109.8000471 387.438400
   2531   2530   2532     1   107.5800459 329.699200
   2532   2530   2539     1   109.8000471 387.438400
   2533   2545   2546     1   109.5600471 388.275200
   2533   2545   2547     1   109.5600471 388.275200
   2534   2533   2545     1   109.8000471 387.438400
   2534   2533   2535     1   107.5800459 329.699200
   2535   2533   2545     1   109.8000471 387.438400
   2536   2542   2543     1   109.5600471 388.275200
   2536   2542   2544     1   109.5600471 388.275200
   2537   2536   2542     1   109.8000471 387.438400
   2537   2536   2538     1   107.5800459 329.699200
   2538   2536   2542     1   109.8000471 387.438400
   2540   2539   2548     1   109.7800468 425.094400
   2540   2539   2541     1   108.4600466 328.025600
   2541   2539   2548     1   109.7800468 425.094400
   2543   2542   4408     1   109.7800468 425.094400
   2543   2542   2544     1   108.4600466 328.025600
   2544   2542   4408     1   109.7800468 425.094400
   2546   2545   4422     1   109.7800468 425.094400
   2546   2545   2547     1   108.4600466 328.025600
   2547   2545   4422     1   109.7800468 425.094400
   2550   2551   2552     1   108.0100461 406.684800
   2550   2551   2553     1   108.0100461 406.684800
   2550   2554   2555     1   108.0100461 406.684800
   2550   2554   2556     1   108.0100461 406.684800
   2550   2557   2558     1   108.0100461 406.684800
   2550   2557   2559     1   108.0100461 406.684800
   2551   2550   2579     1   110.1100470 384.091200
   2551   2563   2564     1   109.8000471 387.438400
   2551   2563   2565     1   109.8000471 387.438400
   2552   2551   2563     1   110.5600475 386.601600
   2552   2551   2553     1   109.7500473 328.025600
   2553   2551   2563     1   110.5600475 386.601600
   2554   2550   2579     1   110.1100470 384.091200
   2554   2566   2567     1   109.8000471 387.438400
   2554   2566   2568     1   109.8000471 387.438400
   2555   2554   2566     1   110.5600475 386.601600
   2555   2554   2556     1   109.7500473 328.025600
   2556   2554   2566     1   110.5600475 386.601600
   2557   2550   2579     1   110.1100470 384.091200
   2557   2560   2561     1   109.8000471 387.438400
   2557   2560   2562     1   109.8000471 387.438400
   2558   2557   2560     1   110.5600475 386.601600
   2558   2557   2559     1   109.7500473 328.025600
   2559   2557   2560     1   110.5600475 386.601600
   2560   2569   2570     1   109.5600471 388.275200
   2560   2569   2571     1   109.5600471 388.275200
   2561   2560   2569     1   109.8000471 387.438400
   2561   2560   2562     1   107.5800459 329.699200
   2562   2560   2569     1   109.8000471 387.438400
   2563   2575   2576     1   109.5600471 388.275200
   2563   2575   2577     1   109.5600471 388.275200
   2564   2563   2575     1   109.8000471 387.438400
   2564   2563   2565     1   107.5800459 329.699200
   2565   2563   2575     1   109.8000471 387.438400
   2566   2572   2573     1   109.5600471 388.275200
   2566   2572   2574     1   109.5600471 388.275200
   2567   2566   2572     1   109.8000471 387.438400
   2567   2566   2568     1   107.5800459 329.699200
   2568   2566   2572     1   109.8000471 387.438400
   2570   2569   2578     1   109.7800468 425.094400
   2570   2569   2571     1   108.4600466 328.025600
   2571   2569   2578     1   109.7800468 425.094400
   2573   2572   4436     1   109.7800468 425.094400
   2573   2572   2574     1   108.4600466 328.025600
   2574   2572   4436     1   109.7800468 425.094400
   2576   2575   4450     1   109.7800468 425.094400
   2576   2575   2577     1   108.4600466 328.025600
   2577   2575   4450     1   109.7800468 425.094400
   2580   2581   2582     1   108.0100461 406.684800
   2580   2581   2583     1   108.0100461 406.684800
   2580   2584   2585     1   108.0100461 406.684800
   2580   2584   2586     1   108.0100461 406.684800
   2580   2587   2588     1   108.0100461 406.684800
   2580   2587   2589     1   108.0100461 406.684800
   2581   2580   2609     1   110.1100470 384.091200
   2581   2593   2594     1   109.8000471 387.438400
   2581   2593   2595     1   109.8000471 387.438400
   2582   2581   2593     1   110.5600475 386.601600
   2582   2581   2583     1   109.7500473 328.025600
   2583   2581   2593     1   110.5600475 386.601600
   2584   2580   2609     1   110.1100470 384.091200
   2584   2596   2597     1   109.8000471 387.438400
   2584   2596   2598     1   109.8000471 387.438400
   2585   2584   2596     1   110.5600475 386.601600
   2585   2584   2586     1   109.7500473 328.025600
   2586   2584   2596     1   110.5600475 386.601600
   2587   2580   2609     1   110.1100470 384.091200
   2587   2590   2591     1   109.8000471 387.438400
   2587   2590   2592     1   109.8000471 387.438400
   2588   2587   2590     1   110.5600475 386.601600
   2588   2587   2589     1   109.7500473 328.025600
   2589   2587   2590     1   110.5600475 386.601600
   2590   2599   2600     1   109.5600471 388.275200
   2590   2599   2601     1   109.5600471 388.275200
   2591   2590   2599     1   109.8000471 387.438400
   2591   2590   2592     1   107.5800459 329.699200
   2592   2590   2599     1   109.8000471 387.438400
   2593   2605   2606     1   109.5600471 388.275200
   2593   2605   2607     1   109.5600471 388.275200
   2594   2593   2605     1   109.8000471 387.438400
   2594   2593   2595     1   107.5800459 329.699200
   2595   2593   2605     1   109.8000471 387.438400
   2596   2602   2603     1   109.5600471 388.275200
   2596   2602   2604     1   109.5600471 388.275200
   2597   2596   2602     1   109.8000471 387.438400
   2597   2596   2598     1   107.5800459 329.699200
   2598   2596   2602     1   109.8000471 387.438400
   2600   2599   2608     1   109.7800468 425.094400
   2600   2599   2601     1   108.4600466 328.025600
   2601   2599   2608     1   109.7800468 425.094400
   2603   2602   4464     1   109.7800468 425.094400
   2603   2602   2604     1   108.4600466 328.025600
   2604   2602   4464     1   109.7800468 425.094400
   2606   2605   4478     1   109.7800468 425.094400
   2606   2605   2607     1   108.4600466 328.025600
   2607   2605   4478     1   109.7800468 425.094400
   2610   2611   2612     1   108.0100461 406.684800
   2610   2611   2613     1   108.0100461 406.684800
   2610   2614   2615     1   108.0100461 406.684800
   2610   2614   2616     1   108.0100461 406.684800
   2610   2617   2618     1   108.0100461 406.684800
   2610   2617   2619     1   108.0100461 406.684800
   2611   2610   2639     1   110.1100470 384.091200
   2611   2623   2624     1   109.8000471 387.438400
   2611   2623   2625     1   109.8000471 387.438400
   2612   2611   2623     1   110.5600475 386.601600
   2612   2611   2613     1   109.7500473 328.025600
   2613   2611   2623     1   110.5600475 386.601600
   2614   2610   2639     1   110.1100470 384.091200
   2614   2626   2627     1   109.8000471 387.438400
   2614   2626   2628     1   109.8000471 387.438400
   2615   2614   2626     1   110.5600475 386.601600
   2615   2614   2616     1   109.7500473 328.025600
   2616   2614   2626     1   110.5600475 386.601600
   2617   2610   2639     1   110.1100470 384.091200
   2617   2620   2621     1   109.8000471 387.438400
   2617   2620   2622     1   109.8000471 387.438400
   2618   2617   2620     1   110.5600475 386.601600
   2618   2617   2619     1   109.7500473 328.025600
   2619   2617   2620     1   110.5600475 386.601600
   2620   2629   2630     1   109.5600471 388.275200
   2620   2629   2631     1   109.5600471 388.275200
   2621   2620   2629     1   109.8000471 387.438400
   2621   2620   2622     1   107.5800459 329.699200
   2622   2620   2629     1   109.8000471 387.438400
   2623   2635   2636     1   109.5600471 388.275200
   2623   2635   2637     1   109.5600471 388.275200
   2624   2623   2635     1   109.8000471 387.438400
   2624   2623   2625     1   107.5800459 329.699200
   2625   2623   2635     1   109.8000471 387.438400
   2626   2632   2633     1   109.5600471 388.275200
   2626   2632   2634     1   109.5600471 388.275200
   2627   2626   2632     1   109.8000471 387.438400
   2627   2626   2628     1   107.5800459 329.699200
   2628   2626   2632     1   109.8000471 387.438400
   2630   2629   2638     1   109.7800468 425.094400
   2630   2629   2631     1   108.4600466 328.025600
   2631   2629   2638     1   109.7800468 425.094400
   2633   2632   4492     1   109.7800468 425.094400
   2633   2632   2634     1   108.4600466 328.025600
   2634   2632   4492     1   109.7800468 425.094400
   2636   2635   4506     1   109.7800468 425.094400
   2636   2635   2637     1   108.4600466 328.025600
   2637   2635   4506     1   109.7800468 425.094400
   2640   2641   2642     1   108.0100461 406.684800
   2640   2641   2643     1   108.0100461 406.684800
   2640   2644   2645     1   108.0100461 406.684800
   2640   2644   2646     1   108.0100461 406.684800
   2640   2647   2648     1   108.0100461 406.684800
   2640   2647   2649     1   108.0100461 406.684800
   2641   2640   2669     1   110.1100470 384.091200
   2641   2653   2654     1   109.8000471 387.438400
   2641   2653   2655     1   109.8000471 387.438400
   2642   2641   2653     1   110.5600475 386.601600
   2642   2641   2643     1   109.7500473 328.025600
   2643   2641   2653     1   110.5600475 386.601600
   2644   2640   2669     1   110.1100470 384.091200
   2644   2656   2657     1   109.8000471 387.438400
   2644   2656   2658     1   109.8000471 387.438400
   2645   2644   2656     1   110.5600475 386.601600
   2645   2644   2646     1   109.7500473 328.025600
   2646   2644   2656     1   110.5600475 386.601600
   2647   2640   2669     1   110.1100470 384.091200
   2647   2650   2651     1   109.8000471 387.438400
   2647   2650   2652     1   109.8000471 387.438400
   2648   2647   2650     1   110.5600475 386.601600
   2648   2647   2649     1   109.7500473 328.025600
   2649   2647   2650     1   110.5600475 386.601600
   2650   2659   2660     1   109.5600471 388.275200
   2650   2659   2661     1   109.5600471 388.275200
   2651   2650   2659     1   109.8000471 387.438400
   2651   2650   2652     1   107.5800459 329.699200
   2652   2650   2659     1   109.8000471 387.438400
   2653   2665   2666     1   109.5600471 388.275200
   2653   2665   2667     1   109.5600471 388.275200
   2654   2653   2665     1   109.8000471 387.438400
   2654   2653   2655     1   107.5800459 329.699200
   2655   2653   2665     1   109.8000471 387.438400
   2656   2662   2663     1   109.5600471 388.275200
   2656   2662   2664     1   109.5600471 388.275200
   2657   2656   2662     1   109.8000471 387.438400
   2657   2656   2658     1   107.5800459 329.699200
   2658   2656   2662     1   109.8000471 387.438400
   2660   2659   2668     1   109.7800468 425.094400
   2660   2659   2661     1   108.4600466 328.025600
   2661   2659   2668     1   109.7800468 425.094400
   2663   2662   4520     1   109.7800468 425.094400
   2663   2662   2664     1   108.4600466 328.025600
   2664   2662   4520     1   109.7800468 425.094400
   2666   2665   4534     1   109.7800468 425.094400
   2666   2665   2667     1   108.4600466 328.025600
   2667   2665   4534     1   109.7800468 425.094400
   2670   2671   2672     1   108.0100461 406.684800
   2670   2671   2673     1   108.0100461 406.684800
   2670   2674   2675     1   108.0100461 406.684800
   2670   2674   2676     1   108.0100461 406.684800
   2670   2677   2678     1   108.0100461 406.684800
   2670   2677   2679     1   108.0100461 406.684800
   2671   2670   2699     1   110.1100470 384.091200
   2671   2683   2684     1   109.8000471 387.438400
   2671   2683   2685     1   109.8000471 387.438400
   2672   2671   2683     1   110.5600475 386.601600
   2672   2671   2673     1   109.7500473 328.025600
   2673   2671   2683     1   110.5600475 386.601600
   2674   2670   2699     1   110.1100470 384.091200
   2674   2686   2687     1   109.8000471 387.438400
   2674   2686   2688     1   109.8000471 387.438400
   2675   2674   2686     1   110.5600475 386.601600
   2675   2674   2676     1   109.7500473 328.025600
   2676   2674   2686     1   110.5600475 386.601600
   2677   2670   2699     1   110.1100470 384.091200
   2677   2680   2681     1   109.8000471 387.438400
   2677   2680   2682     1   109.8000471 387.438400
   2678   2677   2680     1   110.5600475 386.601600
   2678   2677   2679     1   109.7500473 328.025600
   2679   2677   2680     1   110.5600475 386.601600
   2680   2689   2690     1   109.5600471 388.275200
   2680   2689   2691     1   109.5600471 388.275200
   2681   2680   2689     1   109.8000471 387.438400
   2681   2680   2682     1   107.5800459 329.699200
   2682   2680   2689     1   109.8000471 387.438400
   2683   2695   2696     1   109.5600471 388.275200
   2683   2695   2697     1   109.5600471 388.275200
   2684   2683   2695     1   109.8000471 387.438400
   2684   2683   2685     1   107.5800459 329.699200
   2685   2683   2695     1   109.8000471 387.438400
   2686   2692   2693     1   109.5600471 388.275200
   2686   2692   2694     1   109.5600471 388.275200
   2687   2686   2692     1   109.8000471 387.438400
   2687   2686   2688     1   107.5800459 329.699200
   2688   2686   2692     1   109.8000471 387.438400
   2690   2689   2698     1   109.7800468 425.094400
   2690   2689   2691     1   108.4600466 328.025600
   2691   2689   2698     1   109.7800468 425.094400
   2693   2692   4548     1   109.7800468 425.094400
   2693   2692   2694     1   108.4600466 328.025600
   2694   2692   4548     1   109.7800468 425.094400
   2696   2695   4562     1   109.7800468 425.094400
   2696   2695   2697     1   108.4600466 328.025600
   2697   2695   4562     1   109.7800468 425.094400
   2700   2701   2702     1   108.0100461 406.684800
   2700   2701   2703     1   108.0100461 406.684800
   2700   2704   2705     1   108.0100461 406.684800
   2700   2704   2706     1   108.0100461 406.684800
   2700   2707   2708     1   108.0100461 406.684800
   2700   2707   2709     1   108.0100461 406.684800
   2701   2700   2729     1   110.1100470 384.091200
   2701   2713   2714     1   109.8000471 387.438400
   2701   2713   2715     1   109.8000471 387.438400
   2702   2701   2713     1   110.5600475 386.601600
   2702   2701   2703     1   109.7500473 328.025600
   2703   2701   2713     1   110.5600475 386.601600
   2704   2700   2729     1   110.1100470 384.091200
   2704   2716   2717     1   109.8000471 387.438400
   2704   2716   2718     1   109.8000471 387.438400
   2705   2704   2716     1   110.5600475 386.601600
   2705   2704   2706     1   109.7500473 328.025600
   2706   2704   2716     1   110.5600475 386.601600
   2707   2700   2729     1   110.1100470 384.091200
   2707   2710   2711     1   109.8000471 387.438400
   2707   2710   2712     1   109.8000471 387.438400
   2708   2707   2710     1   110.5600475 386.601600
   2708   2707   2709     1   109.7500473 328.025600
   2709   2707   2710     1   110.5600475 386.601600
   2710   2719   2720     1   109.5600471 388.275200
   2710   2719   2721     1   109.5600471 388.275200
   2711   2710   2719     1   109.8000471 387.438400
   2711   2710   2712     1   107.5800459 329.699200
   2712   2710   2719     1   109.8000471 387.438400
   2713   2725   2726     1   109.5600471 388.275200
   2713   2725   2727     1   109.5600471 388.275200
   2714   2713   2725     1   109.8000471 387.438400
   2714   2713   2715     1   107.5800459 329.699200
   2715   2713   2725     1   109.8000471 387.438400
   2716   2722   2723     1   109.5600471 388.275200
   2716   2722   2724     1   109.5600471 388.275200
   2717   2716   2722     1   109.8000471 387.438400
   2717   2716   2718     1   107.5800459 329.699200
   2718   2716   2722     1   109.8000471 387.438400
   2720   2719   2728     1   109.7800468 425.094400
   2720   2719   2721     1   108.4600466 328.025600
   2721   2719   2728     1   109.7800468 425.094400
   2723   2722   4576     1   109.7800468 425.094400
   2723   2722   2724     1   108.4600466 328.025600
   2724   2722   4576     1   109.7800468 425.094400
   2726   2725   4590     1   109.7800468 425.094400
   2726   2725   2727     1   108.4600466 328.025600
   2727   2725   4590     1   109.7800468 425.094400
   2730   2731   2732     1   108.0100461 406.684800
   2730   2731   2733     1   108.0100461 406.684800
   2730   2734   2735     1   108.0100461 406.684800
   2730   2734   2736     1   108.0100461 406.684800
   2730   2737   2738     1   108.0100461 406.684800
   2730   2737   2739     1   108.0100461 406.684800
   2731   2730   2759     1   110.1100470 384.091200
   2731   2743   2744     1   109.8000471 387.438400
   2731   2743   2745     1   109.8000471 387.438400
   2732   2731   2743     1   110.5600475 386.601600
   2732   2731   2733     1   109.7500473 328.025600
   2733   2731   2743     1   110.5600475 386.601600
   2734   2730   2759     1   110.1100470 384.091200
   2734   2746   2747     1   109.8000471 387.438400
   2734   2746   2748     1   109.8000471 387.438400
   2735   2734   2746     1   110.5600475 386.601600
   2735   2734   2736     1   109.7500473 328.025600
   2736   2734   2746     1   110.5600475 386.601600
   2737   2730   2759     1   110.1100470 384.091200
   2737   2740   2741     1   109.8000471 387.438400
   2737   2740   2742     1   109.8000471 387.438400
   2738   2737   2740     1   110.5600475 386.601600
   2738   2737   2739     1   109.7500473 328.025600
   2739   2737   2740     1   110.5600475 386.601600
   2740   2749   2750     1   109.5600471 388.275200
   2740   2749   2751     1   109.5600471 388.275200
   2741   2740   2749     1   109.8000471 387.438400
   2741   2740   2742     1   107.5800459 329.699200
   2742   2740   2749     1   109.8000471 387.438400
   2743   2755   2756     1   109.5600471 388.275200
   2743   2755   2757     1   109.5600471 388.275200
   2744   2743   2755     1   109.8000471 387.438400
   2744   2743   2745     1   107.5800459 329.699200
   2745   2743   2755     1   109.8000471 387.438400
   2746   2752   2753     1   109.5600471 388.275200
   2746   2752   2754     1   109.5600471 388.275200
   2747   2746   2752     1   109.8000471 387.438400
   2747   2746   2748     1   107.5800459 329.699200
   2748   2746   2752     1   109.8000471 387.438400
   2750   2749   2758     1   109.7800468 425.094400
   2750   2749   2751     1   108.4600466 328.025600
   2751   2749   2758     1   109.7800468 425.094400
   2753   2752   4604     1   109.7800468 425.094400
   2753   2752   2754     1   108.4600466 328.025600
   2754   2752   4604     1   109.7800468 425.094400
   2756   2755   4618     1   109.7800468 425.094400
   2756   2755   2757     1   108.4600466 328.025600
   2757   2755   4618     1   109.7800468 425.094400
   2760   2761   2762     1   108.0100461 406.684800
   2760   2761   2763     1   108.0100461 406.684800
   2760   2764   2765     1   108.0100461 406.684800
   2760   2764   2766     1   108.0100461 406.684800
   2760   2767   2768     1   108.0100461 406.684800
   2760   2767   2769     1   108.0100461 406.684800
   2761   2760   2789     1   110.1100470 384.091200
   2761   2773   2774     1   109.8000471 387.438400
   2761   2773   2775     1   109.8000471 387.438400
   2762   2761   2773     1   110.5600475 386.601600
   2762   2761   2763     1   109.7500473 328.025600
   2763   2761   2773     1   110.5600475 386.601600
   2764   2760   2789     1   110.1100470 384.091200
   2764   2776   2777     1   109.8000471 387.438400
   2764   2776   2778     1   109.8000471 387.438400
   2765   2764   2776     1   110.5600475 386.601600
   2765   2764   2766     1   109.7500473 328.025600
   2766   2764   2776     1   110.5600475 386.601600
   2767   2760   2789     1   110.1100470 384.091200
   2767   2770   2771     1   109.8000471 387.438400
   2767   2770   2772     1   109.8000471 387.438400
   2768   2767   2770     1   110.5600475 386.601600
   2768   2767   2769     1   109.7500473 328.025600
   2769   2767   2770     1   110.5600475 386.601600
   2770   2779   2780     1   109.5600471 388.275200
   2770   2779   2781     1   109.5600471 388.275200
   2771   2770   2779     1   109.8000471 387.438400
   2771   2770   2772     1   107.5800459 329.699200
   2772   2770   2779     1   109.8000471 387.438400
   2773   2785   2786     1   109.5600471 388.275200
   2773   2785   2787     1   109.5600471 388.275200
   2774   2773   2785     1   109.8000471 387.438400
   2774   2773   2775     1   107.5800459 329.699200
   2775   2773   2785     1   109.8000471 387.438400
   2776   2782   2783     1   109.5600471 388.275200
   2776   2782   2784     1   109.5600471 388.275200
   2777   2776   2782     1   109.8000471 387.438400
   2777   2776   2778     1   107.5800459 329.699200
   2778   2776   2782     1   109.8000471 387.438400
   2780   2779   2788     1   109.7800468 425.094400
   2780   2779   2781     1   108.4600466 328.025600
   2781   2779   2788     1   109.7800468 425.094400
   2783   2782   4632     1   109.7800468 425.094400
   2783   2782   2784     1   108.4600466 328.025600
   2784   2782   4632     1   109.7800468 425.094400
   2786   2785   4646     1   109.7800468 425.094400
   2786   2785   2787     1   108.4600466 328.025600
   2787   2785   4646     1   109.7800468 425.094400
   2790   2791   2792     1   108.0100461 406.684800
   2790   2791   2793     1   108.0100461 406.684800
   2790   2794   2795     1   108.0100461 406.684800
   2790   2794   2796     1   108.0100461 406.684800
   2790   2797   2798     1   108.0100461 406.684800
   2790   2797   2799     1   108.0100461 406.684800
   2791   2790   2819     1   110.1100470 384.091200
   2791   2803   2804     1   109.8000471 387.438400
   2791   2803   2805     1   109.8000471 387.438400
   2792   2791   2803     1   110.5600475 386.601600
   2792   2791   2793     1   109.7500473 328.025600
   2793   2791   2803     1   110.5600475 386.601600
   2794   2790   2819     1   110.1100470 384.091200
   2794   2806   2807     1   109.8000471 387.438400
   2794   2806   2808     1   109.8000471 387.438400
   2795   2794   2806     1   110.5600475 386.601600
   2795   2794   2796     1   109.7500473 328.025600
   2796   2794   2806     1   110.5600475 386.601600
   2797   2790   2819     1   110.1100470 384.091200
   2797   2800   2801     1   109.8000471 387.438400
   2797   2800   2802     1   109.8000471 387.438400
   2798   2797   2800     1   110.5600475 386.601600
   2798   2797   2799     1   109.7500473 328.025600
   2799   2797   2800     1   110.5600475 386.601600
   2800   2809   2810     1   109.5600471 388.275200
   2800   2809   2811     1   109.5600471 388.275200
   2801   2800   2809     1   109.8000471 387.438400
   2801   2800   2802     1   107.5800459 329.699200
   2802   2800   2809     1   109.8000471 387.438400
   2803   2815   2816     1   109.5600471 388.275200
   2803   2815   2817     1   109.5600471 388.275200
   2804   2803   2815     1   109.8000471 387.438400
   2804   2803   2805     1   107.5800459 329.699200
   2805   2803   2815     1   109.8000471 387.438400
   2806   2812   2813     1   109.5600471 388.275200
   2806   2812   2814     1   109.5600471 388.275200
   2807   2806   2812     1   109.8000471 387.438400
   2807   2806   2808     1   107.5800459 329.699200
   2808   2806   2812     1   109.8000471 387.438400
   2810   2809   2818     1   109.7800468 425.094400
   2810   2809   2811     1   108.4600466 328.025600
   2811   2809   2818     1   109.7800468 425.094400
   2813   2812   4660     1   109.7800468 425.094400
   2813   2812   2814     1   108.4600466 328.025600
   2814   2812   4660     1   109.7800468 425.094400
   2816   2815   4674     1   109.7800468 425.094400
   2816   2815   2817     1   108.4600466 328.025600
   2817   2815   4674     1   109.7800468 425.094400
   2820   2821   2822     1   108.0100461 406.684800
   2820   2821   2823     1   108.0100461 406.684800
   2820   2824   2825     1   108.0100461 406.684800
   2820   2824   2826     1   108.0100461 406.684800
   2820   2827   2828     1   108.0100461 406.684800
   2820   2827   2829     1   108.0100461 406.684800
   2821   2820   2849     1   110.1100470 384.091200
   2821   2833   2834     1   109.8000471 387.438400
   2821   2833   2835     1   109.8000471 387.438400
   2822   2821   2833     1   110.5600475 386.601600
   2822   2821   2823     1   109.7500473 328.025600
   2823   2821   2833     1   110.5600475 386.601600
   2824   2820   2849     1   110.1100470 384.091200
   2824   2836   2837     1   109.8000471 387.438400
   2824   2836   2838     1   109.8000471 387.438400
   2825   2824   2836     1   110.5600475 386.601600
   2825   2824   2826     1   109.7500473 328.025600
   2826   2824   2836     1   110.5600475 386.601600
   2827   2820   2849     1   110.1100470 384.091200
   2827   2830   2831     1   109.8000471 387.438400
   2827   2830   2832     1   109.8000471 387.438400
   2828   2827   2830     1   110.5600475 386.601600
   2828   2827   2829     1   109.7500473 328.025600
   2829   2827   2830     1   110.5600475 386.601600
   2830   2839   2840     1   109.5600471 388.275200
   2830   2839   2841     1   109.5600471 388.275200
   2831   2830   2839     1   109.8000471 387.438400
   2831   2830   2832     1   107.5800459 329.699200
   2832   2830   2839     1   109.8000471 387.438400
   2833   2845   2846     1   109.5600471 388.275200
   2833   2845   2847     1   109.5600471 388.275200
   2834   2833   2845     1   109.8000471 387.438400
   2834   2833   2835     1   107.5800459 329.699200
   2835   2833   2845     1   109.8000471 387.438400
   2836   2842   2843     1   109.5600471 388.275200
   2836   2842   2844     1   109.5600471 388.275200
   2837   2836   2842     1   109.8000471 387.438400
   2837   2836   2838     1   107.5800459 329.699200
   2838   2836   2842     1   109.8000471 387.438400
   2840   2839   2848     1   109.7800468 425.094400
   2840   2839   2841     1   108.4600466 328.025600
   2841   2839   2848     1   109.7800468 425.094400
   2843   2842   4688     1   109.7800468 425.094400
   2843   2842   2844     1   108.4600466 328.025600
   2844   2842   4688     1   109.7800468 425.094400
   2846   2845   4702     1   109.7800468 425.094400
   2846   2845   2847     1   108.4600466 328.025600
   2847   2845   4702     1   109.7800468 425.094400
   2850   2851   2852     1   108.0100461 406.684800
   2850   2851   2853     1   108.0100461 406.684800
   2850   2854   2855     1   108.0100461 406.684800
   2850   2854   2856     1   108.0100461 406.684800
   2850   2857   2858     1   108.0100461 406.684800
   2850   2857   2859     1   108.0100461 406.684800
   2851   2850   2879     1   110.1100470 384.091200
   2851   2863   2864     1   109.8000471 387.438400
   2851   2863   2865     1   109.8000471 387.438400
   2852   2851   2863     1   110.5600475 386.601600
   2852   2851   2853     1   109.7500473 328.025600
   2853   2851   2863     1   110.5600475 386.601600
   2854   2850   2879     1   110.1100470 384.091200
   2854   2866   2867     1   109.8000471 387.438400
   2854   2866   2868     1   109.8000471 387.438400
   2855   2854   2866     1   110.5600475 386.601600
   2855   2854   2856     1   109.7500473 328.025600
   2856   2854   2866     1   110.5600475 386.601600
   2857   2850   2879     1   110.1100470 384.091200
   2857   2860   2861     1   109.8000471 387.438400
   2857   2860   2862     1   109.8000471 387.438400
   2858   2857   2860     1   110.5600475 386.601600
   2858   2857   2859     1   109.7500473 328.025600
   2859   2857   2860     1   110.5600475 386.601600
   2860   2869   2870     1   109.5600471 388.275200
   2860   2869   2871     1   109.5600471 388.275200
   2861   2860   2869     1   109.8000471 387.438400
   2861   2860   2862     1   107.5800459 329.699200
   2862   2860   2869     1   109.8000471 387.438400
   2863   2875   2876     1   109.5600471 388.275200
   2863   2875   2877     1   109.5600471 388.275200
   2864   2863   2875     1   109.8000471 387.438400
   2864   2863   2865     1   107.5800459 329.699200
   2865   2863   2875     1   109.8000471 387.438400
   2866   2872   2873     1   109.5600471 388.275200
   2866   2872   2874     1   109.5600471 388.275200
   2867   2866   2872     1   109.8000471 387.438400
   2867   2866   2868     1   107.5800459 329.699200
   2868   2866   2872     1   109.8000471 387.438400
   2870   2869   2878     1   109.7800468 425.094400
   2870   2869   2871     1   108.4600466 328.025600
   2871   2869   2878     1   109.7800468 425.094400
   2873   2872   4716     1   109.7800468 425.094400
   2873   2872   2874     1   108.4600466 328.025600
   2874   2872   4716     1   109.7800468 425.094400
   2876   2875   4730     1   109.7800468 425.094400
   2876   2875   2877     1   108.4600466 328.025600
   2877   2875   4730     1   109.7800468 425.094400
   2880   2881   2882     1   108.0100461 406.684800
   2880   2881   2883     1   108.0100461 406.684800
   2880   2884   2885     1   108.0100461 406.684800
   2880   2884   2886     1   108.0100461 406.684800
   2880   2887   2888     1   108.0100461 406.684800
   2880   2887   2889     1   108.0100461 406.684800
   2881   2880   2909     1   110.1100470 384.091200
   2881   2893   2894     1   109.8000471 387.438400
   2881   2893   2895     1   109.8000471 387.438400
   2882   2881   2893     1   110.5600475 386.601600
   2882   2881   2883     1   109.7500473 328.025600
   2883   2881   2893     1   110.5600475 386.601600
   2884   2880   2909     1   110.1100470 384.091200
   2884   2896   2897     1   109.8000471 387.438400
   2884   2896   2898     1   109.8000471 387.438400
   2885   2884   2896     1   110.5600475 386.601600
   2885   2884   2886     1   109.7500473 328.025600
   2886   2884   2896     1   110.5600475 386.601600
   2887   2880   2909     1   110.1100470 384.091200
   2887   2890   2891     1   109.8000471 387.438400
   2887   2890   2892     1   109.8000471 387.438400
   2888   2887   2890     1   110.5600475 386.601600
   2888   2887   2889     1   109.7500473 328.025600
   2889   2887   2890     1   110.5600475 386.601600
   2890   2899   2900     1   109.5600471 388.275200
   2890   2899   2901     1   109.5600471 388.275200
   2891   2890   2899     1   109.8000471 387.438400
   2891   2890   2892     1   107.5800459 329.699200
   2892   2890   2899     1   109.8000471 387.438400
   2893   2905   2906     1   109.5600471 388.275200
   2893   2905   2907     1   109.5600471 388.275200
   2894   2893   2905     1   109.8000471 387.438400
   2894   2893   2895     1   107.5800459 329.699200
   2895   2893   2905     1   109.8000471 387.438400
   2896   2902   2903     1   109.5600471 388.275200
   2896   2902   2904     1   109.5600471 388.275200
   2897   2896   2902     1   109.8000471 387.438400
   2897   2896   2898     1   107.5800459 329.699200
   2898   2896   2902     1   109.8000471 387.438400
   2900   2899   2908     1   109.7800468 425.094400
   2900   2899   2901     1   108.4600466 328.025600
   2901   2899   2908     1   109.7800468 425.094400
   2903   2902   4744     1   109.7800468 425.094400
   2903   2902   2904     1   108.4600466 328.025600
   2904   2902   4744     1   109.7800468 425.094400
   2906   2905   4758     1   109.7800468 425.094400
   2906   2905   2907     1   108.4600466 328.025600
   2907   2905   4758     1   109.7800468 425.094400
   2910   2911   2912     1   108.0100461 406.684800
   2910   2911   2913     1   108.0100461 406.684800
   2910   2914   2915     1   108.0100461 406.684800
   2910   2914   2916     1   108.0100461 406.684800
   2910   2917   2918     1   108.0100461 406.684800
   2910   2917   2919     1   108.0100461 406.684800
   2911   2910   2939     1   110.1100470 384.091200
   2911   2923   2924     1   109.8000471 387.438400
   2911   2923   2925     1   109.8000471 387.438400
   2912   2911   2923     1   110.5600475 386.601600
   2912   2911   2913     1   109.7500473 328.025600
   2913   2911   2923     1   110.5600475 386.601600
   2914   2910   2939     1   110.1100470 384.091200
   2914   2926   2927     1   109.8000471 387.438400
   2914   2926   2928     1   109.8000471 387.438400
   2915   2914   2926     1   110.5600475 386.601600
   2915   2914   2916     1   109.7500473 328.025600
   2916   2914   2926     1   110.5600475 386.601600
   2917   2910   2939     1   110.1100470 384.091200
   2917   2920   2921     1   109.8000471 387.438400
   2917   2920   2922     1   109.8000471 387.438400
   2918   2917   2920     1   110.5600475 386.601600
   2918   2917   2919     1   109.7500473 328.025600
   2919   2917   2920     1   110.5600475 386.601600
   2920   2929   2930     1   109.5600471 388.275200
   2920   2929   2931     1   109.5600471 388.275200
   2921   2920   2929     1   109.8000471 387.438400
   2921   2920   2922     1   107.5800459 329.699200
   2922   2920   2929     1   109.8000471 387.438400
   2923   2935   2936     1   109.5600471 388.275200
   2923   2935   2937     1   109.5600471 388.275200
   2924   2923   2935     1   109.8000471 387.438400
   2924   2923   2925     1   107.5800459 329.699200
   2925   2923   2935     1   109.8000471 387.438400
   2926   2932   2933     1   109.5600471 388.275200
   2926   2932   2934     1   109.5600471 388.275200
   2927   2926   2932     1   109.8000471 387.438400
   2927   2926   2928     1   107.5800459 329.699200
   2928   2926   2932     1   109.8000471 387.438400
   2930   2929   2938     1   109.7800468 425.094400
   2930   2929   2931     1   108.4600466 328.025600
   2931   2929   2938     1   109.7800468 425.094400
   2933   2932   4772     1   109.7800468 425.094400
   2933   2932   2934     1   108.4600466 328.025600
   2934   2932   4772     1   109.7800468 425.094400
   2936   2935   4786     1   109.7800468 425.094400
   2936   2935   2937     1   108.4600466 328.025600
   2937   2935   4786     1   109.7800468 425.094400
   2940   2941   2942     1   108.0100461 406.684800
   2940   2941   2943     1   108.0100461 406.684800
   2940   2944   2945     1   108.0100461 406.684800
   2940   2944   2946     1   108.0100461 406.684800
   2940   2947   2948     1   108.0100461 406.684800
   2940   2947   2949     1   108.0100461 406.684800
   2941   2940   2969     1   110.1100470 384.091200
   2941   2953   2954     1   109.8000471 387.438400
   2941   2953   2955     1   109.8000471 387.438400
   2942   2941   2953     1   110.5600475 386.601600
   2942   2941   2943     1   109.7500473 328.025600
   2943   2941   2953     1   110.5600475 386.601600
   2944   2940   2969     1   110.1100470 384.091200
   2944   2956   2957     1   109.8000471 387.438400
   2944   2956   2958     1   109.8000471 387.438400
   2945   2944   2956     1   110.5600475 386.601600
   2945   2944   2946     1   109.7500473 328.025600
   2946   2944   2956     1   110.5600475 386.601600
   2947   2940   2969     1   110.1100470 384.091200
   2947   2950   2951     1   109.8000471 387.438400
   2947   2950   2952     1   109.8000471 387.438400
   2948   2947   2950     1   110.5600475 386.601600
   2948   2947   2949     1   109.7500473 328.025600
   2949   2947   2950     1   110.5600475 386.601600
   2950   2959   2960     1   109.5600471 388.275200
   2950   2959   2961     1   109.5600471 388.275200
   2951   2950   2959     1   109.8000471 387.438400
   2951   2950   2952     1   107.5800459 329.699200
   2952   2950   2959     1   109.8000471 387.438400
   2953   2965   2966     1   109.5600471 388.275200
   2953   2965   2967     1   109.5600471 388.275200
   2954   2953   2965     1   109.8000471 387.438400
   2954   2953   2955     1   107.5800459 329.699200
   2955   2953   2965     1   109.8000471 387.438400
   2956   2962   2963     1   109.5600471 388.275200
   2956   2962   2964     1   109.5600471 388.275200
   2957   2956   2962     1   109.8000471 387.438400
   2957   2956   2958     1   107.5800459 329.699200
   2958   2956   2962     1   109.8000471 387.438400
   2960   2959   2968     1   109.7800468 425.094400
   2960   2959   2961     1   108.4600466 328.025600
   2961   2959   2968     1   109.7800468 425.094400
   2963   2962   4800     1   109.7800468 425.094400
   2963   2962   2964     1   108.4600466 328.025600
   2964   2962   4800     1   109.7800468 425.094400
   2966   2965   4814     1   109.7800468 425.094400
   2966   2965   2967     1   108.4600466 328.025600
   2967   2965   4814     1   109.7800468 425.094400
   2970   2971   2972     1   108.0100461 406.684800
   2970   2971   2973     1   108.0100461 406.684800
   2970   2974   2975     1   108.0100461 406.684800
   2970   2974   2976     1   108.0100461 406.684800
   2970   2977   2978     1   108.0100461 406.684800
   2970   2977   2979     1   108.0100461 406.684800
   2971   2970   2999     1   110.1100470 384.091200
   2971   2983   2984     1   109.8000471 387.438400
   2971   2983   2985     1   109.8000471 387.438400
   2972   2971   2983     1   110.5600475 386.601600
   2972   2971   2973     1   109.7500473 328.025600
   2973   2971   2983     1   110.5600475 386.601600
   2974   2970   2999     1   110.1100470 384.091200
   2974   2986   2987     1   109.8000471 387.438400
   2974   2986   2988     1   109.8000471 387.438400
   2975   2974   2986     1   110.5600475 386.601600
   2975   2974   2976     1   109.7500473 328.025600
   2976   2974   2986     1   110.5600475 386.601600
   2977   2970   2999     1   110.1100470 384.091200
   2977   2980   2981     1   109.8000471 387.438400
   2977   2980   2982     1   109.8000471 387.438400
   2978   2977   2980     1   110.5600475 386.601600
   2978   2977   2979     1   109.7500473 328.025600
   2979   2977   2980     1   110.5600475 386.601600
   2980   2989   2990     1   109.5600471 388.275200
   2980   2989   2991     1   109.5600471 388.275200
   2981   2980   2989     1   109.8000471 387.438400
   2981   2980   2982     1   107.5800459 329.699200
   2982   2980   2989     1   109.8000471 387.438400
   2983   2995   2996     1   109.5600471 388.275200
   2983   2995   2997     1   109.5600471 388.275200
   2984   2983   2995     1   109.8000471 387.438400
   2984   2983   2985     1   107.5800459 329.699200
   2985   2983   2995     1   109.8000471 387.438400
   2986   2992   2993     1   109.5600471 388.275200
   2986   2992   2994     1   109.5600471 388.275200
   2987   2986   2992     1   109.8000471 387.438400
   2987   2986   2988     1   107.5800459 329.699200
   2988   2986   2992     1   109.8000471 387.438400
   2990   2989   2998     1   109.7800468 425.094400
   2990   2989   2991     1   108.4600466 328.025600
   2991   2989   2998     1   109.7800468 425.094400
   2993   2992   4828     1   109.7800468 425.094400
   2993   2992   2994     1   108.4600466 328.025600
   2994   2992   4828     1   109.7800468 425.094400
   2996   2995   4842     1   109.7800468 425.094400
   2996   2995   2997     1   108.4600466 328.025600
   2997   2995   4842     1   109.7800468 425.094400
   3000   3001   3002     1   108.0100461 406.684800
   3000   3001   3003     1   108.0100461 406.684800
   3000   3004   3005     1   108.0100461 406.684800
   3000   3004   3006     1   108.0100461 406.684800
   3000   3007   3008     1   108.0100461 406.684800
   3000   3007   3009     1   108.0100461 406.684800
   3001   3000   3029     1   110.1100470 384.091200
   3001   3013   3014     1   109.8000471 387.438400
   3001   3013   3015     1   109.8000471 387.438400
   3002   3001   3013     1   110.5600475 386.601600
   3002   3001   3003     1   109.7500473 328.025600
   3003   3001   3013     1   110.5600475 386.601600
   3004   3000   3029     1   110.1100470 384.091200
   3004   3016   3017     1   109.8000471 387.438400
   3004   3016   3018     1   109.8000471 387.438400
   3005   3004   3016     1   110.5600475 386.601600
   3005   3004   3006     1   109.7500473 328.025600
   3006   3004   3016     1   110.5600475 386.601600
   3007   3000   3029     1   110.1100470 384.091200
   3007   3010   3011     1   109.8000471 387.438400
   3007   3010   3012     1   109.8000471 387.438400
   3008   3007   3010     1   110.5600475 386.601600
   3008   3007   3009     1   109.7500473 328.025600
   3009   3007   3010     1   110.5600475 386.601600
   3010   3019   3020     1   109.5600471 388.275200
   3010   3019   3021     1   109.5600471 388.275200
   3011   3010   3019     1   109.8000471 387.438400
   3011   3010   3012     1   107.5800459 329.699200
   3012   3010   3019     1   109.8000471 387.438400
   3013   3025   3026     1   109.5600471 388.275200
   3013   3025   3027     1   109.5600471 388.275200
   3014   3013   3025     1   109.8000471 387.438400
   3014   3013   3015     1   107.5800459 329.699200
   3015   3013   3025     1   109.8000471 387.438400
   3016   3022   3023     1   109.5600471 388.275200
   3016   3022   3024     1   109.5600471 388.275200
   3017   3016   3022     1   109.8000471 387.438400
   3017   3016   3018     1   107.5800459 329.699200
   3018   3016   3022     1   109.8000471 387.438400
   3020   3019   3028     1   109.7800468 425.094400
   3020   3019   3021     1   108.4600466 328.025600
   3021   3019   3028     1   109.7800468 425.094400
   3023   3022   4856     1   109.7800468 425.094400
   3023   3022   3024     1   108.4600466 328.025600
   3024   3022   4856     1   109.7800468 425.094400
   3026   3025   4870     1   109.7800468 425.094400
   3026   3025   3027     1   108.4600466 328.025600
   3027   3025   4870     1   109.7800468 425.094400
   3030   3031   3032     1   108.0100461 406.684800
   3030   3031   3033     1   108.0100461 406.684800
   3030   3034   3035     1   108.0100461 406.684800
   3030   3034   3036     1   108.0100461 406.684800
   3030   3037   3038     1   108.0100461 406.684800
   3030   3037   3039     1   108.0100461 406.684800
   3031   3030   3059     1   110.1100470 384.091200
   3031   3043   3044     1   109.8000471 387.438400
   3031   3043   3045     1   109.8000471 387.438400
   3032   3031   3043     1   110.5600475 386.601600
   3032   3031   3033     1   109.7500473 328.025600
   3033   3031   3043     1   110.5600475 386.601600
   3034   3030   3059     1   110.1100470 384.091200
   3034   3046   3047     1   109.8000471 387.438400
   3034   3046   3048     1   109.8000471 387.438400
   3035   3034   3046     1   110.5600475 386.601600
   3035   3034   3036     1   109.7500473 328.025600
   3036   3034   3046     1   110.5600475 386.601600
   3037   3030   3059     1   110.1100470 384.091200
   3037   3040   3041     1   109.8000471 387.438400
   3037   3040   3042     1   109.8000471 387.438400
   3038   3037   3040     1   110.5600475 386.601600
   3038   3037   3039     1   109.7500473 328.025600
   3039   3037   3040     1   110.5600475 386.601600
   3040   3049   3050     1   109.5600471 388.275200
   3040   3049   3051     1   109.5600471 388.275200
   3041   3040   3049     1   109.8000471 387.438400
   3041   3040   3042     1   107.5800459 329.699200
   3042   3040   3049     1   109.8000471 387.438400
   3043   3055   3056     1   109.5600471 388.275200
   3043   3055   3057     1   109.5600471 388.275200
   3044   3043   3055     1   109.8000471 387.438400
   3044   3043   3045     1   107.5800459 329.699200
   3045   3043   3055     1   109.8000471 387.438400
   3046   3052   3053     1   109.5600471 388.275200
   3046   3052   3054     1   109.5600471 388.275200
   3047   3046   3052     1   109.8000471 387.438400
   3047   3046   3048     1   107.5800459 329.699200
   3048   3046   3052     1   109.8000471 387.438400
   3050   3049   3058     1   109.7800468 425.094400
   3050   3049   3051     1   108.4600466 328.025600
   3051   3049   3058     1   109.7800468 425.094400
   3053   3052   4884     1   109.7800468 425.094400
   3053   3052   3054     1   108.4600466 328.025600
   3054   3052   4884     1   109.7800468 425.094400
   3056   3055   4898     1   109.7800468 425.094400
   3056   3055   3057     1   108.4600466 328.025600
   3057   3055   4898     1   109.7800468 425.094400
   3060   3061   3062     1   108.0100461 406.684800
   3060   3061   3063     1   108.0100461 406.684800
   3060   3064   3065     1   108.0100461 406.684800
   3060   3064   3066     1   108.0100461 406.684800
   3060   3067   3068     1   108.0100461 406.684800
   3060   3067   3069     1   108.0100461 406.684800
   3061   3060   3089     1   110.1100470 384.091200
   3061   3073   3074     1   109.8000471 387.438400
   3061   3073   3075     1   109.8000471 387.438400
   3062   3061   3073     1   110.5600475 386.601600
   3062   3061   3063     1   109.7500473 328.025600
   3063   3061   3073     1   110.5600475 386.601600
   3064   3060   3089     1   110.1100470 384.091200
   3064   3076   3077     1   109.8000471 387.438400
   3064   3076   3078     1   109.8000471 387.438400
   3065   3064   3076     1   110.5600475 386.601600
   3065   3064   3066     1   109.7500473 328.025600
   3066   3064   3076     1   110.5600475 386.601600
   3067   3060   3089     1   110.1100470 384.091200
   3067   3070   3071     1   109.8000471 387.438400
   3067   3070   3072     1   109.8000471 387.438400
   3068   3067   3070     1   110.5600475 386.601600
   3068   3067   3069     1   109.7500473 328.025600
   3069   3067   3070     1   110.5600475 386.601600
   3070   3079   3080     1   109.5600471 388.275200
   3070   3079   3081     1   109.5600471 388.275200
   3071   3070   3079     1   109.8000471 387.438400
   3071   3070   3072     1   107.5800459 329.699200
   3072   3070   3079     1   109.8000471 387.438400
   3073   3085   3086     1   109.5600471 388.275200
   3073   3085   3087     1   109.5600471 388.275200
   3074   3073   3085     1   109.8000471 387.438400
   3074   3073   3075     1   107.5800459 329.699200
   3075   3073   3085     1   109.8000471 387.438400
   3076   3082   3083     1   109.5600471 388.275200
   3076   3082   3084     1   109.5600471 388.275200
   3077   3076   3082     1   109.8000471 387.438400
   3077   3076   3078     1   107.5800459 329.699200
   3078   3076   3082     1   109.8000471 387.438400
   3080   3079   3088     1   109.7800468 425.094400
   3080   3079   3081     1   108.4600466 328.025600
   3081   3079   3088     1   109.7800468 425.094400
   3083   3082   4912     1   109.7800468 425.094400
   3083   3082   3084     1   108.4600466 328.025600
   3084   3082   4912     1   109.7800468 425.094400
   3086   3085   4926     1   109.7800468 425.094400
   3086   3085   3087     1   108.4600466 328.025600
   3087   3085   4926     1   109.7800468 425.094400
   3090   3091   3092     1   108.0100461 406.684800
   3090   3091   3093     1   108.0100461 406.684800
   3090   3094   3095     1   108.0100461 406.684800
   3090   3094   3096     1   108.0100461 406.684800
   3090   3097   3098     1   108.0100461 406.684800
   3090   3097   3099     1   108.0100461 406.684800
   3091   3090   3119     1   110.1100470 384.091200
   3091   3103   3104     1   109.8000471 387.438400
   3091   3103   3105     1   109.8000471 387.438400
   3092   3091   3103     1   110.5600475 386.601600
   3092   3091   3093     1   109.7500473 328.025600
   3093   3091   3103     1   110.5600475 386.601600
   3094   3090   3119     1   110.1100470 384.091200
   3094   3106   3107     1   109.8000471 387.438400
   3094   3106   3108     1   109.8000471 387.438400
   3095   3094   3106     1   110.5600475 386.601600
   3095   3094   3096     1   109.7500473 328.025600
   3096   3094   3106     1   110.5600475 386.601600
   3097   3090   3119     1   110.1100470 384.091200
   3097   3100   3101     1   109.8000471 387.438400
   3097   3100   3102     1   109.8000471 387.438400
   3098   3097   3100     1   110.5600475 386.601600
   3098   3097   3099     1   109.7500473 328.025600
   3099   3097   3100     1   110.5600475 386.601600
   3100   3109   3110     1   109.5600471 388.275200
   3100   3109   3111     1   109.5600471 388.275200
   3101   3100   3109     1   109.8000471 387.438400
   3101   3100   3102     1   107.5800459 329.699200
   3102   3100   3109     1   109.8000471 387.438400
   3103   3115   3116     1   109.5600471 388.275200
   3103   3115   3117     1   109.5600471 388.275200
   3104   3103   3115     1   109.8000471 387.438400
   3104   3103   3105     1   107.5800459 329.699200
   3105   3103   3115     1   109.8000471 387.438400
   3106   3112   3113     1   109.5600471 388.275200
   3106   3112   3114     1   109.5600471 388.275200
   3107   3106   3112     1   109.8000471 387.438400
   3107   3106   3108     1   107.5800459 329.699200
   3108   3106   3112     1   109.8000471 387.438400
   3110   3109   3118     1   109.7800468 425.094400
   3110   3109   3111     1   108.4600466 328.025600
   3111   3109   3118     1   109.7800468 425.094400
   3113   3112   4940     1   109.7800468 425.094400
   3113   3112   3114     1   108.4600466 328.025600
   3114   3112   4940     1   109.7800468 425.094400
   3116   3115   4954     1   109.7800468 425.094400
   3116   3115   3117     1   108.4600466 328.025600
   3117   3115   4954     1   109.7800468 425.094400
   3120   3121   3122     1   108.0100461 406.684800
   3120   3121   3123     1   108.0100461 406.684800
   3120   3124   3125     1   108.0100461 406.684800
   3120   3124   3126     1   108.0100461 406.684800
   3120   3127   3128     1   108.0100461 406.684800
   3120   3127   3129     1   108.0100461 406.684800
   3121   3120   3149     1   110.1100470 384.091200
   3121   3133   3134     1   109.8000471 387.438400
   3121   3133   3135     1   109.8000471 387.438400
   3122   3121   3133     1   110.5600475 386.601600
   3122   3121   3123     1   109.7500473 328.025600
   3123   3121   3133     1   110.5600475 386.601600
   3124   3120   3149     1   110.1100470 384.091200
   3124   3136   3137     1   109.8000471 387.438400
   3124   3136   3138     1   109.8000471 387.438400
   3125   3124   3136     1   110.5600475 386.601600
   3125   3124   3126     1   109.7500473 328.025600
   3126   3124   3136     1   110.5600475 386.601600
   3127   3120   3149     1   110.1100470 384.091200
   3127   3130   3131     1   109.8000471 387.438400
   3127   3130   3132     1   109.8000471 387.438400
   3128   3127   3130     1   110.5600475 386.601600
   3128   3127   3129     1   109.7500473 328.025600
   3129   3127   3130     1   110.5600475 386.601600
   3130   3139   3140     1   109.5600471 388.275200
   3130   3139   3141     1   109.5600471 388.275200
   3131   3130   3139     1   109.8000471 387.438400
   3131   3130   3132     1   107.5800459 329.699200
   3132   3130   3139     1   109.8000471 387.438400
   3133   3145   3146     1   109.5600471 388.275200
   3133   3145   3147     1   109.5600471 388.275200
   3134   3133   3145     1   109.8000471 387.438400
   3134   3133   3135     1   107.5800459 329.699200
   3135   3133   3145     1   109.8000471 387.438400
   3136   3142   3143     1   109.5600471 388.275200
   3136   3142   3144     1   109.5600471 388.275200
   3137   3136   3142     1   109.8000471 387.438400
   3137   3136   3138     1   107.5800459 329.699200
   3138   3136   3142     1   109.8000471 387.438400
   3140   3139   3148     1   109.7800468 425.094400
   3140   3139   3141     1   108.4600466 328.025600
   3141   3139   3148     1   109.7800468 425.094400
   3143   3142   4968     1   109.7800468 425.094400
   3143   3142   3144     1   108.4600466 328.025600
   3144   3142   4968     1   109.7800468 425.094400
   3146   3145   4982     1   109.7800468 425.094400
   3146   3145   3147     1   108.4600466 328.025600
   3147   3145   4982     1   109.7800468 425.094400
   3150   3151   3152     1   108.0100461 406.684800
   3150   3151   3153     1   108.0100461 406.684800
   3150   3154   3155     1   108.0100461 406.684800
   3150   3154   3156     1   108.0100461 406.684800
   3150   3157   3158     1   108.0100461 406.684800
   3150   3157   3159     1   108.0100461 406.684800
   3151   3150   3179     1   110.1100470 384.091200
   3151   3163   3164     1   109.8000471 387.438400
   3151   3163   3165     1   109.8000471 387.438400
   3152   3151   3163     1   110.5600475 386.601600
   3152   3151   3153     1   109.7500473 328.025600
   3153   3151   3163     1   110.5600475 386.601600
   3154   3150   3179     1   110.1100470 384.091200
   3154   3166   3167     1   109.8000471 387.438400
   3154   3166   3168     1   109.8000471 387.438400
   3155   3154   3166     1   110.5600475 386.601600
   3155   3154   3156     1   109.7500473 328.025600
   3156   3154   3166     1   110.5600475 386.601600
   3157   3150   3179     1   110.1100470 384.091200
   3157   3160   3161     1   109.8000471 387.438400
   3157   3160   3162     1   109.8000471 387.438400
   3158   3157   3160     1   110.5600475 386.601600
   3158   3157   3159     1   109.7500473 328.025600
   3159   3157   3160     1   110.5600475 386.601600
   3160   3169   3170     1   109.5600471 388.275200
   3160   3169   3171     1   109.5600471 388.275200
   3161   3160   3169     1   109.8000471 387.438400
   3161   3160   3162     1   107.5800459 329.699200
   3162   3160   3169     1   109.8000471 387.438400
   3163   3175   3176     1   109.5600471 388.275200
   3163   3175   3177     1   109.5600471 388.275200
   3164   3163   3175     1   109.8000471 387.438400
   3164   3163   3165     1   107.5800459 329.699200
   3165   3163   3175     1   109.8000471 387.438400
   3166   3172   3173     1   109.5600471 388.275200
   3166   3172   3174     1   109.5600471 388.275200
   3167   3166   3172     1   109.8000471 387.438400
   3167   3166   3168     1   107.5800459 329.699200
   3168   3166   3172     1   109.8000471 387.438400
   3170   3169   3178     1   109.7800468 425.094400
   3170   3169   3171     1   108.4600466 328.025600
   3171   3169   3178     1   109.7800468 425.094400
   3173   3172   4996     1   109.7800468 425.094400
   3173   3172   3174     1   108.4600466 328.025600
   3174   3172   4996     1   109.7800468 425.094400
   3176   3175   5010     1   109.7800468 425.094400
   3176   3175   3177     1   108.4600466 328.025600
   3177   3175   5010     1   109.7800468 425.094400
   3180   3181   3182     1   108.0100461 406.684800
   3180   3181   3183     1   108.0100461 406.684800
   3180   3184   3185     1   108.0100461 406.684800
   3180   3184   3186     1   108.0100461 406.684800
   3180   3187   3188     1   108.0100461 406.684800
   3180   3187   3189     1   108.0100461 406.684800
   3181   3180   3209     1   110.1100470 384.091200
   3181   3193   3194     1   109.8000471 387.438400
   3181   3193   3195     1   109.8000471 387.438400
   3182   3181   3193     1   110.5600475 386.601600
   3182   3181   3183     1   109.7500473 328.025600
   3183   3181   3193     1   110.5600475 386.601600
   3184   3180   3209     1   110.1100470 384.091200
   3184   3196   3197     1   109.8000471 387.438400
   3184   3196   3198     1   109.8000471 387.438400
   3185   3184   3196     1   110.5600475 386.601600
   3185   3184   3186     1   109.7500473 328.025600
   3186   3184   3196     1   110.5600475 386.601600
   3187   3180   3209     1   110.1100470 384.091200
   3187   3190   3191     1   109.8000471 387.438400
   3187   3190   3192     1   109.8000471 387.438400
   3188   3187   3190     1   110.5600475 386.601600
   3188   3187   3189     1   109.7500473 328.025600
   3189   3187   3190     1   110.5600475 386.601600
   3190   3199   3200     1   109.5600471 388.275200
   3190   3199   3201     1   109.5600471 388.275200
   3191   3190   3199     1   109.8000471 387.438400
   3191   3190   3192     1   107.5800459 329.699200
   3192   3190   3199     1   109.8000471 387.438400
   3193   3205   3206     1   109.5600471 388.275200
   3193   3205   3207     1   109.5600471 388.275200
   3194   3193   3205     1   109.8000471 387.438400
   3194   3193   3195     1   107.5800459 329.699200
   3195   3193   3205     1   109.8000471 387.438400
   3196   3202   3203     1   109.5600471 388.275200
   3196   3202   3204     1   109.5600471 388.275200
   3197   3196   3202     1   109.8000471 387.438400
   3197   3196   3198     1   107.5800459 329.699200
   3198   3196   3202     1   109.8000471 387.438400
   3200   3199   3208     1   109.7800468 425.094400
   3200   3199   3201     1   108.4600466 328.025600
   3201   3199   3208     1   109.7800468 425.094400
   3203   3202   5024     1   109.7800468 425.094400
   3203   3202   3204     1   108.4600466 328.025600
   3204   3202   5024     1   109.7800468 425.094400
   3206   3205   5038     1   109.7800468 425.094400
   3206   3205   3207     1   108.4600466 328.025600
   3207   3205   5038     1   109.7800468 425.094400
   3210   3211   3212     1   108.0100461 406.684800
   3210   3211   3213     1   108.0100461 406.684800
   3210   3214   3215     1   108.0100461 406.684800
   3210   3214   3216     1   108.0100461 406.684800
   3210   3217   3218     1   108.0100461 406.684800
   3210   3217   3219     1   108.0100461 406.684800
   3211   3210   3239     1   110.1100470 384.091200
   3211   3223   3224     1   109.8000471 387.438400
   3211   3223   3225     1   109.8000471 387.438400
   3212   3211   3223     1   110.5600475 386.601600
   3212   3211   3213     1   109.7500473 328.025600
   3213   3211   3223     1   110.5600475 386.601600
   3214   3210   3239     1   110.1100470 384.091200
   3214   3226   3227     1   109.8000471 387.438400
   3214   3226   3228     1   109.8000471 387.438400
   3215   3214   3226     1   110.5600475 386.601600
   3215   3214   3216     1   109.7500473 328.025600
   3216   3214   3226     1   110.5600475 386.601600
   3217   3210   3239     1   110.1100470 384.091200
   3217   3220   3221     1   109.8000471 387.438400
   3217   3220   3222     1   109.8000471 387.438400
   3218   3217   3220     1   110.5600475 386.601600
   3218   3217   3219     1   109.7500473 328.025600
   3219   3217   3220     1   110.5600475 386.601600
   3220   3229   3230     1   109.5600471 388.275200
   3220   3229   3231     1   109.5600471 388.275200
   3221   3220   3229     1   109.8000471 387.438400
   3221   3220   3222     1   107.5800459 329.699200
   3222   3220   3229     1   109.8000471 387.438400
   3223   3235   3236     1   109.5600471 388.275200
   3223   3235   3237     1   109.5600471 388.275200
   3224   3223   3235     1   109.8000471 387.438400
   3224   3223   3225     1   107.5800459 329.699200
   3225   3223   3235     1   109.8000471 387.438400
   3226   3232   3233     1   109.5600471 388.275200
   3226   3232   3234     1   109.5600471 388.275200
   3227   3226   3232     1   109.8000471 387.438400
   3227   3226   3228     1   107.5800459 329.699200
   3228   3226   3232     1   109.8000471 387.438400
   3230   3229   3238     1   109.7800468 425.094400
   3230   3229   3231     1   108.4600466 328.025600
   3231   3229   3238     1   109.7800468 425.094400
   3233   3232   5052     1   109.7800468 425.094400
   3233   3232   3234     1   108.4600466 328.025600
   3234   3232   5052     1   109.7800468 425.094400
   3236   3235   5066     1   109.7800468 425.094400
   3236   3235   3237     1   108.4600466 328.025600
   3237   3235   5066     1   109.7800468 425.094400
   3240   3241   3242     1   108.0100461 406.684800
   3240   3241   3243     1   108.0100461 406.684800
   3240   3244   3245     1   108.0100461 406.684800
   3240   3244   3246     1   108.0100461 406.684800
   3240   3247   3248     1   108.0100461 406.684800
   3240   3247   3249     1   108.0100461 406.684800
   3241   3240   3269     1   110.1100470 384.091200
   3241   3253   3254     1   109.8000471 387.438400
   3241   3253   3255     1   109.8000471 387.438400
   3242   3241   3253     1   110.5600475 386.601600
   3242   3241   3243     1   109.7500473 328.025600
   3243   3241   3253     1   110.5600475 386.601600
   3244   3240   3269     1   110.1100470 384.091200
   3244   3256   3257     1   109.8000471 387.438400
   3244   3256   3258     1   109.8000471 387.438400
   3245   3244   3256     1   110.5600475 386.601600
   3245   3244   3246     1   109.7500473 328.025600
   3246   3244   3256     1   110.5600475 386.601600
   3247   3240   3269     1   110.1100470 384.091200
   3247   3250   3251     1   109.8000471 387.438400
   3247   3250   3252     1   109.8000471 387.438400
   3248   3247   3250     1   110.5600475 386.601600
   3248   3247   3249     1   109.7500473 328.025600
   3249   3247   3250     1   110.5600475 386.601600
   3250   3259   3260     1   109.5600471 388.275200
   3250   3259   3261     1   109.5600471 388.275200
   3251   3250   3259     1   109.8000471 387.438400
   3251   3250   3252     1   107.5800459 329.699200
   3252   3250   3259     1   109.8000471 387.438400
   3253   3265   3266     1   109.5600471 388.275200
   3253   3265   3267     1   109.5600471 388.275200
   3254   3253   3265     1   109.8000471 387.438400
   3254   3253   3255     1   107.5800459 329.699200
   3255   3253   3265     1   109.8000471 387.438400
   3256   3262   3263     1   109.5600471 388.275200
   3256   3262   3264     1   109.5600471 388.275200
   3257   3256   3262     1   109.8000471 387.438400
   3257   3256   3258     1   107.5800459 329.699200
   3258   3256   3262     1   109.8000471 387.438400
   3260   3259   3268     1   109.7800468 425.094400
   3260   3259   3261     1   108.4600466 328.025600
   3261   3259   3268     1   109.7800468 425.094400
   3263   3262   5080     1   109.7800468 425.094400
   3263   3262   3264     1   108.4600466 328.025600
   3264   3262   5080     1   109.7800468 425.094400
   3266   3265   5094     1   109.7800468 425.094400
   3266   3265   3267     1   108.4600466 328.025600
   3267   3265   5094     1   109.7800468 425.094400
   3270   3271   3272     1   108.0100461 406.684800
   3270   3271   3273     1   108.0100461 406.684800
   3270   3274   3275     1   108.0100461 406.684800
   3270   3274   3276     1   108.0100461 406.684800
   3270   3277   3278     1   108.0100461 406.684800
   3270   3277   3279     1   108.0100461 406.684800
   3271   3270   3299     1   110.1100470 384.091200
   3271   3283   3284     1   109.8000471 387.438400
   3271   3283   3285     1   109.8000471 387.438400
   3272   3271   3283     1   110.5600475 386.601600
   3272   3271   3273     1   109.7500473 328.025600
   3273   3271   3283     1   110.5600475 386.601600
   3274   3270   3299     1   110.1100470 384.091200
   3274   3286   3287     1   109.8000471 387.438400
   3274   3286   3288     1   109.8000471 387.438400
   3275   3274   3286     1   110.5600475 386.601600
   3275   3274   3276     1   109.7500473 328.025600
   3276   3274   3286     1   110.5600475 386.601600
   3277   3270   3299     1   110.1100470 384.091200
   3277   3280   3281     1   109.8000471 387.438400
   3277   3280   3282     1   109.8000471 387.438400
   3278   3277   3280     1   110.5600475 386.601600
   3278   3277   3279     1   109.7500473 328.025600
   3279   3277   3280     1   110.5600475 386.601600
   3280   3289   3290     1   109.5600471 388.275200
   3280   3289   3291     1   109.5600471 388.275200
   3281   3280   3289     1   109.8000471 387.438400
   3281   3280   3282     1   107.5800459 329.699200
   3282   3280   3289     1   109.8000471 387.438400
   3283   3295   3296     1   109.5600471 388.275200
   3283   3295   3297     1   109.5600471 388.275200
   3284   3283   3295     1   109.8000471 387.438400
   3284   3283   3285     1   107.5800459 329.699200
   3285   3283   3295     1   109.8000471 387.438400
   3286   3292   3293     1   109.5600471 388.275200
   3286   3292   3294     1   109.5600471 388.275200
   3287   3286   3292     1   109.8000471 387.438400
   3287   3286   3288     1   107.5800459 329.699200
   3288   3286   3292     1   109.8000471 387.438400
   3290   3289   3298     1   109.7800468 425.094400
   3290   3289   3291     1   108.4600466 328.025600
   3291   3289   3298     1   109.7800468 425.094400
   3293   3292   5108     1   109.7800468 425.094400
   3293   3292   3294     1   108.4600466 328.025600
   3294   3292   5108     1   109.7800468 425.094400
   3296   3295   5122     1   109.7800468 425.094400
   3296   3295   3297     1   108.4600466 328.025600
   3297   3295   5122     1   109.7800468 425.094400
   3300   3301   3302     1   108.0100461 406.684800
   3300   3301   3303     1   108.0100461 406.684800
   3300   3304   3305     1   108.0100461 406.684800
   3300   3304   3306     1   108.0100461 406.684800
   3300   3307   3308     1   108.0100461 406.684800
   3300   3307   3309     1   108.0100461 406.684800
   3301   3300   3329     1   110.1100470 384.091200
   3301   3313   3314     1   109.8000471 387.438400
   3301   3313   3315     1   109.8000471 387.438400
   3302   3301   3313     1   110.5600475 386.601600
   3302   3301   3303     1   109.7500473 328.025600
   3303   3301   3313     1   110.5600475 386.601600
   3304   3300   3329     1   110.1100470 384.091200
   3304   3316   3317     1   109.8000471 387.438400
   3304   3316   3318     1   109.8000471 387.438400
   3305   3304   3316     1   110.5600475 386.601600
   3305   3304   3306     1   109.7500473 328.025600
   3306   3304   3316     1   110.5600475 386.601600
   3307   3300   3329     1   110.1100470 384.091200
   3307   3310   3311     1   109.8000471 387.438400
   3307   3310   3312     1   109.8000471 387.438400
   3308   3307   3310     1   110.5600475 386.601600
   3308   3307   3309     1   109.7500473 328.025600
   3309   3307   3310     1   110.5600475 386.601600
   3310   3319   3320     1   109.5600471 388.275200
   3310   3319   3321     1   109.5600471 388.275200
   3311   3310   3319     1   109.8000471 387.438400
   3311   3310   3312     1   107.5800459 329.699200
   3312   3310   3319     1   109.8000471 387.438400
   3313   3325   3326     1   109.5600471 388.275200
   3313   3325   3327     1   109.5600471 388.275200
   3314   3313   3325     1   109.8000471 387.438400
   3314   3313   3315     1   107.5800459 329.699200
   3315   3313   3325     1   109.8000471 387.438400
   3316   3322   3323     1   109.5600471 388.275200
   3316   3322   3324     1   109.5600471 388.275200
   3317   3316   3322     1   109.8000471 387.438400
   3317   3316   3318     1   107.5800459 329.699200
   3318   3316   3322     1   109.8000471 387.438400
   3320   3319   3328     1   109.7800468 425.094400
   3320   3319   3321     1   108.4600466 328.025600
   3321   3319   3328     1   109.7800468 425.094400
   3323   3322   5136     1   109.7800468 425.094400
   3323   3322   3324     1   108.4600466 328.025600
   3324   3322   5136     1   109.7800468 425.094400
   3326   3325   5150     1   109.7800468 425.094400
   3326   3325   3327     1   108.4600466 328.025600
   3327   3325   5150     1   109.7800468 425.094400
   3330   3331   3332     1   108.0100461 406.684800
   3330   3331   3333     1   108.0100461 406.684800
   3330   3334   3335     1   108.0100461 406.684800
   3330   3334   3336     1   108.0100461 406.684800
   3330   3337   3338     1   108.0100461 406.684800
   3330   3337   3339     1   108.0100461 406.684800
   3331   3330   3359     1   110.1100470 384.091200
   3331   3343   3344     1   109.8000471 387.438400
   3331   3343   3345     1   109.8000471 387.438400
   3332   3331   3343     1   110.5600475 386.601600
   3332   3331   3333     1   109.7500473 328.025600
   3333   3331   3343     1   110.5600475 386.601600
   3334   3330   3359     1   110.1100470 384.091200
   3334   3346   3347     1   109.8000471 387.438400
   3334   3346   3348     1   109.8000471 387.438400
   3335   3334   3346     1   110.5600475 386.601600
   3335   3334   3336     1   109.7500473 328.025600
   3336   3334   3346     1   110.5600475 386.601600
   3337   3330   3359     1   110.1100470 384.091200
   3337   3340   3341     1   109.8000471 387.438400
   3337   3340   3342     1   109.8000471 387.438400
   3338   3337   3340     1   110.5600475 386.601600
   3338   3337   3339     1   109.7500473 328.025600
   3339   3337   3340     1   110.5600475 386.601600
   3340   3349   3350     1   109.5600471 388.275200
   3340   3349   3351     1   109.5600471 388.275200
   3341   3340   3349     1   109.8000471 387.438400
   3341   3340   3342     1   107.5800459 329.699200
   3342   3340   3349     1   109.8000471 387.438400
   3343   3355   3356     1   109.5600471 388.275200
   3343   3355   3357     1   109.5600471 388.275200
   3344   3343   3355     1   109.8000471 387.438400
   3344   3343   3345     1   107.5800459 329.699200
   3345   3343   3355     1   109.8000471 387.438400
   3346   3352   3353     1   109.5600471 388.275200
   3346   3352   3354     1   109.5600471 388.275200
   3347   3346   3352     1   109.8000471 387.438400
   3347   3346   3348     1   107.5800459 329.699200
   3348   3346   3352     1   109.8000471 387.438400
   3350   3349   3358     1   109.7800468 425.094400
   3350   3349   3351     1   108.4600466 328.025600
   3351   3349   3358     1   109.7800468 425.094400
   3353   3352   5164     1   109.7800468 425.094400
   3353   3352   3354     1   108.4600466 328.025600
   3354   3352   5164     1   109.7800468 425.094400
   3356   3355   5178     1   109.7800468 425.094400
   3356   3355   3357     1   108.4600466 328.025600
   3357   3355   5178     1   109.7800468 425.094400
   3360   3361   3362     1   108.0100461 406.684800
   3360   3361   3363     1   108.0100461 406.684800
   3360   3364   3365     1   108.0100461 406.684800
   3360   3364   3366     1   108.0100461 406.684800
   3360   3367   3368     1   108.0100461 406.684800
   3360   3367   3369     1   108.0100461 406.684800
   3361   3360   3389     1   110.1100470 384.091200
   3361   3373   3374     1   109.8000471 387.438400
   3361   3373   3375     1   109.8000471 387.438400
   3362   3361   3373     1   110.5600475 386.601600
   3362   3361   3363     1   109.7500473 328.025600
   3363   3361   3373     1   110.5600475 386.601600
   3364   3360   3389     1   110.1100470 384.091200
   3364   3376   3377     1   109.8000471 387.438400
   3364   3376   3378     1   109.8000471 387.438400
   3365   3364   3376     1   110.5600475 386.601600
   3365   3364   3366     1   109.7500473 328.025600
   3366   3364   3376     1   110.5600475 386.601600
   3367   3360   3389     1   110.1100470 384.091200
   3367   3370   3371     1   109.8000471 387.438400
   3367   3370   3372     1   109.8000471 387.438400
   3368   3367   3370     1   110.5600475 386.601600
   3368   3367   3369     1   109.7500473 328.025600
   3369   3367   3370     1   110.5600475 386.601600
   3370   3379   3380     1   109.5600471 388.275200
   3370   3379   3381     1   109.5600471 388.275200
   3371   3370   3379     1   109.8000471 387.438400
   3371   3370   3372     1   107.5800459 329.699200
   3372   3370   3379     1   109.8000471 387.438400
   3373   3385   3386     1   109.5600471 388.275200
   3373   3385   3387     1   109.5600471 388.275200
   3374   3373   3385     1   109.8000471 387.438400
   3374   3373   3375     1   107.5800459 329.699200
   3375   3373   3385     1   109.8000471 387.438400
   3376   3382   3383     1   109.5600471 388.275200
   3376   3382   3384     1   109.5600471 388.275200
   3377   3376   3382     1   109.8000471 387.438400
   3377   3376   3378     1   107.5800459 329.699200
   3378   3376   3382     1   109.8000471 387.438400
   3380   3379   3388     1   109.7800468 425.094400
   3380   3379   3381     1   108.4600466 328.025600
   3381   3379   3388     1   109.7800468 425.094400
   3383   3382   5192     1   109.7800468 425.094400
   3383   3382   3384     1   108.4600466 328.025600
   3384   3382   5192     1   109.7800468 425.094400
   3386   3385   5206     1   109.7800468 425.094400
   3386   3385   3387     1   108.4600466 328.025600
   3387   3385   5206     1   109.7800468 425.094400
   3390   3391   3392     1   108.0100461 406.684800
   3390   3391   3393     1   108.0100461 406.684800
   3390   3394   3395     1   108.0100461 406.684800
   3390   3394   3396     1   108.0100461 406.684800
   3390   3397   3398     1   108.0100461 406.684800
   3390   3397   3399     1   108.0100461 406.684800
   3391   3390   3419     1   110.1100470 384.091200
   3391   3403   3404     1   109.8000471 387.438400
   3391   3403   3405     1   109.8000471 387.438400
   3392   3391   3403     1   110.5600475 386.601600
   3392   3391   3393     1   109.7500473 328.025600
   3393   3391   3403     1   110.5600475 386.601600
   3394   3390   3419     1   110.1100470 384.091200
   3394   3406   3407     1   109.8000471 387.438400
   3394   3406   3408     1   109.8000471 387.438400
   3395   3394   3406     1   110.5600475 386.601600
   3395   3394   3396     1   109.7500473 328.025600
   3396   3394   3406     1   110.5600475 386.601600
   3397   3390   3419     1   110.1100470 384.091200
   3397   3400   3401     1   109.8000471 387.438400
   3397   3400   3402     1   109.8000471 387.438400
   3398   3397   3400     1   110.5600475 386.601600
   3398   3397   3399     1   109.7500473 328.025600
   3399   3397   3400     1   110.5600475 386.601600
   3400   3409   3410     1   109.5600471 388.275200
   3400   3409   3411     1   109.5600471 388.275200
   3401   3400   3409     1   109.8000471 387.438400
   3401   3400   3402     1   107.5800459 329.699200
   3402   3400   3409     1   109.8000471 387.438400
   3403   3415   3416     1   109.5600471 388.275200
   3403   3415   3417     1   109.5600471 388.275200
   3404   3403   3415     1   109.8000471 387.438400
   3404   3403   3405     1   107.5800459 329.699200
   3405   3403   3415     1   109.8000471 387.438400
   3406   3412   3413     1   109.5600471 388.275200
   3406   3412   3414     1   109.5600471 388.275200
   3407   3406   3412     1   109.8000471 387.438400
   3407   3406   3408     1   107.5800459 329.699200
   3408   3406   3412     1   109.8000471 387.438400
   3410   3409   3418     1   109.7800468 425.094400
   3410   3409   3411     1   108.4600466 328.025600
   3411   3409   3418     1   109.7800468 425.094400
   3413   3412   5220     1   109.7800468 425.094400
   3413   3412   3414     1   108.4600466 328.025600
   3414   3412   5220     1   109.7800468 425.094400
   3416   3415   5234     1   109.7800468 425.094400
   3416   3415   3417     1   108.4600466 328.025600
   3417   3415   5234     1   109.7800468 425.094400
   3420   3421   3422     1   108.0100461 406.684800
   3420   3421   3423     1   108.0100461 406.684800
   3420   3424   3425     1   108.0100461 406.684800
   3420   3424   3426     1   108.0100461 406.684800
   3420   3427   3428     1   108.0100461 406.684800
   3420   3427   3429     1   108.0100461 406.684800
   3421   3420   3449     1   110.1100470 384.091200
   3421   3433   3434     1   109.8000471 387.438400
   3421   3433   3435     1   109.8000471 387.438400
   3422   3421   3433     1   110.5600475 386.601600
   3422   3421   3423     1   109.7500473 328.025600
   3423   3421   3433     1   110.5600475 386.601600
   3424   3420   3449     1   110.1100470 384.091200
   3424   3436   3437     1   109.8000471 387.438400
   3424   3436   3438     1   109.8000471 387.438400
   3425   3424   3436     1   110.5600475 386.601600
   3425   3424   3426     1   109.7500473 328.025600
   3426   3424   3436     1   110.5600475 386.601600
   3427   3420   3449     1   110.1100470 384.091200
   3427   3430   3431     1   109.8000471 387.438400
   3427   3430   3432     1   109.8000471 387.438400
   3428   3427   3430     1   110.5600475 386.601600
   3428   3427   3429     1   109.7500473 328.025600
   3429   3427   3430     1   110.5600475 386.601600
   3430   3439   3440     1   109.5600471 388.275200
   3430   3439   3441     1   109.5600471 388.275200
   3431   3430   3439     1   109.8000471 387.438400
   3431   3430   3432     1   107.5800459 329.699200
   3432   3430   3439     1   109.8000471 387.438400
   3433   3445   3446     1   109.5600471 388.275200
   3433   3445   3447     1   109.5600471 388.275200
   3434   3433   3445     1   109.8000471 387.438400
   3434   3433   3435     1   107.5800459 329.699200
   3435   3433   3445     1   109.8000471 387.438400
   3436   3442   3443     1   109.5600471 388.275200
   3436   3442   3444     1   109.5600471 388.275200
   3437   3436   3442     1   109.8000471 387.438400
   3437   3436   3438     1   107.5800459 329.699200
   3438   3436   3442     1   109.8000471 387.438400
   3440   3439   3448     1   109.7800468 425.094400
   3440   3439   3441     1   108.4600466 328.025600
   3441   3439   3448     1   109.7800468 425.094400
   3443   3442   5248     1   109.7800468 425.094400
   3443   3442   3444     1   108.4600466 328.025600
   3444   3442   5248     1   109.7800468 425.094400
   3446   3445   5262     1   109.7800468 425.094400
   3446   3445   3447     1   108.4600466 328.025600
   3447   3445   5262     1   109.7800468 425.094400
   3450   3451   3452     1   108.0100461 406.684800
   3450   3451   3453     1   108.0100461 406.684800
   3450   3454   3455     1   108.0100461 406.684800
   3450   3454   3456     1   108.0100461 406.684800
   3450   3457   3458     1   108.0100461 406.684800
   3450   3457   3459     1   108.0100461 406.684800
   3451   3450   3479     1   110.1100470 384.091200
   3451   3463   3464     1   109.8000471 387.438400
   3451   3463   3465     1   109.8000471 387.438400
   3452   3451   3463     1   110.5600475 386.601600
   3452   3451   3453     1   109.7500473 328.025600
   3453   3451   3463     1   110.5600475 386.601600
   3454   3450   3479     1   110.1100470 384.091200
   3454   3466   3467     1   109.8000471 387.438400
   3454   3466   3468     1   109.8000471 387.438400
   3455   3454   3466     1   110.5600475 386.601600
   3455   3454   3456     1   109.7500473 328.025600
   3456   3454   3466     1   110.5600475 386.601600
   3457   3450   3479     1   110.1100470 384.091200
   3457   3460   3461     1   109.8000471 387.438400
   3457   3460   3462     1   109.8000471 387.438400
   3458   3457   3460     1   110.5600475 386.601600
   3458   3457   3459     1   109.7500473 328.025600
   3459   3457   3460     1   110.5600475 386.601600
   3460   3469   3470     1   109.5600471 388.275200
   3460   3469   3471     1   109.5600471 388.275200
   3461   3460   3469     1   109.8000471 387.438400
   3461   3460   3462     1   107.5800459 329.699200
   3462   3460   3469     1   109.8000471 387.438400
   3463   3475   3476     1   109.5600471 388.275200
   3463   3475   3477     1   109.5600471 388.275200
   3464   3463   3475     1   109.8000471 387.438400
   3464   3463   3465     1   107.5800459 329.699200
   3465   3463   3475     1   109.8000471 387.438400
   3466   3472   3473     1   109.5600471 388.275200
   3466   3472   3474     1   109.5600471 388.275200
   3467   3466   3472     1   109.8000471 387.438400
   3467   3466   3468     1   107.5800459 329.699200
   3468   3466   3472     1   109.8000471 387.438400
   3470   3469   3478     1   109.7800468 425.094400
   3470   3469   3471     1   108.4600466 328.025600
   3471   3469   3478     1   109.7800468 425.094400
   3473   3472   5276     1   109.7800468 425.094400
   3473   3472   3474     1   108.4600466 328.025600
   3474   3472   5276     1   109.7800468 425.094400
   3476   3475   5290     1   109.7800468 425.094400
   3476   3475   3477     1   108.4600466 328.025600
   3477   3475   5290     1   109.7800468 425.094400
   3480   3481   3482     1   108.0100461 406.684800
   3480   3481   3483     1   108.0100461 406.684800
   3480   3484   3485     1   108.0100461 406.684800
   3480   3484   3486     1   108.0100461 406.684800
   3480   3487   3488     1   108.0100461 406.684800
   3480   3487   3489     1   108.0100461 406.684800
   3481   3480   3509     1   110.1100470 384.091200
   3481   3493   3494     1   109.8000471 387.438400
   3481   3493   3495     1   109.8000471 387.438400
   3482   3481   3493     1   110.5600475 386.601600
   3482   3481   3483     1   109.7500473 328.025600
   3483   3481   3493     1   110.5600475 386.601600
   3484   3480   3509     1   110.1100470 384.091200
   3484   3496   3497     1   109.8000471 387.438400
   3484   3496   3498     1   109.8000471 387.438400
   3485   3484   3496     1   110.5600475 386.601600
   3485   3484   3486     1   109.7500473 328.025600
   3486   3484   3496     1   110.5600475 386.601600
   3487   3480   3509     1   110.1100470 384.091200
   3487   3490   3491     1   109.8000471 387.438400
   3487   3490   3492     1   109.8000471 387.438400
   3488   3487   3490     1   110.5600475 386.601600
   3488   3487   3489     1   109.7500473 328.025600
   3489   3487   3490     1   110.5600475 386.601600
   3490   3499   3500     1   109.5600471 388.275200
   3490   3499   3501     1   109.5600471 388.275200
   3491   3490   3499     1   109.8000471 387.438400
   3491   3490   3492     1   107.5800459 329.699200
   3492   3490   3499     1   109.8000471 387.438400
   3493   3505   3506     1   109.5600471 388.275200
   3493   3505   3507     1   109.5600471 388.275200
   3494   3493   3505     1   109.8000471 387.438400
   3494   3493   3495     1   107.5800459 329.699200
   3495   3493   3505     1   109.8000471 387.438400
   3496   3502   3503     1   109.5600471 388.275200
   3496   3502   3504     1   109.5600471 388.275200
   3497   3496   3502     1   109.8000471 387.438400
   3497   3496   3498     1   107.5800459 329.699200
   3498   3496   3502     1   109.8000471 387.438400
   3500   3499   3508     1   109.7800468 425.094400
   3500   3499   3501     1   108.4600466 328.025600
   3501   3499   3508     1   109.7800468 425.094400
   3503   3502   5304     1   109.7800468 425.094400
   3503   3502   3504     1   108.4600466 328.025600
   3504   3502   5304     1   109.7800468 425.094400
   3506   3505   5318     1   109.7800468 425.094400
   3506   3505   3507     1   108.4600466 328.025600
   3507   3505   5318     1   109.7800468 425.094400
   3510   3511   3512     1   108.0100461 406.684800
   3510   3511   3513     1   108.0100461 406.684800
   3510   3514   3515     1   108.0100461 406.684800
   3510   3514   3516     1   108.0100461 406.684800
   3510   3517   3518     1   108.0100461 406.684800
   3510   3517   3519     1   108.0100461 406.684800
   3511   3510   3539     1   110.1100470 384.091200
   3511   3523   3524     1   109.8000471 387.438400
   3511   3523   3525     1   109.8000471 387.438400
   3512   3511   3523     1   110.5600475 386.601600
   3512   3511   3513     1   109.7500473 328.025600
   3513   3511   3523     1   110.5600475 386.601600
   3514   3510   3539     1   110.1100470 384.091200
   3514   3526   3527     1   109.8000471 387.438400
   3514   3526   3528     1   109.8000471 387.438400
   3515   3514   3526     1   110.5600475 386.601600
   3515   3514   3516     1   109.7500473 328.025600
   3516   3514   3526     1   110.5600475 386.601600
   3517   3510   3539     1   110.1100470 384.091200
   3517   3520   3521     1   109.8000471 387.438400
   3517   3520   3522     1   109.8000471 387.438400
   3518   3517   3520     1   110.5600475 386.601600
   3518   3517   3519     1   109.7500473 328.025600
   3519   3517   3520     1   110.5600475 386.601600
   3520   3529   3530     1   109.5600471 388.275200
   3520   3529   3531     1   109.5600471 388.275200
   3521   3520   3529     1   109.8000471 387.438400
   3521   3520   3522     1   107.5800459 329.699200
   3522   3520   3529     1   109.8000471 387.438400
   3523   3535   3536     1   109.5600471 388.275200
   3523   3535   3537     1   109.5600471 388.275200
   3524   3523   3535     1   109.8000471 387.438400
   3524   3523   3525     1   107.5800459 329.699200
   3525   3523   3535     1   109.8000471 387.438400
   3526   3532   3533     1   109.5600471 388.275200
   3526   3532   3534     1   109.5600471 388.275200
   3527   3526   3532     1   109.8000471 387.438400
   3527   3526   3528     1   107.5800459 329.699200
   3528   3526   3532     1   109.8000471 387.438400
   3530   3529   3538     1   109.7800468 425.094400
   3530   3529   3531     1   108.4600466 328.025600
   3531   3529   3538     1   109.7800468 425.094400
   3533   3532   5332     1   109.7800468 425.094400
   3533   3532   3534     1   108.4600466 328.025600
   3534   3532   5332     1   109.7800468 425.094400
   3536   3535   5346     1   109.7800468 425.094400
   3536   3535   3537     1   108.4600466 328.025600
   3537   3535   5346     1   109.7800468 425.094400
   3540   3541   3542     1   108.0100461 406.684800
   3540   3541   3543     1   108.0100461 406.684800
   3540   3544   3545     1   108.0100461 406.684800
   3540   3544   3546     1   108.0100461 406.684800
   3540   3547   3548     1   108.0100461 406.684800
   3540   3547   3549     1   108.0100461 406.684800
   3541   3540   3569     1   110.1100470 384.091200
   3541   3553   3554     1   109.8000471 387.438400
   3541   3553   3555     1   109.8000471 387.438400
   3542   3541   3553     1   110.5600475 386.601600
   3542   3541   3543     1   109.7500473 328.025600
   3543   3541   3553     1   110.5600475 386.601600
   3544   3540   3569     1   110.1100470 384.091200
   3544   3556   3557     1   109.8000471 387.438400
   3544   3556   3558     1   109.8000471 387.438400
   3545   3544   3556     1   110.5600475 386.601600
   3545   3544   3546     1   109.7500473 328.025600
   3546   3544   3556     1   110.5600475 386.601600
   3547   3540   3569     1   110.1100470 384.091200
   3547   3550   3551     1   109.8000471 387.438400
   3547   3550   3552     1   109.8000471 387.438400
   3548   3547   3550     1   110.5600475 386.601600
   3548   3547   3549     1   109.7500473 328.025600
   3549   3547   3550     1   110.5600475 386.601600
   3550   3559   3560     1   109.5600471 388.275200
   3550   3559   3561     1   109.5600471 388.275200
   3551   3550   3559     1   109.8000471 387.438400
   3551   3550   3552     1   107.5800459 329.699200
   3552   3550   3559     1   109.8000471 387.438400
   3553   3565   3566     1   109.5600471 388.275200
   3553   3565   3567     1   109.5600471 388.275200
   3554   3553   3565     1   109.8000471 387.438400
   3554   3553   3555     1   107.5800459 329.699200
   3555   3553   3565     1   109.8000471 387.438400
   3556   3562   3563     1   109.5600471 388.275200
   3556   3562   3564     1   109.5600471 388.275200
   3557   3556   3562     1   109.8000471 387.438400
   3557   3556   3558     1   107.5800459 329.699200
   3558   3556   3562     1   109.8000471 387.438400
   3560   3559   3568     1   109.7800468 425.094400
   3560   3559   3561     1   108.4600466 328.025600
   3561   3559   3568     1   109.7800468 425.094400
   3563   3562   5360     1   109.7800468 425.094400
   3563   3562   3564     1   108.4600466 328.025600
   3564   3562   5360     1   109.7800468 425.094400
   3566   3565   5374     1   109.7800468 425.094400
   3566   3565   3567     1   108.4600466 328.025600
   3567   3565   5374     1   109.7800468 425.094400
   3570   3571   3572     1   108.0100461 406.684800
   3570   3571   3573     1   108.0100461 406.684800
   3570   3574   3575     1   108.0100461 406.684800
   3570   3574   3576     1   108.0100461 406.684800
   3570   3577   3578     1   108.0100461 406.684800
   3570   3577   3579     1   108.0100461 406.684800
   3571   3570   3599     1   110.1100470 384.091200
   3571   3583   3584     1   109.8000471 387.438400
   3571   3583   3585     1   109.8000471 387.438400
   3572   3571   3583     1   110.5600475 386.601600
   3572   3571   3573     1   109.7500473 328.025600
   3573   3571   3583     1   110.5600475 386.601600
   3574   3570   3599     1   110.1100470 384.091200
   3574   3586   3587     1   109.8000471 387.438400
   3574   3586   3588     1   109.8000471 387.438400
   3575   3574   3586     1   110.5600475 386.601600
   3575   3574   3576     1   109.7500473 328.025600
   3576   3574   3586     1   110.5600475 386.601600
   3577   3570   3599     1   110.1100470 384.091200
   3577   3580   3581     1   109.8000471 387.438400
   3577   3580   3582     1   109.8000471 387.438400
   3578   3577   3580     1   110.5600475 386.601600
   3578   3577   3579     1   109.7500473 328.025600
   3579   3577   3580     1   110.5600475 386.601600
   3580   3589   3590     1   109.5600471 388.275200
   3580   3589   3591     1   109.5600471 388.275200
   3581   3580   3589     1   109.8000471 387.438400
   3581   3580   3582     1   107.5800459 329.699200
   3582   3580   3589     1   109.8000471 387.438400
   3583   3595   3596     1   109.5600471 388.275200
   3583   3595   3597     1   109.5600471 388.275200
   3584   3583   3595     1   109.8000471 387.438400
   3584   3583   3585     1   107.5800459 329.699200
   3585   3583   3595     1   109.8000471 387.438400
   3586   3592   3593     1   109.5600471 388.275200
   3586   3592   3594     1   109.5600471 388.275200
   3587   3586   3592     1   109.8000471 387.438400
   3587   3586   3588     1   107.5800459 329.699200
   3588   3586   3592     1   109.8000471 387.438400
   3590   3589   3598     1   109.7800468 425.094400
   3590   3589   3591     1   108.4600466 328.025600
   3591   3589   3598     1   109.7800468 425.094400
   3593   3592   5388     1   109.7800468 425.094400
   3593   3592   3594     1   108.4600466 328.025600
   3594   3592   5388     1   109.7800468 425.094400
   3596   3595   5402     1   109.7800468 425.094400
   3596   3595   3597     1   108.4600466 328.025600
   3597   3595   5402     1   109.7800468 425.094400
   3600   3601   3602     1   108.0100461 406.684800
   3600   3601   3603     1   108.0100461 406.684800
   3600   3604   3605     1   108.0100461 406.684800
   3600   3604   3606     1   108.0100461 406.684800
   3600   3607   3608     1   108.0100461 406.684800
   3600   3607   3609     1   108.0100461 406.684800
   3601   3600   3629     1   110.1100470 384.091200
   3601   3613   3614     1   109.8000471 387.438400
   3601   3613   3615     1   109.8000471 387.438400
   3602   3601   3613     1   110.5600475 386.601600
   3602   3601   3603     1   109.7500473 328.025600
   3603   3601   3613     1   110.5600475 386.601600
   3604   3600   3629     1   110.1100470 384.091200
   3604   3616   3617     1   109.8000471 387.438400
   3604   3616   3618     1   109.8000471 387.438400
   3605   3604   3616     1   110.5600475 386.601600
   3605   3604   3606     1   109.7500473 328.025600
   3606   3604   3616     1   110.5600475 386.601600
   3607   3600   3629     1   110.1100470 384.091200
   3607   3610   3611     1   109.8000471 387.438400
   3607   3610   3612     1   109.8000471 387.438400
   3608   3607   3610     1   110.5600475 386.601600
   3608   3607   3609     1   109.7500473 328.025600
   3609   3607   3610     1   110.5600475 386.601600
   3610   3619   3620     1   109.5600471 388.275200
   3610   3619   3621     1   109.5600471 388.275200
   3611   3610   3619     1   109.8000471 387.438400
   3611   3610   3612     1   107.5800459 329.699200
   3612   3610   3619     1   109.8000471 387.438400
   3613   3625   3626     1   109.5600471 388.275200
   3613   3625   3627     1   109.5600471 388.275200
   3614   3613   3625     1   109.8000471 387.438400
   3614   3613   3615     1   107.5800459 329.699200
   3615   3613   3625     1   109.8000471 387.438400
   3616   3622   3623     1   109.5600471 388.275200
   3616   3622   3624     1   109.5600471 388.275200
   3617   3616   3622     1   109.8000471 387.438400
   3617   3616   3618     1   107.5800459 329.699200
   3618   3616   3622     1   109.8000471 387.438400
   3620   3619   3628     1   109.7800468 425.094400
   3620   3619   3621     1   108.4600466 328.025600
   3621   3619   3628     1   109.7800468 425.094400
   3623   3622   5416     1   109.7800468 425.094400
   3623   3622   3624     1   108.4600466 328.025600
   3624   3622   5416     1   109.7800468 425.094400
   3626   3625   5430     1   109.7800468 425.094400
   3626   3625   3627     1   108.4600466 328.025600
   3627   3625   5430     1   109.7800468 425.094400
   3630   3631   3632     1   108.0100461 406.684800
   3630   3631   3633     1   108.0100461 406.684800
   3630   3634   3635     1   108.0100461 406.684800
   3630   3634   3636     1   108.0100461 406.684800
   3630   3637   3638     1   108.0100461 406.684800
   3630   3637   3639     1   108.0100461 406.684800
   3631   3630   3659     1   110.1100470 384.091200
   3631   3643   3644     1   109.8000471 387.438400
   3631   3643   3645     1   109.8000471 387.438400
   3632   3631   3643     1   110.5600475 386.601600
   3632   3631   3633     1   109.7500473 328.025600
   3633   3631   3643     1   110.5600475 386.601600
   3634   3630   3659     1   110.1100470 384.091200
   3634   3646   3647     1   109.8000471 387.438400
   3634   3646   3648     1   109.8000471 387.438400
   3635   3634   3646     1   110.5600475 386.601600
   3635   3634   3636     1   109.7500473 328.025600
   3636   3634   3646     1   110.5600475 386.601600
   3637   3630   3659     1   110.1100470 384.091200
   3637   3640   3641     1   109.8000471 387.438400
   3637   3640   3642     1   109.8000471 387.438400
   3638   3637   3640     1   110.5600475 386.601600
   3638   3637   3639     1   109.7500473 328.025600
   3639   3637   3640     1   110.5600475 386.601600
   3640   3649   3650     1   109.5600471 388.275200
   3640   3649   3651     1   109.5600471 388.275200
   3641   3640   3649     1   109.8000471 387.438400
   3641   3640   3642     1   107.5800459 329.699200
   3642   3640   3649     1   109.8000471 387.438400
   3643   3655   3656     1   109.5600471 388.275200
   3643   3655   3657     1   109.5600471 388.275200
   3644   3643   3655     1   109.8000471 387.438400
   3644   3643   3645     1   107.5800459 329.699200
   3645   3643   3655     1   109.8000471 387.438400
   3646   3652   3653     1   109.5600471 388.275200
   3646   3652   3654     1   109.5600471 388.275200
   3647   3646   3652     1   109.8000471 387.438400
   3647   3646   3648     1   107.5800459 329.699200
   3648   3646   3652     1   109.8000471 387.438400
   3650   3649   3658     1   109.7800468 425.094400
   3650   3649   3651     1   108.4600466 328.025600
   3651   3649   3658     1   109.7800468 425.094400
   3653   3652   5444     1   109.7800468 425.094400
   3653   3652   3654     1   108.4600466 328.025600
   3654   3652   5444     1   109.7800468 425.094400
   3656   3655   5458     1   109.7800468 425.094400
   3656   3655   3657     1   108.4600466 328.025600
   3657   3655   5458     1   109.7800468 425.094400
   3660   3661   3662     1   108.0100461 406.684800
   3660   3661   3663     1   108.0100461 406.684800
   3660   3664   3665     1   108.0100461 406.684800
   3660   3664   3666     1   108.0100461 406.684800
   3660   3667   3668     1   108.0100461 406.684800
   3660   3667   3669     1   108.0100461 406.684800
   3661   3660   3689     1   110.1100470 384.091200
   3661   3673   3674     1   109.8000471 387.438400
   3661   3673   3675     1   109.8000471 387.438400
   3662   3661   3673     1   110.5600475 386.601600
   3662   3661   3663     1   109.7500473 328.025600
   3663   3661   3673     1   110.5600475 386.601600
   3664   3660   3689     1   110.1100470 384.091200
   3664   3676   3677     1   109.8000471 387.438400
   3664   3676   3678     1   109.8000471 387.438400
   3665   3664   3676     1   110.5600475 386.601600
   3665   3664   3666     1   109.7500473 328.025600
   3666   3664   3676     1   110.5600475 386.601600
   3667   3660   3689     1   110.1100470 384.091200
   3667   3670   3671     1   109.8000471 387.438400
   3667   3670   3672     1   109.8000471 387.438400
   3668   3667   3670     1   110.5600475 386.601600
   3668   3667   3669     1   109.7500473 328.025600
   3669   3667   3670     1   110.5600475 386.601600
   3670   3679   3680     1   109.5600471 388.275200
   3670   3679   3681     1   109.5600471 388.275200
   3671   3670   3679     1   109.8000471 387.438400
   3671   3670   3672     1   107.5800459 329.699200
   3672   3670   3679     1   109.8000471 387.438400
   3673   3685   3686     1   109.5600471 388.275200
   3673   3685   3687     1   109.5600471 388.275200
   3674   3673   3685     1   109.8000471 387.438400
   3674   3673   3675     1   107.5800459 329.699200
   3675   3673   3685     1   109.8000471 387.438400
   3676   3682   3683     1   109.5600471 388.275200
   3676   3682   3684     1   109.5600471 388.275200
   3677   3676   3682     1   109.8000471 387.438400
   3677   3676   3678     1   107.5800459 329.699200
   3678   3676   3682     1   109.8000471 387.438400
   3680   3679   3688     1   109.7800468 425.094400
   3680   3679   3681     1   108.4600466 328.025600
   3681   3679   3688     1   109.7800468 425.094400
   3683   3682   5472     1   109.7800468 425.094400
   3683   3682   3684     1   108.4600466 328.025600
   3684   3682   5472     1   109.7800468 425.094400
   3686   3685   5486     1   109.7800468 425.094400
   3686   3685   3687     1   108.4600466 328.025600
   3687   3685   5486     1   109.7800468 425.094400
   3690   3691   3692     1   108.0100461 406.684800
   3690   3691   3693     1   108.0100461 406.684800
   3690   3694   3695     1   108.0100461 406.684800
   3690   3694   3696     1   108.0100461 406.684800
   3690   3697   3698     1   108.0100461 406.684800
   3690   3697   3699     1   108.0100461 406.684800
   3691   3690   3719     1   110.1100470 384.091200
   3691   3703   3704     1   109.8000471 387.438400
   3691   3703   3705     1   109.8000471 387.438400
   3692   3691   3703     1   110.5600475 386.601600
   3692   3691   3693     1   109.7500473 328.025600
   3693   3691   3703     1   110.5600475 386.601600
   3694   3690   3719     1   110.1100470 384.091200
   3694   3706   3707     1   109.8000471 387.438400
   3694   3706   3708     1   109.8000471 387.438400
   3695   3694   3706     1   110.5600475 386.601600
   3695   3694   3696     1   109.7500473 328.025600
   3696   3694   3706     1   110.5600475 386.601600
   3697   3690   3719     1   110.1100470 384.091200
   3697   3700   3701     1   109.8000471 387.438400
   3697   3700   3702     1   109.8000471 387.438400
   3698   3697   3700     1   110.5600475 386.601600
   3698   3697   3699     1   109.7500473 328.025600
   3699   3697   3700     1   110.5600475 386.601600
   3700   3709   3710     1   109.5600471 388.275200
   3700   3709   3711     1   109.5600471 388.275200
   3701   3700   3709     1   109.8000471 387.438400
   3701   3700   3702     1   107.5800459 329.699200
   3702   3700   3709     1   109.8000471 387.438400
   3703   3715   3716     1   109.5600471 388.275200
   3703   3715   3717     1   109.5600471 388.275200
   3704   3703   3715     1   109.8000471 387.438400
   3704   3703   3705     1   107.5800459 329.699200
   3705   3703   3715     1   109.8000471 387.438400
   3706   3712   3713     1   109.5600471 388.275200
   3706   3712   3714     1   109.5600471 388.275200
   3707   3706   3712     1   109.8000471 387.438400
   3707   3706   3708     1   107.5800459 329.699200
   3708   3706   3712     1   109.8000471 387.438400
   3710   3709   3718     1   109.7800468 425.094400
   3710   3709   3711     1   108.4600466 328.025600
   3711   3709   3718     1   109.7800468 425.094400
   3713   3712   5500     1   109.7800468 425.094400
   3713   3712   3714     1   108.4600466 328.025600
   3714   3712   5500     1   109.7800468 425.094400
   3716   3715   5514     1   109.7800468 425.094400
   3716   3715   3717     1   108.4600466 328.025600
   3717   3715   5514     1   109.7800468 425.094400
   3720   3721   3722     1   108.0100461 406.684800
   3720   3721   3723     1   108.0100461 406.684800
   3720   3724   3725     1   108.0100461 406.684800
   3720   3724   3726     1   108.0100461 406.684800
   3720   3727   3728     1   108.0100461 406.684800
   3720   3727   3729     1   108.0100461 406.684800
   3721   3720   3749     1   110.1100470 384.091200
   3721   3733   3734     1   109.8000471 387.438400
   3721   3733   3735     1   109.8000471 387.438400
   3722   3721   3733     1   110.5600475 386.601600
   3722   3721   3723     1   109.7500473 328.025600
   3723   3721   3733     1   110.5600475 386.601600
   3724   3720   3749     1   110.1100470 384.091200
   3724   3736   3737     1   109.8000471 387.438400
   3724   3736   3738     1   109.8000471 387.438400
   3725   3724   3736     1   110.5600475 386.601600
   3725   3724   3726     1   109.7500473 328.025600
   3726   3724   3736     1   110.5600475 386.601600
   3727   3720   3749     1   110.1100470 384.091200
   3727   3730   3731     1   109.8000471 387.438400
   3727   3730   3732     1   109.8000471 387.438400
   3728   3727   3730     1   110.5600475 386.601600
   3728   3727   3729     1   109.7500473 328.025600
   3729   3727   3730     1   110.5600475 386.601600
   3730   3739   3740     1   109.5600471 388.275200
   3730   3739   3741     1   109.5600471 388.275200
   3731   3730   3739     1   109.8000471 387.438400
   3731   3730   3732     1   107.5800459 329.699200
   3732   3730   3739     1   109.8000471 387.438400
   3733   3745   3746     1   109.5600471 388.275200
   3733   3745   3747     1   109.5600471 388.275200
   3734   3733   3745     1   109.8000471 387.438400
   3734   3733   3735     1   107.5800459 329.699200
   3735   3733   3745     1   109.8000471 387.438400
   3736   3742   3743     1   109.5600471 388.275200
   3736   3742   3744     1   109.5600471 388.275200
   3737   3736   3742     1   109.8000471 387.438400
   3737   3736   3738     1   107.5800459 329.699200
   3738   3736   3742     1   109.8000471 387.438400
   3740   3739   3748     1   109.7800468 425.094400
   3740   3739   3741     1   108.4600466 328.025600
   3741   3739   3748     1   109.7800468 425.094400
   3743   3742   5528     1   109.7800468 425.094400
   3743   3742   3744     1   108.4600466 328.025600
   3744   3742   5528     1   109.7800468 425.094400
   3746   3745   5542     1   109.7800468 425.094400
   3746   3745   3747     1   108.4600466 328.025600
   3747   3745   5542     1   109.7800468 425.094400
   3750   3751   3752     1   108.0100461 406.684800
   3750   3751   3753     1   108.0100461 406.684800
   3750   3754   3755     1   108.0100461 406.684800
   3750   3754   3756     1   108.0100461 406.684800
   3750   3757   3758     1   108.0100461 406.684800
   3750   3757   3759     1   108.0100461 406.684800
   3751   3750   3779     1   110.1100470 384.091200
   3751   3763   3764     1   109.8000471 387.438400
   3751   3763   3765     1   109.8000471 387.438400
   3752   3751   3763     1   110.5600475 386.601600
   3752   3751   3753     1   109.7500473 328.025600
   3753   3751   3763     1   110.5600475 386.601600
   3754   3750   3779     1   110.1100470 384.091200
   3754   3766   3767     1   109.8000471 387.438400
   3754   3766   3768     1   109.8000471 387.438400
   3755   3754   3766     1   110.5600475 386.601600
   3755   3754   3756     1   109.7500473 328.025600
   3756   3754   3766     1   110.5600475 386.601600
   3757   3750   3779     1   110.1100470 384.091200
   3757   3760   3761     1   109.8000471 387.438400
   3757   3760   3762     1   109.8000471 387.438400
   3758   3757   3760     1   110.5600475 386.601600
   3758   3757   3759     1   109.7500473 328.025600
   3759   3757   3760     1   110.5600475 386.601600
   3760   3769   3770     1   109.5600471 388.275200
   3760   3769   3771     1   109.5600471 388.275200
   3761   3760   3769     1   109.8000471 387.438400
   3761   3760   3762     1   107.5800459 329.699200
   3762   3760   3769     1   109.8000471 387.438400
   3763   3775   3776     1   109.5600471 388.275200
   3763   3775   3777     1   109.5600471 388.275200
   3764   3763   3775     1   109.8000471 387.438400
   3764   3763   3765     1   107.5800459 329.699200
   3765   3763   3775     1   109.8000471 387.438400
   3766   3772   3773     1   109.5600471 388.275200
   3766   3772   3774     1   109.5600471 388.275200
   3767   3766   3772     1   109.8000471 387.438400
   3767   3766   3768     1   107.5800459 329.699200
   3768   3766   3772     1   109.8000471 387.438400
   3770   3769   3778     1   109.7800468 425.094400
   3770   3769   3771     1   108.4600466 328.025600
   3771   3769   3778     1   109.7800468 425.094400
   3773   3772   5556     1   109.7800468 425.094400
   3773   3772   3774     1   108.4600466 328.025600
   3774   3772   5556     1   109.7800468 425.094400
   3776   3775   5570     1   109.7800468 425.094400
   3776   3775   3777     1   108.4600466 328.025600
   3777   3775   5570     1   109.7800468 425.094400
   3780   3783   3784     1   109.8000471 387.438400
   3780   3783   3785     1   109.8000471 387.438400
   3780   3789   3790     1   110.1100470 384.091200
   3780   3789   3791     1   110.1100470 384.091200
   3780   3789   3793     1   110.1100470 384.091200
   3781   3780   3783     1   110.5600475 386.601600
   3781   3780   3789     1   108.0100461 406.684800
   3781   3780   3782     1   109.7500473 328.025600
   3782   3780   3783     1   110.5600475 386.601600
   3782   3780   3789     1   108.0100461 406.684800
   3783   3786   3787     1   109.5600471 388.275200
   3783   3786   3788     1   109.5600471 388.275200
   3784   3783   3786     1   109.8000471 387.438400
   3784   3783   3785     1   107.5800459 329.699200
   3785   3783   3786     1   109.8000471 387.438400
   3787   3786   3792     1   109.7800468 425.094400
   3787   3786   3788     1   108.4600466 328.025600
   3788   3786   3792     1   109.7800468 425.094400
   3790   3789   3791     1   108.3000464 339.740800
   3790   3789   3793     1   108.3000464 339.740800
   3791   3789   3793     1   108.3000464 339.740800
   3794   3797   3798     1   109.8000471 387.438400
   3794   3797   3799     1   109.8000471 387.438400
   3794   3803   3804     1   110.1100470 384.091200
   3794   3803   3805     1   110.1100470 384.091200
   3794   3803   3807     1   110.1100470 384.091200
   3795   3794   3797     1   110.5600475 386.601600
   3795   3794   3803     1   108.0100461 406.684800
   3795   3794   3796     1   109.7500473 328.025600
   3796   3794   3797     1   110.5600475 386.601600
   3796   3794   3803     1   108.0100461 406.684800
   3797   3800   3801     1   109.5600471 388.275200
   3797   3800   3802     1   109.5600471 388.275200
   3798   3797   3800     1   109.8000471 387.438400
   3798   3797   3799     1   107.5800459 329.699200
   3799   3797   3800     1   109.8000471 387.438400
   3801   3800   3806     1   109.7800468 425.094400
   3801   3800   3802     1   108.4600466 328.025600
   3802   3800   3806     1   109.7800468 425.094400
   3804   3803   3805     1   108.3000464 339.740800
   3804   3803   3807     1   108.3000464 339.740800
   3805   3803   3807     1   108.3000464 339.740800
   3808   3811   3812     1   109.8000471 387.438400
   3808   3811   3813     1   109.8000471 387.438400
   3808   3817   3818     1   110.1100470 384.091200
   3808   3817   3819     1   110.1100470 384.091200
   3808   3817   3821     1   110.1100470 384.091200
   3809   3808   3811     1   110.5600475 386.601600
   3809   3808   3817     1   108.0100461 406.684800
   3809   3808   3810     1   109.7500473 328.025600
   3810   3808   3811     1   110.5600475 386.601600
   3810   3808   3817     1   108.0100461 406.684800
   3811   3814   3815     1   109.5600471 388.275200
   3811   3814   3816     1   109.5600471 388.275200
   3812   3811   3814     1   109.8000471 387.438400
   3812   3811   3813     1   107.5800459 329.699200
   3813   3811   3814     1   109.8000471 387.438400
   3815   3814   3820     1   109.7800468 425.094400
   3815   3814   3816     1   108.4600466 328.025600
   3816   3814   3820     1   109.7800468 425.094400
   3818   3817   3819     1   108.3000464 339.740800
   3818   3817   3821     1   108.3000464 339.740800
   3819   3817   3821     1   108.3000464 339.740800
   3822   3825   3826     1   109.8000471 387.438400
   3822   3825   3827     1   109.8000471 387.438400
   3822   3831   3832     1   110.1100470 384.091200
   3822   3831   3833     1   110.1100470 384.091200
   3822   3831   3835     1   110.1100470 384.091200
   3823   3822   3825     1   110.5600475 386.601600
   3823   3822   3831     1   108.0100461 406.684800
   3823   3822   3824     1   109.7500473 328.025600
   3824   3822   3825     1   110.5600475 386.601600
   3824   3822   3831     1   108.0100461 406.684800
   3825   3828   3829     1   109.5600471 388.275200
   3825   3828   3830     1   109.5600471 388.275200
   3826   3825   3828     1   109.8000471 387.438400
   3826   3825   3827     1   107.5800459 329.699200
   3827   3825   3828     1   109.8000471 387.438400
   3829   3828   3834     1   109.7800468 425.094400
   3829   3828   3830     1   108.4600466 328.025600
   3830   3828   3834     1   109.7800468 425.094400
   3832   3831   3833     1   108.3000464 339.740800
   3832   3831   3835     1   108.3000464 339.740800
   3833   3831   3835     1   108.3000464 339.740800
   3836   3839   3840     1   109.8000471 387.438400
   3836   3839   3841     1   109.8000471 387.438400
   3836   3845   3846     1   110.1100470 384.091200
   3836   3845   3847     1   110.1100470 384.091200
   3836   3845   3849     1   110.1100470 384.091200
   3837   3836   3839     1   110.5600475 386.601600
   3837   3836   3845     1   108.0100461 406.684800
   3837   3836   3838     1   109.7500473 328.025600
   3838   3836   3839     1   110.5600475 386.601600
   3838   3836   3845     1   108.0100461 406.684800
   3839   3842   3843     1   109.5600471 388.275200
   3839   3842   3844     1   109.5600471 388.275200
   3840   3839   3842     1   109.8000471 387.438400
   3840   3839   3841     1   107.5800459 329.699200
   3841   3839   3842     1   109.8000471 387.438400
   3843   3842   3848     1   109.7800468 425.094400
   3843   3842   3844     1   108.4600466 328.025600
   3844   3842   3848     1   109.7800468 425.094400
   3846   3845   3847     1   108.3000464 339.740800
   3846   3845   3849     1   108.3000464 339.740800
   3847   3845   3849     1   108.3000464 339.740800
   3850   3853   3854     1   109.8000471 387.438400
   3850   3853   3855     1   109.8000471 387.438400
   3850   3859   3860     1   110.1100470 384.091200
   3850   3859   3861     1   110.1100470 384.091200
   3850   3859   3863     1   110.1100470 384.091200
   3851   3850   3853     1   110.5600475 386.601600
   3851   3850   3859     1   108.0100461 406.684800
   3851   3850   3852     1   109.7500473 328.025600
   3852   3850   3853     1   110.5600475 386.601600
   3852   3850   3859     1   108.0100461 406.684800
   3853   3856   3857     1   109.5600471 388.275200
   3853   3856   3858     1   109.5600471 388.275200
   3854   3853   3856     1   109.8000471 387.438400
   3854   3853   3855     1   107.5800459 329.699200
   3855   3853   3856     1   109.8000471 387.438400
   3857   3856   3862     1   109.7800468 425.094400
   3857   3856   3858     1   108.4600466 328.025600
   3858   3856   3862     1   109.7800468 425.094400
   3860   3859   3861     1   108.3000464 339.740800
   3860   3859   3863     1   108.3000464 339.740800
   3861   3859   3863     1   108.3000464 339.740800
   3864   3867   3868     1   109.8000471 387.438400
   3864   3867   3869     1   109.8000471 387.438400
   3864   3873   3874     1   110.1100470 384.091200
   3864   3873   3875     1   110.1100470 384.091200
   3864   3873   3877     1   110.1100470 384.091200
   3865   3864   3867     1   110.5600475 386.601600
   3865   3864   3873     1   108.0100461 406.684800
   3865   3864   3866     1   109.7500473 328.025600
   3866   3864   3867     1   110.5600475 386.601600
   3866   3864   3873     1   108.0100461 406.684800
   3867   3870   3871     1   109.5600471 388.275200
   3867   3870   3872     1   109.5600471 388.275200
   3868   3867   3870     1   109.8000471 387.438400
   3868   3867   3869     1   107.5800459 329.699200
   3869   3867   3870     1   109.8000471 387.438400
   3871   3870   3876     1   109.7800468 425.094400
   3871   3870   3872     1   108.4600466 328.025600
   3872   3870   3876     1   109.7800468 425.094400
   3874   3873   3875     1   108.3000464 339.740800
   3874   3873   3877     1   108.3000464 339.740800
   3875   3873   3877     1   108.3000464 339.740800
   3878   3881   3882     1   109.8000471 387.438400
   3878   3881   3883     1   109.8000471 387.438400
   3878   3887   3888     1   110.1100470 384.091200
   3878   3887   3889     1   110.1100470 384.091200
   3878   3887   3891     1   110.1100470 384.091200
   3879   3878   3881     1   110.5600475 386.601600
   3879   3878   3887     1   108.0100461 406.684800
   3879   3878   3880     1   109.7500473 328.025600
   3880   3878   3881     1   110.5600475 386.601600
   3880   3878   3887     1   108.0100461 406.684800
   3881   3884   3885     1   109.5600471 388.275200
   3881   3884   3886     1   109.5600471 388.275200
   3882   3881   3884     1   109.8000471 387.438400
   3882   3881   3883     1   107.5800459 329.699200
   3883   3881   3884     1   109.8000471 387.438400
   3885   3884   3890     1   109.7800468 425.094400
   3885   3884   3886     1   108.4600466 328.025600
   3886   3884   3890     1   109.7800468 425.094400
   3888   3887   3889     1   108.3000464 339.740800
   3888   3887   3891     1   108.3000464 339.740800
   3889   3887   3891     1   108.3000464 339.740800
   3892   3895   3896     1   109.8000471 387.438400
   3892   3895   3897     1   109.8000471 387.438400
   3892   3901   3902     1   110.1100470 384.091200
   3892   3901   3903     1   110.1100470 384.091200
   3892   3901   3905     1   110.1100470 384.091200
   3893   3892   3895     1   110.5600475 386.601600
   3893   3892   3901     1   108.0100461 406.684800
   3893   3892   3894     1   109.7500473 328.025600
   3894   3892   3895     1   110.5600475 386.601600
   3894   3892   3901     1   108.0100461 406.684800
   3895   3898   3899     1   109.5600471 388.275200
   3895   3898   3900     1   109.5600471 388.275200
   3896   3895   3898     1   109.8000471 387.438400
   3896   3895   3897     1   107.5800459 329.699200
   3897   3895   3898     1   109.8000471 387.438400
   3899   3898   3904     1   109.7800468 425.094400
   3899   3898   3900     1   108.4600466 328.025600
   3900   3898   3904     1   109.7800468 425.094400
   3902   3901   3903     1   108.3000464 339.740800
   3902   3901   3905     1   108.3000464 339.740800
   3903   3901   3905     1   108.3000464 339.740800
   3906   3909   3910     1   109.8000471 387.438400
   3906   3909   3911     1   109.8000471 387.438400
   3906   3915   3916     1   110.1100470 384.091200
   3906   3915   3917     1   110.1100470 384.091200
   3906   3915   3919     1   110.1100470 384.091200
   3907   3906   3909     1   110.5600475 386.601600
   3907   3906   3915     1   108.0100461 406.684800
   3907   3906   3908     1   109.7500473 328.025600
   3908   3906   3909     1   110.5600475 386.601600
   3908   3906   3915     1   108.0100461 406.684800
   3909   3912   3913     1   109.5600471 388.275200
   3909   3912   3914     1   109.5600471 388.275200
   3910   3909   3912     1   109.8000471 387.438400
   3910   3909   3911     1   107.5800459 329.699200
   3911   3909   3912     1   109.8000471 387.438400
   3913   3912   3918     1   109.7800468 425.094400
   3913   3912   3914     1   108.4600466 328.025600
   3914   3912   3918     1   109.7800468 425.094400
   3916   3915   3917     1   108.3000464 339.740800
   3916   3915   3919     1   108.3000464 339.740800
   3917   3915   3919     1   108.3000464 339.740800
   3920   3923   3924     1   109.8000471 387.438400
   3920   3923   3925     1   109.8000471 387.438400
   3920   3929   3930     1   110.1100470 384.091200
   3920   3929   3931     1   110.1100470 384.091200
   3920   3929   3933     1   110.1100470 384.091200
   3921   3920   3923     1   110.5600475 386.601600
   3921   3920   3929     1   108.0100461 406.684800
   3921   3920   3922     1   109.7500473 328.025600
   3922   3920   3923     1   110.5600475 386.601600
   3922   3920   3929     1   108.0100461 406.684800
   3923   3926   3927     1   109.5600471 388.275200
   3923   3926   3928     1   109.5600471 388.275200
   3924   3923   3926     1   109.8000471 387.438400
   3924   3923   3925     1   107.5800459 329.699200
   3925   3923   3926     1   109.8000471 387.438400
   3927   3926   3932     1   109.7800468 425.094400
   3927   3926   3928     1   108.4600466 328.025600
   3928   3926   3932     1   109.7800468 425.094400
   3930   3929   3931     1   108.3000464 339.740800
   3930   3929   3933     1   108.3000464 339.740800
   3931   3929   3933     1   108.3000464 339.740800
   3934   3937   3938     1   109.8000471 387.438400
   3934   3937   3939     1   109.8000471 387.438400
   3934   3943   3944     1   110.1100470 384.091200
   3934   3943   3945     1   110.1100470 384.091200
   3934   3943   3947     1   110.1100470 384.091200
   3935   3934   3937     1   110.5600475 386.601600
   3935   3934   3943     1   108.0100461 406.684800
   3935   3934   3936     1   109.7500473 328.025600
   3936   3934   3937     1   110.5600475 386.601600
   3936   3934   3943     1   108.0100461 406.684800
   3937   3940   3941     1   109.5600471 388.275200
   3937   3940   3942     1   109.5600471 388.275200
   3938   3937   3940     1   109.8000471 387.438400
   3938   3937   3939     1   107.5800459 329.699200
   3939   3937   3940     1   109.8000471 387.438400
   3941   3940   3946     1   109.7800468 425.094400
   3941   3940   3942     1   108.4600466 328.025600
   3942   3940   3946     1   109.7800468 425.094400
   3944   3943   3945     1   108.3000464 339.740800
   3944   3943   3947     1   108.3000464 339.740800
   3945   3943   3947     1   108.3000464 339.740800
   3948   3951   3952     1   109.8000471 387.438400
   3948   3951   3953     1   109.8000471 387.438400
   3948   3957   3958     1   110.1100470 384.091200
   3948   3957   3959     1   110.1100470 384.091200
   3948   3957   3961     1   110.1100470 384.091200
   3949   3948   3951     1   110.5600475 386.601600
   3949   3948   3957     1   108.0100461 406.684800
   3949   3948   3950     1   109.7500473 328.025600
   3950   3948   3951     1   110.5600475 386.601600
   3950   3948   3957     1   108.0100461 406.684800
   3951   3954   3955     1   109.5600471 388.275200
   3951   3954   3956     1   109.5600471 388.275200
   3952   3951   3954     1   109.8000471 387.438400
   3952   3951   3953     1   107.5800459 329.699200
   3953   3951   3954     1   109.8000471 387.438400
   3955   3954   3960     1   109.7800468 425.094400
   3955   3954   3956     1   108.4600466 328.025600
   3956   3954   3960     1   109.7800468 425.094400
   3958   3957   3959     1   108.3000464 339.740800
   3958   3957   3961     1   108.3000464 339.740800
   3959   3957   3961     1   108.3000464 339.740800
   3962   3965   3966     1   109.8000471 387.438400
   3962   3965   3967     1   109.8000471 387.438400
   3962   3971   3972     1   110.1100470 384.091200
   3962   3971   3973     1   110.1100470 384.091200
   3962   3971   3975     1   110.1100470 384.091200
   3963   3962   3965     1   110.5600475 386.601600
   3963   3962   3971     1   108.0100461 406.684800
   3963   3962   3964     1   109.7500473 328.025600
   3964   3962   3965     1   110.5600475 386.601600
   3964   3962   3971     1   108.0100461 406.684800
   3965   3968   3969     1   109.5600471 388.275200
   3965   3968   3970     1   109.5600471 388.275200
   3966   3965   3968     1   109.8000471 387.438400
   3966   3965   3967     1   107.5800459 329.699200
   3967   3965   3968     1   109.8000471 387.438400
   3969   3968   3974     1   109.7800468 425.094400
   3969   3968   3970     1   108.4600466 328.025600
   3970   3968   3974     1   109.7800468 425.094400
   3972   3971   3973     1   108.3000464 339.740800
   3972   3971   3975     1   108.3000464 339.740800
   3973   3971   3975     1   108.3000464 339.740800
   3976   3979   3980     1   109.8000471 387.438400
   3976   3979   3981     1   109.8000471 387.438400
   3976   3985   3986     1   110.1100470 384.091200
   3976   3985   3987     1   110.1100470 384.091200
   3976   3985   3989     1   110.1100470 384.091200
   3977   3976   3979     1   110.5600475 386.601600
   3977   3976   3985     1   108.0100461 406.684800
   3977   3976   3978     1   109.7500473 328.025600
   3978   3976   3979     1   110.5600475 386.601600
   3978   3976   3985     1   108.0100461 406.684800
   3979   3982   3983     1   109.5600471 388.275200
   3979   3982   3984     1   109.5600471 388.275200
   3980   3979   3982     1   109.8000471 387.438400
   3980   3979   3981     1   107.5800459 329.699200
   3981   3979   3982     1   109.8000471 387.438400
   3983   3982   3988     1   109.7800468 425.094400
   3983   3982   3984     1   108.4600466 328.025600
   3984   3982   3988     1   109.7800468 425.094400
   3986   3985   3987     1   108.3000464 339.740800
   3986   3985   3989     1   108.3000464 339.740800
   3987   3985   3989     1   108.3000464 339.740800
   3990   3993   3994     1   109.8000471 387.438400
   3990   3993   3995     1   109.8000471 387.438400
   3990   3999   4000     1   110.1100470 384.091200
   3990   3999   4001     1   110.1100470 384.091200
   3990   3999   4003     1   110.1100470 384.091200
   3991   3990   3993     1   110.5600475 386.601600
   3991   3990   3999     1   108.0100461 406.684800
   3991   3990   3992     1   109.7500473 328.025600
   3992   3990   3993     1   110.5600475 386.601600
   3992   3990   3999     1   108.0100461 406.684800
   3993   3996   3997     1   109.5600471 388.275200
   3993   3996   3998     1   109.5600471 388.275200
   3994   3993   3996     1   109.8000471 387.438400
   3994   3993   3995     1   107.5800459 329.699200
   3995   3993   3996     1   109.8000471 387.438400
   3997   3996   4002     1   109.7800468 425.094400
   3997   3996   3998     1   108.4600466 328.025600
   3998   3996   4002     1   109.7800468 425.094400
   4000   3999   4001     1   108.3000464 339.740800
   4000   3999   4003     1   108.3000464 339.740800
   4001   3999   4003     1   108.3000464 339.740800
   4004   4007   4008     1   109.8000471 387.438400
   4004   4007   4009     1   109.8000471 387.438400
   4004   4013   4014     1   110.1100470 384.091200
   4004   4013   4015     1   110.1100470 384.091200
   4004   4013   4017     1   110.1100470 384.091200
   4005   4004   4007     1   110.5600475 386.601600
   4005   4004   4013     1   108.0100461 406.684800
   4005   4004   4006     1   109.7500473 328.025600
   4006   4004   4007     1   110.5600475 386.601600
   4006   4004   4013     1   108.0100461 406.684800
   4007   4010   4011     1   109.5600471 388.275200
   4007   4010   4012     1   109.5600471 388.275200
   4008   4007   4010     1   109.8000471 387.438400
   4008   4007   4009     1   107.5800459 329.699200
   4009   4007   4010     1   109.8000471 387.438400
   4011   4010   4016     1   109.7800468 425.094400
   4011   4010   4012     1   108.4600466 328.025600
   4012   4010   4016     1   109.7800468 425.094400
   4014   4013   4015     1   108.3000464 339.740800
   4014   4013   4017     1   108.3000464 339.740800
   4015   4013   4017     1   108.3000464 339.740800
   4018   4021   4022     1   109.8000471 387.438400
   4018   4021   4023     1   109.8000471 387.438400
   4018   4027   4028     1   110.1100470 384.091200
   4018   4027   4029     1   110.1100470 384.091200
   4018   4027   4031     1   110.1100470 384.091200
   4019   4018   4021     1   110.5600475 386.601600
   4019   4018   4027     1   108.0100461 406.684800
   4019   4018   4020     1   109.7500473 328.025600
   4020   4018   4021     1   110.5600475 386.601600
   4020   4018   4027     1   108.0100461 406.684800
   4021   4024   4025     1   109.5600471 388.275200
   4021   4024   4026     1   109.5600471 388.275200
   4022   4021   4024     1   109.8000471 387.438400
   4022   4021   4023     1   107.5800459 329.699200
   4023   4021   4024     1   109.8000471 387.438400
   4025   4024   4030     1   109.7800468 425.094400
   4025   4024   4026     1   108.4600466 328.025600
   4026   4024   4030     1   109.7800468 425.094400
   4028   4027   4029     1   108.3000464 339.740800
   4028   4027   4031     1   108.3000464 339.740800
   4029   4027   4031     1   108.3000464 339.740800
   4032   4035   4036     1   109.8000471 387.438400
   4032   4035   4037     1   109.8000471 387.438400
   4032   4041   4042     1   110.1100470 384.091200
   4032   4041   4043     1   110.1100470 384.091200
   4032   4041   4045     1   110.1100470 384.091200
   4033   4032   4035     1   110.5600475 386.601600
   4033   4032   4041     1   108.0100461 406.684800
   4033   4032   4034     1   109.7500473 328.025600
   4034   4032   4035     1   110.5600475 386.601600
   4034   4032   4041     1   108.0100461 406.684800
   4035   4038   4039     1   109.5600471 388.275200
   4035   4038   4040     1   109.5600471 388.275200
   4036   4035   4038     1   109.8000471 387.438400
   4036   4035   4037     1   107.5800459 329.699200
   4037   4035   4038     1   109.8000471 387.438400
   4039   4038   4044     1   109.7800468 425.094400
   4039   4038   4040     1   108.4600466 328.025600
   4040   4038   4044     1   109.7800468 425.094400
   4042   4041   4043     1   108.3000464 339.740800
   4042   4041   4045     1   108.3000464 339.740800
   4043   4041   4045     1   108.3000464 339.740800
   4046   4049   4050     1   109.8000471 387.438400
   4046   4049   4051     1   109.8000471 387.438400
   4046   4055   4056     1   110.1100470 384.091200
   4046   4055   4057     1   110.1100470 384.091200
   4046   4055   4059     1   110.1100470 384.091200
   4047   4046   4049     1   110.5600475 386.601600
   4047   4046   4055     1   108.0100461 406.684800
   4047   4046   4048     1   109.7500473 328.025600
   4048   4046   4049     1   110.5600475 386.601600
   4048   4046   4055     1   108.0100461 406.684800
   4049   4052   4053     1   109.5600471 388.275200
   4049   4052   4054     1   109.5600471 388.275200
   4050   4049   4052     1   109.8000471 387.438400
   4050   4049   4051     1   107.5800459 329.699200
   4051   4049   4052     1   109.8000471 387.438400
   4053   4052   4058     1   109.7800468 425.094400
   4053   4052   4054     1   108.4600466 328.025600
   4054   4052   4058     1   109.7800468 425.094400
   4056   4055   4057     1   108.3000464 339.740800
   4056   4055   4059     1   108.3000464 339.740800
   4057   4055   4059     1   108.3000464 339.740800
   4060   4063   4064     1   109.8000471 387.438400
   4060   4063   4065     1   109.8000471 387.438400
   4060   4069   4070     1   110.1100470 384.091200
   4060   4069   4071     1   110.1100470 384.091200
   4060   4069   4073     1   110.1100470 384.091200
   4061   4060   4063     1   110.5600475 386.601600
   4061   4060   4069     1   108.0100461 406.684800
   4061   4060   4062     1   109.7500473 328.025600
   4062   4060   4063     1   110.5600475 386.601600
   4062   4060   4069     1   108.0100461 406.684800
   4063   4066   4067     1   109.5600471 388.275200
   4063   4066   4068     1   109.5600471 388.275200
   4064   4063   4066     1   109.8000471 387.438400
   4064   4063   4065     1   107.5800459 329.699200
   4065   4063   4066     1   109.8000471 387.438400
   4067   4066   4072     1   109.7800468 425.094400
   4067   4066   4068     1   108.4600466 328.025600
   4068   4066   4072     1   109.7800468 425.094400
   4070   4069   4071     1   108.3000464 339.740800
   4070   4069   4073     1   108.3000464 339.740800
   4071   4069   4073     1   108.3000464 339.740800
   4074   4077   4078     1   109.8000471 387.438400
   4074   4077   4079     1   109.8000471 387.438400
   4074   4083   4084     1   110.1100470 384.091200
   4074   4083   4085     1   110.1100470 384.091200
   4074   4083   4087     1   110.1100470 384.091200
   4075   4074   4077     1   110.5600475 386.601600
   4075   4074   4083     1   108.0100461 406.684800
   4075   4074   4076     1   109.7500473 328.025600
   4076   4074   4077     1   110.5600475 386.601600
   4076   4074   4083     1   108.0100461 406.684800
   4077   4080   4081     1   109.5600471 388.275200
   4077   4080   4082     1   109.5600471 388.275200
   4078   4077   4080     1   109.8000471 387.438400
   4078   4077   4079     1   107.5800459 329.699200
   4079   4077   4080     1   109.8000471 387.438400
   4081   4080   4086     1   109.7800468 425.094400
   4081   4080   4082     1   108.4600466 328.025600
   4082   4080   4086     1   109.7800468 425.094400
   4084   4083   4085     1   108.3000464 339.740800
   4084   4083   4087     1   108.3000464 339.740800
   4085   4083   4087     1   108.3000464 339.740800
   4088   4091   4092     1   109.8000471 387.438400
   4088   4091   4093     1   109.8000471 387.438400
   4088   4097   4098     1   110.1100470 384.091200
   4088   4097   4099     1   110.1100470 384.091200
   4088   4097   4101     1   110.1100470 384.091200
   4089   4088   4091     1   110.5600475 386.601600
   4089   4088   4097     1   108.0100461 406.684800
   4089   4088   4090     1   109.7500473 328.025600
   4090   4088   4091     1   110.5600475 386.601600
   4090   4088   4097     1   108.0100461 406.684800
   4091   4094   4095     1   109.5600471 388.275200
   4091   4094   4096     1   109.5600471 388.275200
   4092   4091   4094     1   109.8000471 387.438400
   4092   4091   4093     1   107.5800459 329.699200
   4093   4091   4094     1   109.8000471 387.438400
   4095   4094   4100     1   109.7800468 425.094400
   4095   4094   4096     1   108.4600466 328.025600
   4096   4094   4100     1   109.7800468 425.094400
   4098   4097   4099     1   108.3000464 339.740800
   4098   4097   4101     1   108.3000464 339.740800
   4099   4097   4101     1   108.3000464 339.740800
   4102   4105   4106     1   109.8000471 387.438400
   4102   4105   4107     1   109.8000471 387.438400
   4102   4111   4112     1   110.1100470 384.091200
   4102   4111   4113     1   110.1100470 384.091200
   4102   4111   4115     1   110.1100470 384.091200
   4103   4102   4105     1   110.5600475 386.601600
   4103   4102   4111     1   108.0100461 406.684800
   4103   4102   4104     1   109.7500473 328.025600
   4104   4102   4105     1   110.5600475 386.601600
   4104   4102   4111     1   108.0100461 406.684800
   4105   4108   4109     1   109.5600471 388.275200
   4105   4108   4110     1   109.5600471 388.275200
   4106   4105   4108     1   109.8000471 387.438400
   4106   4105   4107     1   107.5800459 329.699200
   4107   4105   4108     1   109.8000471 387.438400
   4109   4108   4114     1   109.7800468 425.094400
   4109   4108   4110     1   108.4600466 328.025600
   4110   4108   4114     1   109.7800468 425.094400
   4112   4111   4113     1   108.3000464 339.740800
   4112   4111   4115     1   108.3000464 339.740800
   4113   4111   4115     1   108.3000464 339.740800
   4116   4119   4120     1   109.8000471 387.438400
   4116   4119   4121     1   109.8000471 387.438400
   4116   4125   4126     1   110.1100470 384.091200
   4116   4125   4127     1   110.1100470 384.091200
   4116   4125   4129     1   110.1100470 384.091200
   4117   4116   4119     1   110.5600475 386.601600
   4117   4116   4125     1   108.0100461 406.684800
   4117   4116   4118     1   109.7500473 328.025600
   4118   4116   4119     1   110.5600475 386.601600
   4118   4116   4125     1   108.0100461 406.684800
   4119   4122   4123     1   109.5600471 388.275200
   4119   4122   4124     1   109.5600471 388.275200
   4120   4119   4122     1   109.8000471 387.438400
   4120   4119   4121     1   107.5800459 329.699200
   4121   4119   4122     1   109.8000471 387.438400
   4123   4122   4128     1   109.7800468 425.094400
   4123   4122   4124     1   108.4600466 328.025600
   4124   4122   4128     1   109.7800468 425.094400
   4126   4125   4127     1   108.3000464 339.740800
   4126   4125   4129     1   108.3000464 339.740800
   4127   4125   4129     1   108.3000464 339.740800
   4130   4133   4134     1   109.8000471 387.438400
   4130   4133   4135     1   109.8000471 387.438400
   4130   4139   4140     1   110.1100470 384.091200
   4130   4139   4141     1   110.1100470 384.091200
   4130   4139   4143     1   110.1100470 384.091200
   4131   4130   4133     1   110.5600475 386.601600
   4131   4130   4139     1   108.0100461 406.684800
   4131   4130   4132     1   109.7500473 328.025600
   4132   4130   4133     1   110.5600475 386.601600
   4132   4130   4139     1   108.0100461 406.684800
   4133   4136   4137     1   109.5600471 388.275200
   4133   4136   4138     1   109.5600471 388.275200
   4134   4133   4136     1   109.8000471 387.438400
   4134   4133   4135     1   107.5800459 329.699200
   4135   4133   4136     1   109.8000471 387.438400
   4137   4136   4142     1   109.7800468 425.094400
   4137   4136   4138     1   108.4600466 328.025600
   4138   4136   4142     1   109.7800468 425.094400
   4140   4139   4141     1   108.3000464 339.740800
   4140   4139   4143     1   108.3000464 339.740800
   4141   4139   4143     1   108.3000464 339.740800
   4144   4147   4148     1   109.8000471 387.438400
   4144   4147   4149     1   109.8000471 387.438400
   4144   4153   4154     1   110.1100470 384.091200
   4144   4153   4155     1   110.1100470 384.091200
   4144   4153   4157     1   110.1100470 384.091200
   4145   4144   4147     1   110.5600475 386.601600
   4145   4144   4153     1   108.0100461 406.684800
   4145   4144   4146     1   109.7500473 328.025600
   4146   4144   4147     1   110.5600475 386.601600
   4146   4144   4153     1   108.0100461 406.684800
   4147   4150   4151     1   109.5600471 388.275200
   4147   4150   4152     1   109.5600471 388.275200
   4148   4147   4150     1   109.8000471 387.438400
   4148   4147   4149     1   107.5800459 329.699200
   4149   4147   4150     1   109.8000471 387.438400
   4151   4150   4156     1   109.7800468 425.094400
   4151   4150   4152     1   108.4600466 328.025600
   4152   4150   4156     1   109.7800468 425.094400
   4154   4153   4155     1   108.3000464 339.740800
   4154   4153   4157     1   108.3000464 339.740800
   4155   4153   4157     1   108.3000464 339.740800
   4158   4161   4162     1   109.8000471 387.438400
   4158   4161   4163     1   109.8000471 387.438400
   4158   4167   4168     1   110.1100470 384.091200
   4158   4167   4169     1   110.1100470 384.091200
   4158   4167   4171     1   110.1100470 384.091200
   4159   4158   4161     1   110.5600475 386.601600
   4159   4158   4167     1   108.0100461 406.684800
   4159   4158   4160     1   109.7500473 328.025600
   4160   4158   4161     1   110.5600475 386.601600
   4160   4158   4167     1   108.0100461 406.684800
   4161   4164   4165     1   109.5600471 388.275200
   4161   4164   4166     1   109.5600471 388.275200
   4162   4161   4164     1   109.8000471 387.438400
   4162   4161   4163     1   107.5800459 329.699200
   4163   4161   4164     1   109.8000471 387.438400
   4165   4164   4170     1   109.7800468 425.094400
   4165   4164   4166     1   108.4600466 328.025600
   4166   4164   4170     1   109.7800468 425.094400
   4168   4167   4169     1   108.3000464 339.740800
   4168   4167   4171     1   108.3000464 339.740800
   4169   4167   4171     1   108.3000464 339.740800
   4172   4175   4176     1   109.8000471 387.438400
   4172   4175   4177     1   109.8000471 387.438400
   4172   4181   4182     1   110.1100470 384.091200
   4172   4181   4183     1   110.1100470 384.091200
   4172   4181   4185     1   110.1100470 384.091200
   4173   4172   4175     1   110.5600475 386.601600
   4173   4172   4181     1   108.0100461 406.684800
   4173   4172   4174     1   109.7500473 328.025600
   4174   4172   4175     1   110.5600475 386.601600
   4174   4172   4181     1   108.0100461 406.684800
   4175   4178   4179     1   109.5600471 388.275200
   4175   4178   4180     1   109.5600471 388.275200
   4176   4175   4178     1   109.8000471 387.438400
   4176   4175   4177     1   107.5800459 329.699200
   4177   4175   4178     1   109.8000471 387.438400
   4179   4178   4184     1   109.7800468 425.094400
   4179   4178   4180     1   108.4600466 328.025600
   4180   4178   4184     1   109.7800468 425.094400
   4182   4181   4183     1   108.3000464 339.740800
   4182   4181   4185     1   108.3000464 339.740800
   4183   4181   4185     1   108.3000464 339.740800
   4186   4189   4190     1   109.8000471 387.438400
   4186   4189   4191     1   109.8000471 387.438400
   4186   4195   4196     1   110.1100470 384.091200
   4186   4195   4197     1   110.1100470 384.091200
   4186   4195   4199     1   110.1100470 384.091200
   4187   4186   4189     1   110.5600475 386.601600
   4187   4186   4195     1   108.0100461 406.684800
   4187   4186   4188     1   109.7500473 328.025600
   4188   4186   4189     1   110.5600475 386.601600
   4188   4186   4195     1   108.0100461 406.684800
   4189   4192   4193     1   109.5600471 388.275200
   4189   4192   4194     1   109.5600471 388.275200
   4190   4189   4192     1   109.8000471 387.438400
   4190   4189   4191     1   107.5800459 329.699200
   4191   4189   4192     1   109.8000471 387.438400
   4193   4192   4198     1   109.7800468 425.094400
   4193   4192   4194     1   108.4600466 328.025600
   4194   4192   4198     1   109.7800468 425.094400
   4196   4195   4197     1   108.3000464 339.740800
   4196   4195   4199     1   108.3000464 339.740800
   4197   4195   4199     1   108.3000464 339.740800
   4200   4203   4204     1   109.8000471 387.438400
   4200   4203   4205     1   109.8000471 387.438400
   4200   4209   4210     1   110.1100470 384.091200
   4200   4209   4211     1   110.1100470 384.091200
   4200   4209   4213     1   110.1100470 384.091200
   4201   4200   4203     1   110.5600475 386.601600
   4201   4200   4209     1   108.0100461 406.684800
   4201   4200   4202     1   109.7500473 328.025600
   4202   4200   4203     1   110.5600475 386.601600
   4202   4200   4209     1   108.0100461 406.684800
   4203   4206   4207     1   109.5600471 388.275200
   4203   4206   4208     1   109.5600471 388.275200
   4204   4203   4206     1   109.8000471 387.438400
   4204   4203   4205     1   107.5800459 329.699200
   4205   4203   4206     1   109.8000471 387.438400
   4207   4206   4212     1   109.7800468 425.094400
   4207   4206   4208     1   108.4600466 328.025600
   4208   4206   4212     1   109.7800468 425.094400
   4210   4209   4211     1   108.3000464 339.740800
   4210   4209   4213     1   108.3000464 339.740800
   4211   4209   4213     1   108.3000464 339.740800
   4214   4217   4218     1   109.8000471 387.438400
   4214   4217   4219     1   109.8000471 387.438400
   4214   4223   4224     1   110.1100470 384.091200
   4214   4223   4225     1   110.1100470 384.091200
   4214   4223   4227     1   110.1100470 384.091200
   4215   4214   4217     1   110.5600475 386.601600
   4215   4214   4223     1   108.0100461 406.684800
   4215   4214   4216     1   109.7500473 328.025600
   4216   4214   4217     1   110.5600475 386.601600
   4216   4214   4223     1   108.0100461 406.684800
   4217   4220   4221     1   109.5600471 388.275200
   4217   4220   4222     1   109.5600471 388.275200
   4218   4217   4220     1   109.8000471 387.438400
   4218   4217   4219     1   107.5800459 329.699200
   4219   4217   4220     1   109.8000471 387.438400
   4221   4220   4226     1   109.7800468 425.094400
   4221   4220   4222     1   108.4600466 328.025600
   4222   4220   4226     1   109.7800468 425.094400
   4224   4223   4225     1   108.3000464 339.740800
   4224   4223   4227     1   108.3000464 339.740800
   4225   4223   4227     1   108.3000464 339.740800
   4228   4231   4232     1   109.8000471 387.438400
   4228   4231   4233     1   109.8000471 387.438400
   4228   4237   4238     1   110.1100470 384.091200
   4228   4237   4239     1   110.1100470 384.091200
   4228   4237   4241     1   110.1100470 384.091200
   4229   4228   4231     1   110.5600475 386.601600
   4229   4228   4237     1   108.0100461 406.684800
   4229   4228   4230     1   109.7500473 328.025600
   4230   4228   4231     1   110.5600475 386.601600
   4230   4228   4237     1   108.0100461 406.684800
   4231   4234   4235     1   109.5600471 388.275200
   4231   4234   4236     1   109.5600471 388.275200
   4232   4231   4234     1   109.8000471 387.438400
   4232   4231   4233     1   107.5800459 329.699200
   4233   4231   4234     1   109.8000471 387.438400
   4235   4234   4240     1   109.7800468 425.094400
   4235   4234   4236     1   108.4600466 328.025600
   4236   4234   4240     1   109.7800468 425.094400
   4238   4237   4239     1   108.3000464 339.740800
   4238   4237   4241     1   108.3000464 339.740800
   4239   4237   4241     1   108.3000464 339.740800
   4242   4245   4246     1   109.8000471 387.438400
   4242   4245   4247     1   109.8000471 387.438400
   4242   4251   4252     1   110.1100470 384.091200
   4242   4251   4253     1   110.1100470 384.091200
   4242   4251   4255     1   110.1100470 384.091200
   4243   4242   4245     1   110.5600475 386.601600
   4243   4242   4251     1   108.0100461 406.684800
   4243   4242   4244     1   109.7500473 328.025600
   4244   4242   4245     1   110.5600475 386.601600
   4244   4242   4251     1   108.0100461 406.684800
   4245   4248   4249     1   109.5600471 388.275200
   4245   4248   4250     1   109.5600471 388.275200
   4246   4245   4248     1   109.8000471 387.438400
   4246   4245   4247     1   107.5800459 329.699200
   4247   4245   4248     1   109.8000471 387.438400
   4249   4248   4254     1   109.7800468 425.094400
   4249   4248   4250     1   108.4600466 328.025600
   4250   4248   4254     1   109.7800468 425.094400
   4252   4251   4253     1   108.3000464 339.740800
   4252   4251   4255     1   108.3000464 339.740800
   4253   4251   4255     1   108.3000464 339.740800
   4256   4259   4260     1   109.8000471 387.438400
   4256   4259   4261     1   109.8000471 387.438400
   4256   4265   4266     1   110.1100470 384.091200
   4256   4265   4267     1   110.1100470 384.091200
   4256   4265   4269     1   110.1100470 384.091200
   4257   4256   4259     1   110.5600475 386.601600
   4257   4256   4265     1   108.0100461 406.684800
   4257   4256   4258     1   109.7500473 328.025600
   4258   4256   4259     1   110.5600475 386.601600
   4258   4256   4265     1   108.0100461 406.684800
   4259   4262   4263     1   109.5600471 388.275200
   4259   4262   4264     1   109.5600471 388.275200
   4260   4259   4262     1   109.8000471 387.438400
   4260   4259   4261     1   107.5800459 329.699200
   4261   4259   4262     1   109.8000471 387.438400
   4263   4262   4268     1   109.7800468 425.094400
   4263   4262   4264     1   108.4600466 328.025600
   4264   4262   4268     1   109.7800468 425.094400
   4266   4265   4267     1   108.3000464 339.740800
   4266   4265   4269     1   108.3000464 339.740800
   4267   4265   4269     1   108.3000464 339.740800
   4270   4273   4274     1   109.8000471 387.438400
   4270   4273   4275     1   109.8000471 387.438400
   4270   4279   4280     1   110.1100470 384.091200
   4270   4279   4281     1   110.1100470 384.091200
   4270   4279   4283     1   110.1100470 384.091200
   4271   4270   4273     1   110.5600475 386.601600
   4271   4270   4279     1   108.0100461 406.684800
   4271   4270   4272     1   109.7500473 328.025600
   4272   4270   4273     1   110.5600475 386.601600
   4272   4270   4279     1   108.0100461 406.684800
   4273   4276   4277     1   109.5600471 388.275200
   4273   4276   4278     1   109.5600471 388.275200
   4274   4273   4276     1   109.8000471 387.438400
   4274   4273   4275     1   107.5800459 329.699200
   4275   4273   4276     1   109.8000471 387.438400
   4277   4276   4282     1   109.7800468 425.094400
   4277   4276   4278     1   108.4600466 328.025600
   4278   4276   4282     1   109.7800468 425.094400
   4280   4279   4281     1   108.3000464 339.740800
   4280   4279   4283     1   108.3000464 339.740800
   4281   4279   4283     1   108.3000464 339.740800
   4284   4287   4288     1   109.8000471 387.438400
   4284   4287   4289     1   109.8000471 387.438400
   4284   4293   4294     1   110.1100470 384.091200
   4284   4293   4295     1   110.1100470 384.091200
   4284   4293   4297     1   110.1100470 384.091200
   4285   4284   4287     1   110.5600475 386.601600
   4285   4284   4293     1   108.0100461 406.684800
   4285   4284   4286     1   109.7500473 328.025600
   4286   4284   4287     1   110.5600475 386.601600
   4286   4284   4293     1   108.0100461 406.684800
   4287   4290   4291     1   109.5600471 388.275200
   4287   4290   4292     1   109.5600471 388.275200
   4288   4287   4290     1   109.8000471 387.438400
   4288   4287   4289     1   107.5800459 329.699200
   4289   4287   4290     1   109.8000471 387.438400
   4291   4290   4296     1   109.7800468 425.094400
   4291   4290   4292     1   108.4600466 328.025600
   4292   4290   4296     1   109.7800468 425.094400
   4294   4293   4295     1   108.3000464 339.740800
   4294   4293   4297     1   108.3000464 339.740800
   4295   4293   4297     1   108.3000464 339.740800
   4298   4301   4302     1   109.8000471 387.438400
   4298   4301   4303     1   109.8000471 387.438400
   4298   4307   4308     1   110.1100470 384.091200
   4298   4307   4309     1   110.1100470 384.091200
   4298   4307   4311     1   110.1100470 384.091200
   4299   4298   4301     1   110.5600475 386.601600
   4299   4298   4307     1   108.0100461 406.684800
   4299   4298   4300     1   109.7500473 328.025600
   4300   4298   4301     1   110.5600475 386.601600
   4300   4298   4307     1   108.0100461 406.684800
   4301   4304   4305     1   109.5600471 388.275200
   4301   4304   4306     1   109.5600471 388.275200
   4302   4301   4304     1   109.8000471 387.438400
   4302   4301   4303     1   107.5800459 329.699200
   4303   4301   4304     1   109.8000471 387.438400
   4305   4304   4310     1   109.7800468 425.094400
   4305   4304   4306     1   108.4600466 328.025600
   4306   4304   4310     1   109.7800468 425.094400
   4308   4307   4309     1   108.3000464 339.740800
   4308   4307   4311     1   108.3000464 339.740800
   4309   4307   4311     1   108.3000464 339.740800
   4312   4315   4316     1   109.8000471 387.438400
   4312   4315   4317     1   109.8000471 387.438400
   4312   4321   4322     1   110.1100470 384.091200
   4312   4321   4323     1   110.1100470 384.091200
   4312   4321   4325     1   110.1100470 384.091200
   4313   4312   4315     1   110.5600475 386.601600
   4313   4312   4321     1   108.0100461 406.684800
   4313   4312   4314     1   109.7500473 328.025600
   4314   4312   4315     1   110.5600475 386.601600
   4314   4312   4321     1   108.0100461 406.684800
   4315   4318   4319     1   109.5600471 388.275200
   4315   4318   4320     1   109.5600471 388.275200
   4316   4315   4318     1   109.8000471 387.438400
   4316   4315   4317     1   107.5800459 329.699200
   4317   4315   4318     1   109.8000471 387.438400
   4319   4318   4324     1   109.7800468 425.094400
   4319   4318   4320     1   108.4600466 328.025600
   4320   4318   4324     1   109.7800468 425.094400
   4322   4321   4323     1   108.3000464 339.740800
   4322   4321   4325     1   108.3000464 339.740800
   4323   4321   4325     1   108.3000464 339.740800
   4326   4329   4330     1   109.8000471 387.438400
   4326   4329   4331     1   109.8000471 387.438400
   4326   4335   4336     1   110.1100470 384.091200
   4326   4335   4337     1   110.1100470 384.091200
   4326   4335   4339     1   110.1100470 384.091200
   4327   4326   4329     1   110.5600475 386.601600
   4327   4326   4335     1   108.0100461 406.684800
   4327   4326   4328     1   109.7500473 328.025600
   4328   4326   4329     1   110.5600475 386.601600
   4328   4326   4335     1   108.0100461 406.684800
   4329   4332   4333     1   109.5600471 388.275200
   4329   4332   4334     1   109.5600471 388.275200
   4330   4329   4332     1   109.8000471 387.438400
   4330   4329   4331     1   107.5800459 329.699200
   4331   4329   4332     1   109.8000471 387.438400
   4333   4332   4338     1   109.7800468 425.094400
   4333   4332   4334     1   108.4600466 328.025600
   4334   4332   4338     1   109.7800468 425.094400
   4336   4335   4337     1   108.3000464 339.740800
   4336   4335   4339     1   108.3000464 339.740800
   4337   4335   4339     1   108.3000464 339.740800
   4340   4343   4344     1   109.8000471 387.438400
   4340   4343   4345     1   109.8000471 387.438400
   4340   4349   4350     1   110.1100470 384.091200
   4340   4349   4351     1   110.1100470 384.091200
   4340   4349   4353     1   110.1100470 384.091200
   4341   4340   4343     1   110.5600475 386.601600
   4341   4340   4349     1   108.0100461 406.684800
   4341   4340   4342     1   109.7500473 328.025600
   4342   4340   4343     1   110.5600475 386.601600
   4342   4340   4349     1   108.0100461 406.684800
   4343   4346   4347     1   109.5600471 388.275200
   4343   4346   4348     1   109.5600471 388.275200
   4344   4343   4346     1   109.8000471 387.438400
   4344   4343   4345     1   107.5800459 329.699200
   4345   4343   4346     1   109.8000471 387.438400
   4347   4346   4352     1   109.7800468 425.094400
   4347   4346   4348     1   108.4600466 328.025600
   4348   4346   4352     1   109.7800468 425.094400
   4350   4349   4351     1   108.3000464 339.740800
   4350   4349   4353     1   108.3000464 339.740800
   4351   4349   4353     1   108.3000464 339.740800
   4354   4357   4358     1   109.8000471 387.438400
   4354   4357   4359     1   109.8000471 387.438400
   4354   4363   4364     1   110.1100470 384.091200
   4354   4363   4365     1   110.1100470 384.091200
   4354   4363   4367     1   110.1100470 384.091200
   4355   4354   4357     1   110.5600475 386.601600
   4355   4354   4363     1   108.0100461 406.684800
   4355   4354   4356     1   109.7500473 328.025600
   4356   4354   4357     1   110.5600475 386.601600
   4356   4354   4363     1   108.0100461 406.684800
   4357   4360   4361     1   109.5600471 388.275200
   4357   4360   4362     1   109.5600471 388.275200
   4358   4357   4360     1   109.8000471 387.438400
   4358   4357   4359     1   107.5800459 329.699200
   4359   4357   4360     1   109.8000471 387.438400
   4361   4360   4366     1   109.7800468 425.094400
   4361   4360   4362     1   108.4600466 328.025600
   4362   4360   4366     1   109.7800468 425.094400
   4364   4363   4365     1   108.3000464 339.740800
   4364   4363   4367     1   108.3000464 339.740800
   4365   4363   4367     1   108.3000464 339.740800
   4368   4371   4372     1   109.8000471 387.438400
   4368   4371   4373     1   109.8000471 387.438400
   4368   4377   4378     1   110.1100470 384.091200
   4368   4377   4379     1   110.1100470 384.091200
   4368   4377   4381     1   110.1100470 384.091200
   4369   4368   4371     1   110.5600475 386.601600
   4369   4368   4377     1   108.0100461 406.684800
   4369   4368   4370     1   109.7500473 328.025600
   4370   4368   4371     1   110.5600475 386.601600
   4370   4368   4377     1   108.0100461 406.684800
   4371   4374   4375     1   109.5600471 388.275200
   4371   4374   4376     1   109.5600471 388.275200
   4372   4371   4374     1   109.8000471 387.438400
   4372   4371   4373     1   107.5800459 329.699200
   4373   4371   4374     1   109.8000471 387.438400
   4375   4374   4380     1   109.7800468 425.094400
   4375   4374   4376     1   108.4600466 328.025600
   4376   4374   4380     1   109.7800468 425.094400
   4378   4377   4379     1   108.3000464 339.740800
   4378   4377   4381     1   108.3000464 339.740800
   4379   4377   4381     1   108.3000464 339.740800
   4382   4385   4386     1   109.8000471 387.438400
   4382   4385   4387     1   109.8000471 387.438400
   4382   4391   4392     1   110.1100470 384.091200
   4382   4391   4393     1   110.1100470 384.091200
   4382   4391   4395     1   110.1100470 384.091200
   4383   4382   4385     1   110.5600475 386.601600
   4383   4382   4391     1   108.0100461 406.684800
   4383   4382   4384     1   109.7500473 328.025600
   4384   4382   4385     1   110.5600475 386.601600
   4384   4382   4391     1   108.0100461 406.684800
   4385   4388   4389     1   109.5600471 388.275200
   4385   4388   4390     1   109.5600471 388.275200
   4386   4385   4388     1   109.8000471 387.438400
   4386   4385   4387     1   107.5800459 329.699200
   4387   4385   4388     1   109.8000471 387.438400
   4389   4388   4394     1   109.7800468 425.094400
   4389   4388   4390     1   108.4600466 328.025600
   4390   4388   4394     1   109.7800468 425.094400
   4392   4391   4393     1   108.3000464 339.740800
   4392   4391   4395     1   108.3000464 339.740800
   4393   4391   4395     1   108.3000464 339.740800
   4396   4399   4400     1   109.8000471 387.438400
   4396   4399   4401     1   109.8000471 387.438400
   4396   4405   4406     1   110.1100470 384.091200
   4396   4405   4407     1   110.1100470 384.091200
   4396   4405   4409     1   110.1100470 384.091200
   4397   4396   4399     1   110.5600475 386.601600
   4397   4396   4405     1   108.0100461 406.684800
   4397   4396   4398     1   109.7500473 328.025600
   4398   4396   4399     1   110.5600475 386.601600
   4398   4396   4405     1   108.0100461 406.684800
   4399   4402   4403     1   109.5600471 388.275200
   4399   4402   4404     1   109.5600471 388.275200
   4400   4399   4402     1   109.8000471 387.438400
   4400   4399   4401     1   107.5800459 329.699200
   4401   4399   4402     1   109.8000471 387.438400
   4403   4402   4408     1   109.7800468 425.094400
   4403   4402   4404     1   108.4600466 328.025600
   4404   4402   4408     1   109.7800468 425.094400
   4406   4405   4407     1   108.3000464 339.740800
   4406   4405   4409     1   108.3000464 339.740800
   4407   4405   4409     1   108.3000464 339.740800
   4410   4413   4414     1   109.8000471 387.438400
   4410   4413   4415     1   109.8000471 387.438400
   4410   4419   4420     1   110.1100470 384.091200
   4410   4419   4421     1   110.1100470 384.091200
   4410   4419   4423     1   110.1100470 384.091200
   4411   4410   4413     1   110.5600475 386.601600
   4411   4410   4419     1   108.0100461 406.684800
   4411   4410   4412     1   109.7500473 328.025600
   4412   4410   4413     1   110.5600475 386.601600
   4412   4410   4419     1   108.0100461 406.684800
   4413   4416   4417     1   109.5600471 388.275200
   4413   4416   4418     1   109.5600471 388.275200
   4414   4413   4416     1   109.8000471 387.438400
   4414   4413   4415     1   107.5800459 329.699200
   4415   4413   4416     1   109.8000471 387.438400
   4417   4416   4422     1   109.7800468 425.094400
   4417   4416   4418     1   108.4600466 328.025600
   4418   4416   4422     1   109.7800468 425.094400
   4420   4419   4421     1   108.3000464 339.740800
   4420   4419   4423     1   108.3000464 339.740800
   4421   4419   4423     1   108.3000464 339.740800
   4424   4427   4428     1   109.8000471 387.438400
   4424   4427   4429     1   109.8000471 387.438400
   4424   4433   4434     1   110.1100470 384.091200
   4424   4433   4435     1   110.1100470 384.091200
   4424   4433   4437     1   110.1100470 384.091200
   4425   4424   4427     1   110.5600475 386.601600
   4425   4424   4433     1   108.0100461 406.684800
   4425   4424   4426     1   109.7500473 328.025600
   4426   4424   4427     1   110.5600475 386.601600
   4426   4424   4433     1   108.0100461 406.684800
   4427   4430   4431     1   109.5600471 388.275200
   4427   4430   4432     1   109.5600471 388.275200
   4428   4427   4430     1   109.8000471 387.438400
   4428   4427   4429     1   107.5800459 329.699200
   4429   4427   4430     1   109.8000471 387.438400
   4431   4430   4436     1   109.7800468 425.094400
   4431   4430   4432     1   108.4600466 328.025600
   4432   4430   4436     1   109.7800468 425.094400
   4434   4433   4435     1   108.3000464 339.740800
   4434   4433   4437     1   108.3000464 339.740800
   4435   4433   4437     1   108.3000464 339.740800
   4438   4441   4442     1   109.8000471 387.438400
   4438   4441   4443     1   109.8000471 387.438400
   4438   4447   4448     1   110.1100470 384.091200
   4438   4447   4449     1   110.1100470 384.091200
   4438   4447   4451     1   110.1100470 384.091200
   4439   4438   4441     1   110.5600475 386.601600
   4439   4438   4447     1   108.0100461 406.684800
   4439   4438   4440     1   109.7500473 328.025600
   4440   4438   4441     1   110.5600475 386.601600
   4440   4438   4447     1   108.0100461 406.684800
   4441   4444   4445     1   109.5600471 388.275200
   4441   4444   4446     1   109.5600471 388.275200
   4442   4441   4444     1   109.8000471 387.438400
   4442   4441   4443     1   107.5800459 329.699200
   4443   4441   4444     1   109.8000471 387.438400
   4445   4444   4450     1   109.7800468 425.094400
   4445   4444   4446     1   108.4600466 328.025600
   4446   4444   4450     1   109.7800468 425.094400
   4448   4447   4449     1   108.3000464 339.740800
   4448   4447   4451     1   108.3000464 339.740800
   4449   4447   4451     1   108.3000464 339.740800
   4452   4455   4456     1   109.8000471 387.438400
   4452   4455   4457     1   109.8000471 387.438400
   4452   4461   4462     1   110.1100470 384.091200
   4452   4461   4463     1   110.1100470 384.091200
   4452   4461   4465     1   110.1100470 384.091200
   4453   4452   4455     1   110.5600475 386.601600
   4453   4452   4461     1   108.0100461 406.684800
   4453   4452   4454     1   109.7500473 328.025600
   4454   4452   4455     1   110.5600475 386.601600
   4454   4452   4461     1   108.0100461 406.684800
   4455   4458   4459     1   109.5600471 388.275200
   4455   4458   4460     1   109.5600471 388.275200
   4456   4455   4458     1   109.8000471 387.438400
   4456   4455   4457     1   107.5800459 329.699200
   4457   4455   4458     1   109.8000471 387.438400
   4459   4458   4464     1   109.7800468 425.094400
   4459   4458   4460     1   108.4600466 328.025600
   4460   4458   4464     1   109.7800468 425.094400
   4462   4461   4463     1   108.3000464 339.740800
   4462   4461   4465     1   108.3000464 339.740800
   4463   4461   4465     1   108.3000464 339.740800
   4466   4469   4470     1   109.8000471 387.438400
   4466   4469   4471     1   109.8000471 387.438400
   4466   4475   4476     1   110.1100470 384.091200
   4466   4475   4477     1   110.1100470 384.091200
   4466   4475   4479     1   110.1100470 384.091200
   4467   4466   4469     1   110.5600475 386.601600
   4467   4466   4475     1   108.0100461 406.684800
   4467   4466   4468     1   109.7500473 328.025600
   4468   4466   4469     1   110.5600475 386.601600
   4468   4466   4475     1   108.0100461 406.684800
   4469   4472   4473     1   109.5600471 388.275200
   4469   4472   4474     1   109.5600471 388.275200
   4470   4469   4472     1   109.8000471 387.438400
   4470   4469   4471     1   107.5800459 329.699200
   4471   4469   4472     1   109.8000471 387.438400
   4473   4472   4478     1   109.7800468 425.094400
   4473   4472   4474     1   108.4600466 328.025600
   4474   4472   4478     1   109.7800468 425.094400
   4476   4475   4477     1   108.3000464 339.740800
   4476   4475   4479     1   108.3000464 339.740800
   4477   4475   4479     1   108.3000464 339.740800
   4480   4483   4484     1   109.8000471 387.438400
   4480   4483   4485     1   109.8000471 387.438400
   4480   4489   4490     1   110.1100470 384.091200
   4480   4489   4491     1   110.1100470 384.091200
   4480   4489   4493     1   110.1100470 384.091200
   4481   4480   4483     1   110.5600475 386.601600
   4481   4480   4489     1   108.0100461 406.684800
   4481   4480   4482     1   109.7500473 328.025600
   4482   4480   4483     1   110.5600475 386.601600
   4482   4480   4489     1   108.0100461 406.684800
   4483   4486   4487     1   109.5600471 388.275200
   4483   4486   4488     1   109.5600471 388.275200
   4484   4483   4486     1   109.8000471 387.438400
   4484   4483   4485     1   107.5800459 329.699200
   4485   4483   4486     1   109.8000471 387.438400
   4487   4486   4492     1   109.7800468 425.094400
   4487   4486   4488     1   108.4600466 328.025600
   4488   4486   4492     1   109.7800468 425.094400
   4490   4489   4491     1   108.3000464 339.740800
   4490   4489   4493     1   108.3000464 339.740800
   4491   4489   4493     1   108.3000464 339.740800
   4494   4497   4498     1   109.8000471 387.438400
   4494   4497   4499     1   109.8000471 387.438400
   4494   4503   4504     1   110.1100470 384.091200
   4494   4503   4505     1   110.1100470 384.091200
   4494   4503   4507     1   110.1100470 384.091200
   4495   4494   4497     1   110.5600475 386.601600
   4495   4494   4503     1   108.0100461 406.684800
   4495   4494   4496     1   109.7500473 328.025600
   4496   4494   4497     1   110.5600475 386.601600
   4496   4494   4503     1   108.0100461 406.684800
   4497   4500   4501     1   109.5600471 388.275200
   4497   4500   4502     1   109.5600471 388.275200
   4498   4497   4500     1   109.8000471 387.438400
   4498   4497   4499     1   107.5800459 329.699200
   4499   4497   4500     1   109.8000471 387.438400
   4501   4500   4506     1   109.7800468 425.094400
   4501   4500   4502     1   108.4600466 328.025600
   4502   4500   4506     1   109.7800468 425.094400
   4504   4503   4505     1   108.3000464 339.740800
   4504   4503   4507     1   108.3000464 339.740800
   4505   4503   4507     1   108.3000464 339.740800
   4508   4511   4512     1   109.8000471 387.438400
   4508   4511   4513     1   109.8000471 387.438400
   4508   4517   4518     1   110.1100470 384.091200
   4508   4517   4519     1   110.1100470 384.091200
   4508   4517   4521     1   110.1100470 384.091200
   4509   4508   4511     1   110.5600475 386.601600
   4509   4508   4517     1   108.0100461 406.684800
   4509   4508   4510     1   109.7500473 328.025600
   4510   4508   4511     1   110.5600475 386.601600
   4510   4508   4517     1   108.0100461 406.684800
   4511   4514   4515     1   109.5600471 388.275200
   4511   4514   4516     1   109.5600471 388.275200
   4512   4511   4514     1   109.8000471 387.438400
   4512   4511   4513     1   107.5800459 329.699200
   4513   4511   4514     1   109.8000471 387.438400
   4515   4514   4520     1   109.7800468 425.094400
   4515   4514   4516     1   108.4600466 328.025600
   4516   4514   4520     1   109.7800468 425.094400
   4518   4517   4519     1   108.3000464 339.740800
   4518   4517   4521     1   108.3000464 339.740800
   4519   4517   4521     1   108.3000464 339.740800
   4522   4525   4526     1   109.8000471 387.438400
   4522   4525   4527     1   109.8000471 387.438400
   4522   4531   4532     1   110.1100470 384.091200
   4522   4531   4533     1   110.1100470 384.091200
   4522   4531   4535     1   110.1100470 384.091200
   4523   4522   4525     1   110.5600475 386.601600
   4523   4522   4531     1   108.0100461 406.684800
   4523   4522   4524     1   109.7500473 328.025600
   4524   4522   4525     1   110.5600475 386.601600
   4524   4522   4531     1   108.0100461 406.684800
   4525   4528   4529     1   109.5600471 388.275200
   4525   4528   4530     1   109.5600471 388.275200
   4526   4525   4528     1   109.8000471 387.438400
   4526   4525   4527     1   107.5800459 329.699200
   4527   4525   4528     1   109.8000471 387.438400
   4529   4528   4534     1   109.7800468 425.094400
   4529   4528   4530     1   108.4600466 328.025600
   4530   4528   4534     1   109.7800468 425.094400
   4532   4531   4533     1   108.3000464 339.740800
   4532   4531   4535     1   108.3000464 339.740800
   4533   4531   4535     1   108.3000464 339.740800
   4536   4539   4540     1   109.8000471 387.438400
   4536   4539   4541     1   109.8000471 387.438400
   4536   4545   4546     1   110.1100470 384.091200
   4536   4545   4547     1   110.1100470 384.091200
   4536   4545   4549     1   110.1100470 384.091200
   4537   4536   4539     1   110.5600475 386.601600
   4537   4536   4545     1   108.0100461 406.684800
   4537   4536   4538     1   109.7500473 328.025600
   4538   4536   4539     1   110.5600475 386.601600
   4538   4536   4545     1   108.0100461 406.684800
   4539   4542   4543     1   109.5600471 388.275200
   4539   4542   4544     1   109.5600471 388.275200
   4540   4539   4542     1   109.8000471 387.438400
   4540   4539   4541     1   107.5800459 329.699200
   4541   4539   4542     1   109.8000471 387.438400
   4543   4542   4548     1   109.7800468 425.094400
   4543   4542   4544     1   108.4600466 328.025600
   4544   4542   4548     1   109.7800468 425.094400
   4546   4545   4547     1   108.3000464 339.740800
   4546   4545   4549     1   108.3000464 339.740800
   4547   4545   4549     1   108.3000464 339.740800
   4550   4553   4554     1   109.8000471 387.438400
   4550   4553   4555     1   109.8000471 387.438400
   4550   4559   4560     1   110.1100470 384.091200
   4550   4559   4561     1   110.1100470 384.091200
   4550   4559   4563     1   110.1100470 384.091200
   4551   4550   4553     1   110.5600475 386.601600
   4551   4550   4559     1   108.0100461 406.684800
   4551   4550   4552     1   109.7500473 328.025600
   4552   4550   4553     1   110.5600475 386.601600
   4552   4550   4559     1   108.0100461 406.684800
   4553   4556   4557     1   109.5600471 388.275200
   4553   4556   4558     1   109.5600471 388.275200
   4554   4553   4556     1   109.8000471 387.438400
   4554   4553   4555     1   107.5800459 329.699200
   4555   4553   4556     1   109.8000471 387.438400
   4557   4556   4562     1   109.7800468 425.094400
   4557   4556   4558     1   108.4600466 328.025600
   4558   4556   4562     1   109.7800468 425.094400
   4560   4559   4561     1   108.3000464 339.740800
   4560   4559   4563     1   108.3000464 339.740800
   4561   4559   4563     1   108.3000464 339.740800
   4564   4567   4568     1   109.8000471 387.438400
   4564   4567   4569     1   109.8000471 387.438400
   4564   4573   4574     1   110.1100470 384.091200
   4564   4573   4575     1   110.1100470 384.091200
   4564   4573   4577     1   110.1100470 384.091200
   4565   4564   4567     1   110.5600475 386.601600
   4565   4564   4573     1   108.0100461 406.684800
   4565   4564   4566     1   109.7500473 328.025600
   4566   4564   4567     1   110.5600475 386.601600
   4566   4564   4573     1   108.0100461 406.684800
   4567   4570   4571     1   109.5600471 388.275200
   4567   4570   4572     1   109.5600471 388.275200
   4568   4567   4570     1   109.8000471 387.438400
   4568   4567   4569     1   107.5800459 329.699200
   4569   4567   4570     1   109.8000471 387.438400
   4571   4570   4576     1   109.7800468 425.094400
   4571   4570   4572     1   108.4600466 328.025600
   4572   4570   4576     1   109.7800468 425.094400
   4574   4573   4575     1   108.3000464 339.740800
   4574   4573   4577     1   108.3000464 339.740800
   4575   4573   4577     1   108.3000464 339.740800
   4578   4581   4582     1   109.8000471 387.438400
   4578   4581   4583     1   109.8000471 387.438400
   4578   4587   4588     1   110.1100470 384.091200
   4578   4587   4589     1   110.1100470 384.091200
   4578   4587   4591     1   110.1100470 384.091200
   4579   4578   4581     1   110.5600475 386.601600
   4579   4578   4587     1   108.0100461 406.684800
   4579   4578   4580     1   109.7500473 328.025600
   4580   4578   4581     1   110.5600475 386.601600
   4580   4578   4587     1   108.0100461 406.684800
   4581   4584   4585     1   109.5600471 388.275200
   4581   4584   4586     1   109.5600471 388.275200
   4582   4581   4584     1   109.8000471 387.438400
   4582   4581   4583     1   107.5800459 329.699200
   4583   4581   4584     1   109.8000471 387.438400
   4585   4584   4590     1   109.7800468 425.094400
   4585   4584   4586     1   108.4600466 328.025600
   4586   4584   4590     1   109.7800468 425.094400
   4588   4587   4589     1   108.3000464 339.740800
   4588   4587   4591     1   108.3000464 339.740800
   4589   4587   4591     1   108.3000464 339.740800
   4592   4595   4596     1   109.8000471 387.438400
   4592   4595   4597     1   109.8000471 387.438400
   4592   4601   4602     1   110.1100470 384.091200
   4592   4601   4603     1   110.1100470 384.091200
   4592   4601   4605     1   110.1100470 384.091200
   4593   4592   4595     1   110.5600475 386.601600
   4593   4592   4601     1   108.0100461 406.684800
   4593   4592   4594     1   109.7500473 328.025600
   4594   4592   4595     1   110.5600475 386.601600
   4594   4592   4601     1   108.0100461 406.684800
   4595   4598   4599     1   109.5600471 388.275200
   4595   4598   4600     1   109.5600471 388.275200
   4596   4595   4598     1   109.8000471 387.438400
   4596   4595   4597     1   107.5800459 329.699200
   4597   4595   4598     1   109.8000471 387.438400
   4599   4598   4604     1   109.7800468 425.094400
   4599   4598   4600     1   108.4600466 328.025600
   4600   4598   4604     1   109.7800468 425.094400
   4602   4601   4603     1   108.3000464 339.740800
   4602   4601   4605     1   108.3000464 339.740800
   4603   4601   4605     1   108.3000464 339.740800
   4606   4609   4610     1   109.8000471 387.438400
   4606   4609   4611     1   109.8000471 387.438400
   4606   4615   4616     1   110.1100470 384.091200
   4606   4615   4617     1   110.1100470 384.091200
   4606   4615   4619     1   110.1100470 384.091200
   4607   4606   4609     1   110.5600475 386.601600
   4607   4606   4615     1   108.0100461 406.684800
   4607   4606   4608     1   109.7500473 328.025600
   4608   4606   4609     1   110.5600475 386.601600
   4608   4606   4615     1   108.0100461 406.684800
   4609   4612   4613     1   109.5600471 388.275200
   4609   4612   4614     1   109.5600471 388.275200
   4610   4609   4612     1   109.8000471 387.438400
   4610   4609   4611     1   107.5800459 329.699200
   4611   4609   4612     1   109.8000471 387.438400
   4613   4612   4618     1   109.7800468 425.094400
   4613   4612   4614     1   108.4600466 328.025600
   4614   4612   4618     1   109.7800468 425.094400
   4616   4615   4617     1   108.3000464 339.740800
   4616   4615   4619     1   108.3000464 339.740800
   4617   4615   4619     1   108.3000464 339.740800
   4620   4623   4624     1   109.8000471 387.438400
   4620   4623   4625     1   109.8000471 387.438400
   4620   4629   4630     1   110.1100470 384.091200
   4620   4629   4631     1   110.1100470 384.091200
   4620   4629   4633     1   110.1100470 384.091200
   4621   4620   4623     1   110.5600475 386.601600
   4621   4620   4629     1   108.0100461 406.684800
   4621   4620   4622     1   109.7500473 328.025600
   4622   4620   4623     1   110.5600475 386.601600
   4622   4620   4629     1   108.0100461 406.684800
   4623   4626   4627     1   109.5600471 388.275200
   4623   4626   4628     1   109.5600471 388.275200
   4624   4623   4626     1   109.8000471 387.438400
   4624   4623   4625     1   107.5800459 329.699200
   4625   4623   4626     1   109.8000471 387.438400
   4627   4626   4632     1   109.7800468 425.094400
   4627   4626   4628     1   108.4600466 328.025600
   4628   4626   4632     1   109.7800468 425.094400
   4630   4629   4631     1   108.3000464 339.740800
   4630   4629   4633     1   108.3000464 339.740800
   4631   4629   4633     1   108.3000464 339.740800
   4634   4637   4638     1   109.8000471 387.438400
   4634   4637   4639     1   109.8000471 387.438400
   4634   4643   4644     1   110.1100470 384.091200
   4634   4643   4645     1   110.1100470 384.091200
   4634   4643   4647     1   110.1100470 384.091200
   4635   4634   4637     1   110.5600475 386.601600
   4635   4634   4643     1   108.0100461 406.684800
   4635   4634   4636     1   109.7500473 328.025600
   4636   4634   4637     1   110.5600475 386.601600
   4636   4634   4643     1   108.0100461 406.684800
   4637   4640   4641     1   109.5600471 388.275200
   4637   4640   4642     1   109.5600471 388.275200
   4638   4637   4640     1   109.8000471 387.438400
   4638   4637   4639     1   107.5800459 329.699200
   4639   4637   4640     1   109.8000471 387.438400
   4641   4640   4646     1   109.7800468 425.094400
   4641   4640   4642     1   108.4600466 328.025600
   4642   4640   4646     1   109.7800468 425.094400
   4644   4643   4645     1   108.3000464 339.740800
   4644   4643   4647     1   108.3000464 339.740800
   4645   4643   4647     1   108.3000464 339.740800
   4648   4651   4652     1   109.8000471 387.438400
   4648   4651   4653     1   109.8000471 387.438400
   4648   4657   4658     1   110.1100470 384.091200
   4648   4657   4659     1   110.1100470 384.091200
   4648   4657   4661     1   110.1100470 384.091200
   4649   4648   4651     1   110.5600475 386.601600
   4649   4648   4657     1   108.0100461 406.684800
   4649   4648   4650     1   109.7500473 328.025600
   4650   4648   4651     1   110.5600475 386.601600
   4650   4648   4657     1   108.0100461 406.684800
   4651   4654   4655     1   109.5600471 388.275200
   4651   4654   4656     1   109.5600471 388.275200
   4652   4651   4654     1   109.8000471 387.438400
   4652   4651   4653     1   107.5800459 329.699200
   4653   4651   4654     1   109.8000471 387.438400
   4655   4654   4660     1   109.7800468 425.094400
   4655   4654   4656     1   108.4600466 328.025600
   4656   4654   4660     1   109.7800468 425.094400
   4658   4657   4659     1   108.3000464 339.740800
   4658   4657   4661     1   108.3000464 339.740800
   4659   4657   4661     1   108.3000464 339.740800
   4662   4665   4666     1   109.8000471 387.438400
   4662   4665   4667     1   109.8000471 387.438400
   4662   4671   4672     1   110.1100470 384.091200
   4662   4671   4673     1   110.1100470 384.091200
   4662   4671   4675     1   110.1100470 384.091200
   4663   4662   4665     1   110.5600475 386.601600
   4663   4662   4671     1   108.0100461 406.684800
   4663   4662   4664     1   109.7500473 328.025600
   4664   4662   4665     1   110.5600475 386.601600
   4664   4662   4671     1   108.0100461 406.684800
   4665   4668   4669     1   109.5600471 388.275200
   4665   4668   4670     1   109.5600471 388.275200
   4666   4665   4668     1   109.8000471 387.438400
   4666   4665   4667     1   107.5800459 329.699200
   4667   4665   4668     1   109.8000471 387.438400
   4669   4668   4674     1   109.7800468 425.094400
   4669   4668   4670     1   108.4600466 328.025600
   4670   4668   4674     1   109.7800468 425.094400
   4672   4671   4673     1   108.3000464 339.740800
   4672   4671   4675     1   108.3000464 339.740800
   4673   4671   4675     1   108.3000464 339.740800
   4676   4679   4680     1   109.8000471 387.438400
   4676   4679   4681     1   109.8000471 387.438400
   4676   4685   4686     1   110.1100470 384.091200
   4676   4685   4687     1   110.1100470 384.091200
   4676   4685   4689     1   110.1100470 384.091200
   4677   4676   4679     1   110.5600475 386.601600
   4677   4676   4685     1   108.0100461 406.684800
   4677   4676   4678     1   109.7500473 328.025600
   4678   4676   4679     1   110.5600475 386.601600
   4678   4676   4685     1   108.0100461 406.684800
   4679   4682   4683     1   109.5600471 388.275200
   4679   4682   4684     1   109.5600471 388.275200
   4680   4679   4682     1   109.8000471 387.438400
   4680   4679   4681     1   107.5800459 329.699200
   4681   4679   4682     1   109.8000471 387.438400
   4683   4682   4688     1   109.7800468 425.094400
   4683   4682   4684     1   108.4600466 328.025600
   4684   4682   4688     1   109.7800468 425.094400
   4686   4685   4687     1   108.3000464 339.740800
   4686   4685   4689     1   108.3000464 339.740800
   4687   4685   4689     1   108.3000464 339.740800
   4690   4693   4694     1   109.8000471 387.438400
   4690   4693   4695     1   109.8000471 387.438400
   4690   4699   4700     1   110.1100470 384.091200
   4690   4699   4701     1   110.1100470 384.091200
   4690   4699   4703     1   110.1100470 384.091200
   4691   4690   4693     1   110.5600475 386.601600
   4691   4690   4699     1   108.0100461 406.684800
   4691   4690   4692     1   109.7500473 328.025600
   4692   4690   4693     1   110.5600475 386.601600
   4692   4690   4699     1   108.0100461 406.684800
   4693   4696   4697     1   109.5600471 388.275200
   4693   4696   4698     1   109.5600471 388.275200
   4694   4693   4696     1   109.8000471 387.438400
   4694   4693   4695     1   107.5800459 329.699200
   4695   4693   4696     1   109.8000471 387.438400
   4697   4696   4702     1   109.7800468 425.094400
   4697   4696   4698     1   108.4600466 328.025600
   4698   4696   4702     1   109.7800468 425.094400
   4700   4699   4701     1   108.3000464 339.740800
   4700   4699   4703     1   108.3000464 339.740800
   4701   4699   4703     1   108.3000464 339.740800
   4704   4707   4708     1   109.8000471 387.438400
   4704   4707   4709     1   109.8000471 387.438400
   4704   4713   4714     1   110.1100470 384.091200
   4704   4713   4715     1   110.1100470 384.091200
   4704   4713   4717     1   110.1100470 384.091200
   4705   4704   4707     1   110.5600475 386.601600
   4705   4704   4713     1   108.0100461 406.684800
   4705   4704   4706     1   109.7500473 328.025600
   4706   4704   4707     1   110.5600475 386.601600
   4706   4704   4713     1   108.0100461 406.684800
   4707   4710   4711     1   109.5600471 388.275200
   4707   4710   4712     1   109.5600471 388.275200
   4708   4707   4710     1   109.8000471 387.438400
   4708   4707   4709     1   107.5800459 329.699200
   4709   4707   4710     1   109.8000471 387.438400
   4711   4710   4716     1   109.7800468 425.094400
   4711   4710   4712     1   108.4600466 328.025600
   4712   4710   4716     1   109.7800468 425.094400
   4714   4713   4715     1   108.3000464 339.740800
   4714   4713   4717     1   108.3000464 339.740800
   4715   4713   4717     1   108.3000464 339.740800
   4718   4721   4722     1   109.8000471 387.438400
   4718   4721   4723     1   109.8000471 387.438400
   4718   4727   4728     1   110.1100470 384.091200
   4718   4727   4729     1   110.1100470 384.091200
   4718   4727   4731     1   110.1100470 384.091200
   4719   4718   4721     1   110.5600475 386.601600
   4719   4718   4727     1   108.0100461 406.684800
   4719   4718   4720     1   109.7500473 328.025600
   4720   4718   4721     1   110.5600475 386.601600
   4720   4718   4727     1   108.0100461 406.684800
   4721   4724   4725     1   109.5600471 388.275200
   4721   4724   4726     1   109.5600471 388.275200
   4722   4721   4724     1   109.8000471 387.438400
   4722   4721   4723     1   107.5800459 329.699200
   4723   4721   4724     1   109.8000471 387.438400
   4725   4724   4730     1   109.7800468 425.094400
   4725   4724   4726     1   108.4600466 328.025600
   4726   4724   4730     1   109.7800468 425.094400
   4728   4727   4729     1   108.3000464 339.740800
   4728   4727   4731     1   108.3000464 339.740800
   4729   4727   4731     1   108.3000464 339.740800
   4732   4735   4736     1   109.8000471 387.438400
   4732   4735   4737     1   109.8000471 387.438400
   4732   4741   4742     1   110.1100470 384.091200
   4732   4741   4743     1   110.1100470 384.091200
   4732   4741   4745     1   110.1100470 384.091200
   4733   4732   4735     1   110.5600475 386.601600
   4733   4732   4741     1   108.0100461 406.684800
   4733   4732   4734     1   109.7500473 328.025600
   4734   4732   4735     1   110.5600475 386.601600
   4734   4732   4741     1   108.0100461 406.684800
   4735   4738   4739     1   109.5600471 388.275200
   4735   4738   4740     1   109.5600471 388.275200
   4736   4735   4738     1   109.8000471 387.438400
   4736   4735   4737     1   107.5800459 329.699200
   4737   4735   4738     1   109.8000471 387.438400
   4739   4738   4744     1   109.7800468 425.094400
   4739   4738   4740     1   108.4600466 328.025600
   4740   4738   4744     1   109.7800468 425.094400
   4742   4741   4743     1   108.3000464 339.740800
   4742   4741   4745     1   108.3000464 339.740800
   4743   4741   4745     1   108.3000464 339.740800
   4746   4749   4750     1   109.8000471 387.438400
   4746   4749   4751     1   109.8000471 387.438400
   4746   4755   4756     1   110.1100470 384.091200
   4746   4755   4757     1   110.1100470 384.091200
   4746   4755   4759     1   110.1100470 384.091200
   4747   4746   4749     1   110.5600475 386.601600
   4747   4746   4755     1   108.0100461 406.684800
   4747   4746   4748     1   109.7500473 328.025600
   4748   4746   4749     1   110.5600475 386.601600
   4748   4746   4755     1   108.0100461 406.684800
   4749   4752   4753     1   109.5600471 388.275200
   4749   4752   4754     1   109.5600471 388.275200
   4750   4749   4752     1   109.8000471 387.438400
   4750   4749   4751     1   107.5800459 329.699200
   4751   4749   4752     1   109.8000471 387.438400
   4753   4752   4758     1   109.7800468 425.094400
   4753   4752   4754     1   108.4600466 328.025600
   4754   4752   4758     1   109.7800468 425.094400
   4756   4755   4757     1   108.3000464 339.740800
   4756   4755   4759     1   108.3000464 339.740800
   4757   4755   4759     1   108.3000464 339.740800
   4760   4763   4764     1   109.8000471 387.438400
   4760   4763   4765     1   109.8000471 387.438400
   4760   4769   4770     1   110.1100470 384.091200
   4760   4769   4771     1   110.1100470 384.091200
   4760   4769   4773     1   110.1100470 384.091200
   4761   4760   4763     1   110.5600475 386.601600
   4761   4760   4769     1   108.0100461 406.684800
   4761   4760   4762     1   109.7500473 328.025600
   4762   4760   4763     1   110.5600475 386.601600
   4762   4760   4769     1   108.0100461 406.684800
   4763   4766   4767     1   109.5600471 388.275200
   4763   4766   4768     1   109.5600471 388.275200
   4764   4763   4766     1   109.8000471 387.438400
   4764   4763   4765     1   107.5800459 329.699200
   4765   4763   4766     1   109.8000471 387.438400
   4767   4766   4772     1   109.7800468 425.094400
   4767   4766   4768     1   108.4600466 328.025600
   4768   4766   4772     1   109.7800468 425.094400
   4770   4769   4771     1   108.3000464 339.740800
   4770   4769   4773     1   108.3000464 339.740800
   4771   4769   4773     1   108.3000464 339.740800
   4774   4777   4778     1   109.8000471 387.438400
   4774   4777   4779     1   109.8000471 387.438400
   4774   4783   4784     1   110.1100470 384.091200
   4774   4783   4785     1   110.1100470 384.091200
   4774   4783   4787     1   110.1100470 384.091200
   4775   4774   4777     1   110.5600475 386.601600
   4775   4774   4783     1   108.0100461 406.684800
   4775   4774   4776     1   109.7500473 328.025600
   4776   4774   4777     1   110.5600475 386.601600
   4776   4774   4783     1   108.0100461 406.684800
   4777   4780   4781     1   109.5600471 388.275200
   4777   4780   4782     1   109.5600471 388.275200
   4778   4777   4780     1   109.8000471 387.438400
   4778   4777   4779     1   107.5800459 329.699200
   4779   4777   4780     1   109.8000471 387.438400
   4781   4780   4786     1   109.7800468 425.094400
   4781   4780   4782     1   108.4600466 328.025600
   4782   4780   4786     1   109.7800468 425.094400
   4784   4783   4785     1   108.3000464 339.740800
   4784   4783   4787     1   108.3000464 339.740800
   4785   4783   4787     1   108.3000464 339.740800
   4788   4791   4792     1   109.8000471 387.438400
   4788   4791   4793     1   109.8000471 387.438400
   4788   4797   4798     1   110.1100470 384.091200
   4788   4797   4799     1   110.1100470 384.091200
   4788   4797   4801     1   110.1100470 384.091200
   4789   4788   4791     1   110.5600475 386.601600
   4789   4788   4797     1   108.0100461 406.684800
   4789   4788   4790     1   109.7500473 328.025600
   4790   4788   4791     1   110.5600475 386.601600
   4790   4788   4797     1   108.0100461 406.684800
   4791   4794   4795     1   109.5600471 388.275200
   4791   4794   4796     1   109.5600471 388.275200
   4792   4791   4794     1   109.8000471 387.438400
   4792   4791   4793     1   107.5800459 329.699200
   4793   4791   4794     1   109.8000471 387.438400
   4795   4794   4800     1   109.7800468 425.094400
   4795   4794   4796     1   108.4600466 328.025600
   4796   4794   4800     1   109.7800468 425.094400
   4798   4797   4799     1   108.3000464 339.740800
   4798   4797   4801     1   108.3000464 339.740800
   4799   4797   4801     1   108.3000464 339.740800
   4802   4805   4806     1   109.8000471 387.438400
   4802   4805   4807     1   109.8000471 387.438400
   4802   4811   4812     1   110.1100470 384.091200
   4802   4811   4813     1   110.1100470 384.091200
   4802   4811   4815     1   110.1100470 384.091200
   4803   4802   4805     1   110.5600475 386.601600
   4803   4802   4811     1   108.0100461 406.684800
   4803   4802   4804     1   109.7500473 328.025600
   4804   4802   4805     1   110.5600475 386.601600
   4804   4802   4811     1   108.0100461 406.684800
   4805   4808   4809     1   109.5600471 388.275200
   4805   4808   4810     1   109.5600471 388.275200
   4806   4805   4808     1   109.8000471 387.438400
   4806   4805   4807     1   107.5800459 329.699200
   4807   4805   4808     1   109.8000471 387.438400
   4809   4808   4814     1   109.7800468 425.094400
   4809   4808   4810     1   108.4600466 328.025600
   4810   4808   4814     1   109.7800468 425.094400
   4812   4811   4813     1   108.3000464 339.740800
   4812   4811   4815     1   108.3000464 339.740800
   4813   4811   4815     1   108.3000464 339.740800
   4816   4819   4820     1   109.8000471 387.438400
   4816   4819   4821     1   109.8000471 387.438400
   4816   4825   4826     1   110.1100470 384.091200
   4816   4825   4827     1   110.1100470 384.091200
   4816   4825   4829     1   110.1100470 384.091200
   4817   4816   4819     1   110.5600475 386.601600
   4817   4816   4825     1   108.0100461 406.684800
   4817   4816   4818     1   109.7500473 328.025600
   4818   4816   4819     1   110.5600475 386.601600
   4818   4816   4825     1   108.0100461 406.684800
   4819   4822   4823     1   109.5600471 388.275200
   4819   4822   4824     1   109.5600471 388.275200
   4820   4819   4822     1   109.8000471 387.438400
   4820   4819   4821     1   107.5800459 329.699200
   4821   4819   4822     1   109.8000471 387.438400
   4823   4822   4828     1   109.7800468 425.094400
   4823   4822   4824     1   108.4600466 328.025600
   4824   4822   4828     1   109.7800468 425.094400
   4826   4825   4827     1   108.3000464 339.740800
   4826   4825   4829     1   108.3000464 339.740800
   4827   4825   4829     1   108.3000464 339.740800
   4830   4833   4834     1   109.8000471 387.438400
   4830   4833   4835     1   109.8000471 387.438400
   4830   4839   4840     1   110.1100470 384.091200
   4830   4839   4841     1   110.1100470 384.091200
   4830   4839   4843     1   110.1100470 384.091200
   4831   4830   4833     1   110.5600475 386.601600
   4831   4830   4839     1   108.0100461 406.684800
   4831   4830   4832     1   109.7500473 328.025600
   4832   4830   4833     1   110.5600475 386.601600
   4832   4830   4839     1   108.0100461 406.684800
   4833   4836   4837     1   109.5600471 388.275200
   4833   4836   4838     1   109.5600471 388.275200
   4834   4833   4836     1   109.8000471 387.438400
   4834   4833   4835     1   107.5800459 329.699200
   4835   4833   4836     1   109.8000471 387.438400
   4837   4836   4842     1   109.7800468 425.094400
   4837   4836   4838     1   108.4600466 328.025600
   4838   4836   4842     1   109.7800468 425.094400
   4840   4839   4841     1   108.3000464 339.740800
   4840   4839   4843     1   108.3000464 339.740800
   4841   4839   4843     1   108.3000464 339.740800
   4844   4847   4848     1   109.8000471 387.438400
   4844   4847   4849     1   109.8000471 387.438400
   4844   4853   4854     1   110.1100470 384.091200
   4844   4853   4855     1   110.1100470 384.091200
   4844   4853   4857     1   110.1100470 384.091200
   4845   4844   4847     1   110.5600475 386.601600
   4845   4844   4853     1   108.0100461 406.684800
   4845   4844   4846     1   109.7500473 328.025600
   4846   4844   4847     1   110.5600475 386.601600
   4846   4844   4853     1   108.0100461 406.684800
   4847   4850   4851     1   109.5600471 388.275200
   4847   4850   4852     1   109.5600471 388.275200
   4848   4847   4850     1   109.8000471 387.438400
   4848   4847   4849     1   107.5800459 329.699200
   4849   4847   4850     1   109.8000471 387.438400
   4851   4850   4856     1   109.7800468 425.094400
   4851   4850   4852     1   108.4600466 328.025600
   4852   4850   4856     1   109.7800468 425.094400
   4854   4853   4855     1   108.3000464 339.740800
   4854   4853   4857     1   108.3000464 339.740800
   4855   4853   4857     1   108.3000464 339.740800
   4858   4861   4862     1   109.8000471 387.438400
   4858   4861   4863     1   109.8000471 387.438400
   4858   4867   4868     1   110.1100470 384.091200
   4858   4867   4869     1   110.1100470 384.091200
   4858   4867   4871     1   110.1100470 384.091200
   4859   4858   4861     1   110.5600475 386.601600
   4859   4858   4867     1   108.0100461 406.684800
   4859   4858   4860     1   109.7500473 328.025600
   4860   4858   4861     1   110.5600475 386.601600
   4860   4858   4867     1   108.0100461 406.684800
   4861   4864   4865     1   109.5600471 388.275200
   4861   4864   4866     1   109.5600471 388.275200
   4862   4861   4864     1   109.8000471 387.438400
   4862   4861   4863     1   107.5800459 329.699200
   4863   4861   4864     1   109.8000471 387.438400
   4865   4864   4870     1   109.7800468 425.094400
   4865   4864   4866     1   108.4600466 328.025600
   4866   4864   4870     1   109.7800468 425.094400
   4868   4867   4869     1   108.3000464 339.740800
   4868   4867   4871     1   108.3000464 339.740800
   4869   4867   4871     1   108.3000464 339.740800
   4872   4875   4876     1   109.8000471 387.438400
   4872   4875   4877     1   109.8000471 387.438400
   4872   4881   4882     1   110.1100470 384.091200
   4872   4881   4883     1   110.1100470 384.091200
   4872   4881   4885     1   110.1100470 384.091200
   4873   4872   4875     1   110.5600475 386.601600
   4873   4872   4881     1   108.0100461 406.684800
   4873   4872   4874     1   109.7500473 328.025600
   4874   4872   4875     1   110.5600475 386.601600
   4874   4872   4881     1   108.0100461 406.684800
   4875   4878   4879     1   109.5600471 388.275200
   4875   4878   4880     1   109.5600471 388.275200
   4876   4875   4878     1   109.8000471 387.438400
   4876   4875   4877     1   107.5800459 329.699200
   4877   4875   4878     1   109.8000471 387.438400
   4879   4878   4884     1   109.7800468 425.094400
   4879   4878   4880     1   108.4600466 328.025600
   4880   4878   4884     1   109.7800468 425.094400
   4882   4881   4883     1   108.3000464 339.740800
   4882   4881   4885     1   108.3000464 339.740800
   4883   4881   4885     1   108.3000464 339.740800
   4886   4889   4890     1   109.8000471 387.438400
   4886   4889   4891     1   109.8000471 387.438400
   4886   4895   4896     1   110.1100470 384.091200
   4886   4895   4897     1   110.1100470 384.091200
   4886   4895   4899     1   110.1100470 384.091200
   4887   4886   4889     1   110.5600475 386.601600
   4887   4886   4895     1   108.0100461 406.684800
   4887   4886   4888     1   109.7500473 328.025600
   4888   4886   4889     1   110.5600475 386.601600
   4888   4886   4895     1   108.0100461 406.684800
   4889   4892   4893     1   109.5600471 388.275200
   4889   4892   4894     1   109.5600471 388.275200
   4890   4889   4892     1   109.8000471 387.438400
   4890   4889   4891     1   107.5800459 329.699200
   4891   4889   4892     1   109.8000471 387.438400
   4893   4892   4898     1   109.7800468 425.094400
   4893   4892   4894     1   108.4600466 328.025600
   4894   4892   4898     1   109.7800468 425.094400
   4896   4895   4897     1   108.3000464 339.740800
   4896   4895   4899     1   108.3000464 339.740800
   4897   4895   4899     1   108.3000464 339.740800
   4900   4903   4904     1   109.8000471 387.438400
   4900   4903   4905     1   109.8000471 387.438400
   4900   4909   4910     1   110.1100470 384.091200
   4900   4909   4911     1   110.1100470 384.091200
   4900   4909   4913     1   110.1100470 384.091200
   4901   4900   4903     1   110.5600475 386.601600
   4901   4900   4909     1   108.0100461 406.684800
   4901   4900   4902     1   109.7500473 328.025600
   4902   4900   4903     1   110.5600475 386.601600
   4902   4900   4909     1   108.0100461 406.684800
   4903   4906   4907     1   109.5600471 388.275200
   4903   4906   4908     1   109.5600471 388.275200
   4904   4903   4906     1   109.8000471 387.438400
   4904   4903   4905     1   107.5800459 329.699200
   4905   4903   4906     1   109.8000471 387.438400
   4907   4906   4912     1   109.7800468 425.094400
   4907   4906   4908     1   108.4600466 328.025600
   4908   4906   4912     1   109.7800468 425.094400
   4910   4909   4911     1   108.3000464 339.740800
   4910   4909   4913     1   108.3000464 339.740800
   4911   4909   4913     1   108.3000464 339.740800
   4914   4917   4918     1   109.8000471 387.438400
   4914   4917   4919     1   109.8000471 387.438400
   4914   4923   4924     1   110.1100470 384.091200
   4914   4923   4925     1   110.1100470 384.091200
   4914   4923   4927     1   110.1100470 384.091200
   4915   4914   4917     1   110.5600475 386.601600
   4915   4914   4923     1   108.0100461 406.684800
   4915   4914   4916     1   109.7500473 328.025600
   4916   4914   4917     1   110.5600475 386.601600
   4916   4914   4923     1   108.0100461 406.684800
   4917   4920   4921     1   109.5600471 388.275200
   4917   4920   4922     1   109.5600471 388.275200
   4918   4917   4920     1   109.8000471 387.438400
   4918   4917   4919     1   107.5800459 329.699200
   4919   4917   4920     1   109.8000471 387.438400
   4921   4920   4926     1   109.7800468 425.094400
   4921   4920   4922     1   108.4600466 328.025600
   4922   4920   4926     1   109.7800468 425.094400
   4924   4923   4925     1   108.3000464 339.740800
   4924   4923   4927     1   108.3000464 339.740800
   4925   4923   4927     1   108.3000464 339.740800
   4928   4931   4932     1   109.8000471 387.438400
   4928   4931   4933     1   109.8000471 387.438400
   4928   4937   4938     1   110.1100470 384.091200
   4928   4937   4939     1   110.1100470 384.091200
   4928   4937   4941     1   110.1100470 384.091200
   4929   4928   4931     1   110.5600475 386.601600
   4929   4928   4937     1   108.0100461 406.684800
   4929   4928   4930     1   109.7500473 328.025600
   4930   4928   4931     1   110.5600475 386.601600
   4930   4928   4937     1   108.0100461 406.684800
   4931   4934   4935     1   109.5600471 388.275200
   4931   4934   4936     1   109.5600471 388.275200
   4932   4931   4934     1   109.8000471 387.438400
   4932   4931   4933     1   107.5800459 329.699200
   4933   4931   4934     1   109.8000471 387.438400
   4935   4934   4940     1   109.7800468 425.094400
   4935   4934   4936     1   108.4600466 328.025600
   4936   4934   4940     1   109.7800468 425.094400
   4938   4937   4939     1   108.3000464 339.740800
   4938   4937   4941     1   108.3000464 339.740800
   4939   4937   4941     1   108.3000464 339.740800
   4942   4945   4946     1   109.8000471 387.438400
   4942   4945   4947     1   109.8000471 387.438400
   4942   4951   4952     1   110.1100470 384.091200
   4942   4951   4953     1   110.1100470 384.091200
   4942   4951   4955     1   110.1100470 384.091200
   4943   4942   4945     1   110.5600475 386.601600
   4943   4942   4951     1   108.0100461 406.684800
   4943   4942   4944     1   109.7500473 328.025600
   4944   4942   4945     1   110.5600475 386.601600
   4944   4942   4951     1   108.0100461 406.684800
   4945   4948   4949     1   109.5600471 388.275200
   4945   4948   4950     1   109.5600471 388.275200
   4946   4945   4948     1   109.8000471 387.438400
   4946   4945   4947     1   107.5800459 329.699200
   4947   4945   4948     1   109.8000471 387.438400
   4949   4948   4954     1   109.7800468 425.094400
   4949   4948   4950     1   108.4600466 328.025600
   4950   4948   4954     1   109.7800468 425.094400
   4952   4951   4953     1   108.3000464 339.740800
   4952   4951   4955     1   108.3000464 339.740800
   4953   4951   4955     1   108.3000464 339.740800
   4956   4959   4960     1   109.8000471 387.438400
   4956   4959   4961     1   109.8000471 387.438400
   4956   4965   4966     1   110.1100470 384.091200
   4956   4965   4967     1   110.1100470 384.091200
   4956   4965   4969     1   110.1100470 384.091200
   4957   4956   4959     1   110.5600475 386.601600
   4957   4956   4965     1   108.0100461 406.684800
   4957   4956   4958     1   109.7500473 328.025600
   4958   4956   4959     1   110.5600475 386.601600
   4958   4956   4965     1   108.0100461 406.684800
   4959   4962   4963     1   109.5600471 388.275200
   4959   4962   4964     1   109.5600471 388.275200
   4960   4959   4962     1   109.8000471 387.438400
   4960   4959   4961     1   107.5800459 329.699200
   4961   4959   4962     1   109.8000471 387.438400
   4963   4962   4968     1   109.7800468 425.094400
   4963   4962   4964     1   108.4600466 328.025600
   4964   4962   4968     1   109.7800468 425.094400
   4966   4965   4967     1   108.3000464 339.740800
   4966   4965   4969     1   108.3000464 339.740800
   4967   4965   4969     1   108.3000464 339.740800
   4970   4973   4974     1   109.8000471 387.438400
   4970   4973   4975     1   109.8000471 387.438400
   4970   4979   4980     1   110.1100470 384.091200
   4970   4979   4981     1   110.1100470 384.091200
   4970   4979   4983     1   110.1100470 384.091200
   4971   4970   4973     1   110.5600475 386.601600
   4971   4970   4979     1   108.0100461 406.684800
   4971   4970   4972     1   109.7500473 328.025600
   4972   4970   4973     1   110.5600475 386.601600
   4972   4970   4979     1   108.0100461 406.684800
   4973   4976   4977     1   109.5600471 388.275200
   4973   4976   4978     1   109.5600471 388.275200
   4974   4973   4976     1   109.8000471 387.438400
   4974   4973   4975     1   107.5800459 329.699200
   4975   4973   4976     1   109.8000471 387.438400
   4977   4976   4982     1   109.7800468 425.094400
   4977   4976   4978     1   108.4600466 328.025600
   4978   4976   4982     1   109.7800468 425.094400
   4980   4979   4981     1   108.3000464 339.740800
   4980   4979   4983     1   108.3000464 339.740800
   4981   4979   4983     1   108.3000464 339.740800
   4984   4987   4988     1   109.8000471 387.438400
   4984   4987   4989     1   109.8000471 387.438400
   4984   4993   4994     1   110.1100470 384.091200
   4984   4993   4995     1   110.1100470 384.091200
   4984   4993   4997     1   110.1100470 384.091200
   4985   4984   4987     1   110.5600475 386.601600
   4985   4984   4993     1   108.0100461 406.684800
   4985   4984   4986     1   109.7500473 328.025600
   4986   4984   4987     1   110.5600475 386.601600
   4986   4984   4993     1   108.0100461 406.684800
   4987   4990   4991     1   109.5600471 388.275200
   4987   4990   4992     1   109.5600471 388.275200
   4988   4987   4990     1   109.8000471 387.438400
   4988   4987   4989     1   107.5800459 329.699200
   4989   4987   4990     1   109.8000471 387.438400
   4991   4990   4996     1   109.7800468 425.094400
   4991   4990   4992     1   108.4600466 328.025600
   4992   4990   4996     1   109.7800468 425.094400
   4994   4993   4995     1   108.3000464 339.740800
   4994   4993   4997     1   108.3000464 339.740800
   4995   4993   4997     1   108.3000464 339.740800
   4998   5001   5002     1   109.8000471 387.438400
   4998   5001   5003     1   109.8000471 387.438400
   4998   5007   5008     1   110.1100470 384.091200
   4998   5007   5009     1   110.1100470 384.091200
   4998   5007   5011     1   110.1100470 384.091200
   4999   4998   5001     1   110.5600475 386.601600
   4999   4998   5007     1   108.0100461 406.684800
   4999   4998   5000     1   109.7500473 328.025600
   5000   4998   5001     1   110.5600475 386.601600
   5000   4998   5007     1   108.0100461 406.684800
   5001   5004   5005     1   109.5600471 388.275200
   5001   5004   5006     1   109.5600471 388.275200
   5002   5001   5004     1   109.8000471 387.438400
   5002   5001   5003     1   107.5800459 329.699200
   5003   5001   5004     1   109.8000471 387.438400
   5005   5004   5010     1   109.7800468 425.094400
   5005   5004   5006     1   108.4600466 328.025600
   5006   5004   5010     1   109.7800468 425.094400
   5008   5007   5009     1   108.3000464 339.740800
   5008   5007   5011     1   108.3000464 339.740800
   5009   5007   5011     1   108.3000464 339.740800
   5012   5015   5016     1   109.8000471 387.438400
   5012   5015   5017     1   109.8000471 387.438400
   5012   5021   5022     1   110.1100470 384.091200
   5012   5021   5023     1   110.1100470 384.091200
   5012   5021   5025     1   110.1100470 384.091200
   5013   5012   5015     1   110.5600475 386.601600
   5013   5012   5021     1   108.0100461 406.684800
   5013   5012   5014     1   109.7500473 328.025600
   5014   5012   5015     1   110.5600475 386.601600
   5014   5012   5021     1   108.0100461 406.684800
   5015   5018   5019     1   109.5600471 388.275200
   5015   5018   5020     1   109.5600471 388.275200
   5016   5015   5018     1   109.8000471 387.438400
   5016   5015   5017     1   107.5800459 329.699200
   5017   5015   5018     1   109.8000471 387.438400
   5019   5018   5024     1   109.7800468 425.094400
   5019   5018   5020     1   108.4600466 328.025600
   5020   5018   5024     1   109.7800468 425.094400
   5022   5021   5023     1   108.3000464 339.740800
   5022   5021   5025     1   108.3000464 339.740800
   5023   5021   5025     1   108.3000464 339.740800
   5026   5029   5030     1   109.8000471 387.438400
   5026   5029   5031     1   109.8000471 387.438400
   5026   5035   5036     1   110.1100470 384.091200
   5026   5035   5037     1   110.1100470 384.091200
   5026   5035   5039     1   110.1100470 384.091200
   5027   5026   5029     1   110.5600475 386.601600
   5027   5026   5035     1   108.0100461 406.684800
   5027   5026   5028     1   109.7500473 328.025600
   5028   5026   5029     1   110.5600475 386.601600
   5028   5026   5035     1   108.0100461 406.684800
   5029   5032   5033     1   109.5600471 388.275200
   5029   5032   5034     1   109.5600471 388.275200
   5030   5029   5032     1   109.8000471 387.438400
   5030   5029   5031     1   107.5800459 329.699200
   5031   5029   5032     1   109.8000471 387.438400
   5033   5032   5038     1   109.7800468 425.094400
   5033   5032   5034     1   108.4600466 328.025600
   5034   5032   5038     1   109.7800468 425.094400
   5036   5035   5037     1   108.3000464 339.740800
   5036   5035   5039     1   108.3000464 339.740800
   5037   5035   5039     1   108.3000464 339.740800
   5040   5043   5044     1   109.8000471 387.438400
   5040   5043   5045     1   109.8000471 387.438400
   5040   5049   5050     1   110.1100470 384.091200
   5040   5049   5051     1   110.1100470 384.091200
   5040   5049   5053     1   110.1100470 384.091200
   5041   5040   5043     1   110.5600475 386.601600
   5041   5040   5049     1   108.0100461 406.684800
   5041   5040   5042     1   109.7500473 328.025600
   5042   5040   5043     1   110.5600475 386.601600
   5042   5040   5049     1   108.0100461 406.684800
   5043   5046   5047     1   109.5600471 388.275200
   5043   5046   5048     1   109.5600471 388.275200
   5044   5043   5046     1   109.8000471 387.438400
   5044   5043   5045     1   107.5800459 329.699200
   5045   5043   5046     1   109.8000471 387.438400
   5047   5046   5052     1   109.7800468 425.094400
   5047   5046   5048     1   108.4600466 328.025600
   5048   5046   5052     1   109.7800468 425.094400
   5050   5049   5051     1   108.3000464 339.740800
   5050   5049   5053     1   108.3000464 339.740800
   5051   5049   5053     1   108.3000464 339.740800
   5054   5057   5058     1   109.8000471 387.438400
   5054   5057   5059     1   109.8000471 387.438400
   5054   5063   5064     1   110.1100470 384.091200
   5054   5063   5065     1   110.1100470 384.091200
   5054   5063   5067     1   110.1100470 384.091200
   5055   5054   5057     1   110.5600475 386.601600
   5055   5054   5063     1   108.0100461 406.684800
   5055   5054   5056     1   109.7500473 328.025600
   5056   5054   5057     1   110.5600475 386.601600
   5056   5054   5063     1   108.0100461 406.684800
   5057   5060   5061     1   109.5600471 388.275200
   5057   5060   5062     1   109.5600471 388.275200
   5058   5057   5060     1   109.8000471 387.438400
   5058   5057   5059     1   107.5800459 329.699200
   5059   5057   5060     1   109.8000471 387.438400
   5061   5060   5066     1   109.7800468 425.094400
   5061   5060   5062     1   108.4600466 328.025600
   5062   5060   5066     1   109.7800468 425.094400
   5064   5063   5065     1   108.3000464 339.740800
   5064   5063   5067     1   108.3000464 339.740800
   5065   5063   5067     1   108.3000464 339.740800
   5068   5071   5072     1   109.8000471 387.438400
   5068   5071   5073     1   109.8000471 387.438400
   5068   5077   5078     1   110.1100470 384.091200
   5068   5077   5079     1   110.1100470 384.091200
   5068   5077   5081     1   110.1100470 384.091200
   5069   5068   5071     1   110.5600475 386.601600
   5069   5068   5077     1   108.0100461 406.684800
   5069   5068   5070     1   109.7500473 328.025600
   5070   5068   5071     1   110.5600475 386.601600
   5070   5068   5077     1   108.0100461 406.684800
   5071   5074   5075     1   109.5600471 388.275200
   5071   5074   5076     1   109.5600471 388.275200
   5072   5071   5074     1   109.8000471 387.438400
   5072   5071   5073     1   107.5800459 329.699200
   5073   5071   5074     1   109.8000471 387.438400
   5075   5074   5080     1   109.7800468 425.094400
   5075   5074   5076     1   108.4600466 328.025600
   5076   5074   5080     1   109.7800468 425.094400
   5078   5077   5079     1   108.3000464 339.740800
   5078   5077   5081     1   108.3000464 339.740800
   5079   5077   5081     1   108.3000464 339.740800
   5082   5085   5086     1   109.8000471 387.438400
   5082   5085   5087     1   109.8000471 387.438400
   5082   5091   5092     1   110.1100470 384.091200
   5082   5091   5093     1   110.1100470 384.091200
   5082   5091   5095     1   110.1100470 384.091200
   5083   5082   5085     1   110.5600475 386.601600
   5083   5082   5091     1   108.0100461 406.684800
   5083   5082   5084     1   109.7500473 328.025600
   5084   5082   5085     1   110.5600475 386.601600
   5084   5082   5091     1   108.0100461 406.684800
   5085   5088   5089     1   109.5600471 388.275200
   5085   5088   5090     1   109.5600471 388.275200
   5086   5085   5088     1   109.8000471 387.438400
   5086   5085   5087     1   107.5800459 329.699200
   5087   5085   5088     1   109.8000471 387.438400
   5089   5088   5094     1   109.7800468 425.094400
   5089   5088   5090     1   108.4600466 328.025600
   5090   5088   5094     1   109.7800468 425.094400
   5092   5091   5093     1   108.3000464 339.740800
   5092   5091   5095     1   108.3000464 339.740800
   5093   5091   5095     1   108.3000464 339.740800
   5096   5099   5100     1   109.8000471 387.438400
   5096   5099   5101     1   109.8000471 387.438400
   5096   5105   5106     1   110.1100470 384.091200
   5096   5105   5107     1   110.1100470 384.091200
   5096   5105   5109     1   110.1100470 384.091200
   5097   5096   5099     1   110.5600475 386.601600
   5097   5096   5105     1   108.0100461 406.684800
   5097   5096   5098     1   109.7500473 328.025600
   5098   5096   5099     1   110.5600475 386.601600
   5098   5096   5105     1   108.0100461 406.684800
   5099   5102   5103     1   109.5600471 388.275200
   5099   5102   5104     1   109.5600471 388.275200
   5100   5099   5102     1   109.8000471 387.438400
   5100   5099   5101     1   107.5800459 329.699200
   5101   5099   5102     1   109.8000471 387.438400
   5103   5102   5108     1   109.7800468 425.094400
   5103   5102   5104     1   108.4600466 328.025600
   5104   5102   5108     1   109.7800468 425.094400
   5106   5105   5107     1   108.3000464 339.740800
   5106   5105   5109     1   108.3000464 339.740800
   5107   5105   5109     1   108.3000464 339.740800
   5110   5113   5114     1   109.8000471 387.438400
   5110   5113   5115     1   109.8000471 387.438400
   5110   5119   5120     1   110.1100470 384.091200
   5110   5119   5121     1   110.1100470 384.091200
   5110   5119   5123     1   110.1100470 384.091200
   5111   5110   5113     1   110.5600475 386.601600
   5111   5110   5119     1   108.0100461 406.684800
   5111   5110   5112     1   109.7500473 328.025600
   5112   5110   5113     1   110.5600475 386.601600
   5112   5110   5119     1   108.0100461 406.684800
   5113   5116   5117     1   109.5600471 388.275200
   5113   5116   5118     1   109.5600471 388.275200
   5114   5113   5116     1   109.8000471 387.438400
   5114   5113   5115     1   107.5800459 329.699200
   5115   5113   5116     1   109.8000471 387.438400
   5117   5116   5122     1   109.7800468 425.094400
   5117   5116   5118     1   108.4600466 328.025600
   5118   5116   5122     1   109.7800468 425.094400
   5120   5119   5121     1   108.3000464 339.740800
   5120   5119   5123     1   108.3000464 339.740800
   5121   5119   5123     1   108.3000464 339.740800
   5124   5127   5128     1   109.8000471 387.438400
   5124   5127   5129     1   109.8000471 387.438400
   5124   5133   5134     1   110.1100470 384.091200
   5124   5133   5135     1   110.1100470 384.091200
   5124   5133   5137     1   110.1100470 384.091200
   5125   5124   5127     1   110.5600475 386.601600
   5125   5124   5133     1   108.0100461 406.684800
   5125   5124   5126     1   109.7500473 328.025600
   5126   5124   5127     1   110.5600475 386.601600
   5126   5124   5133     1   108.0100461 406.684800
   5127   5130   5131     1   109.5600471 388.275200
   5127   5130   5132     1   109.5600471 388.275200
   5128   5127   5130     1   109.8000471 387.438400
   5128   5127   5129     1   107.5800459 329.699200
   5129   5127   5130     1   109.8000471 387.438400
   5131   5130   5136     1   109.7800468 425.094400
   5131   5130   5132     1   108.4600466 328.025600
   5132   5130   5136     1   109.7800468 425.094400
   5134   5133   5135     1   108.3000464 339.740800
   5134   5133   5137     1   108.3000464 339.740800
   5135   5133   5137     1   108.3000464 339.740800
   5138   5141   5142     1   109.8000471 387.438400
   5138   5141   5143     1   109.8000471 387.438400
   5138   5147   5148     1   110.1100470 384.091200
   5138   5147   5149     1   110.1100470 384.091200
   5138   5147   5151     1   110.1100470 384.091200
   5139   5138   5141     1   110.5600475 386.601600
   5139   5138   5147     1   108.0100461 406.684800
   5139   5138   5140     1   109.7500473 328.025600
   5140   5138   5141     1   110.5600475 386.601600
   5140   5138   5147     1   108.0100461 406.684800
   5141   5144   5145     1   109.5600471 388.275200
   5141   5144   5146     1   109.5600471 388.275200
   5142   5141   5144     1   109.8000471 387.438400
   5142   5141   5143     1   107.5800459 329.699200
   5143   5141   5144     1   109.8000471 387.438400
   5145   5144   5150     1   109.7800468 425.094400
   5145   5144   5146     1   108.4600466 328.025600
   5146   5144   5150     1   109.7800468 425.094400
   5148   5147   5149     1   108.3000464 339.740800
   5148   5147   5151     1   108.3000464 339.740800
   5149   5147   5151     1   108.3000464 339.740800
   5152   5155   5156     1   109.8000471 387.438400
   5152   5155   5157     1   109.8000471 387.438400
   5152   5161   5162     1   110.1100470 384.091200
   5152   5161   5163     1   110.1100470 384.091200
   5152   5161   5165     1   110.1100470 384.091200
   5153   5152   5155     1   110.5600475 386.601600
   5153   5152   5161     1   108.0100461 406.684800
   5153   5152   5154     1   109.7500473 328.025600
   5154   5152   5155     1   110.5600475 386.601600
   5154   5152   5161     1   108.0100461 406.684800
   5155   5158   5159     1   109.5600471 388.275200
   5155   5158   5160     1   109.5600471 388.275200
   5156   5155   5158     1   109.8000471 387.438400
   5156   5155   5157     1   107.5800459 329.699200
   5157   5155   5158     1   109.8000471 387.438400
   5159   5158   5164     1   109.7800468 425.094400
   5159   5158   5160     1   108.4600466 328.025600
   5160   5158   5164     1   109.7800468 425.094400
   5162   5161   5163     1   108.3000464 339.740800
   5162   5161   5165     1   108.3000464 339.740800
   5163   5161   5165     1   108.3000464 339.740800
   5166   5169   5170     1   109.8000471 387.438400
   5166   5169   5171     1   109.8000471 387.438400
   5166   5175   5176     1   110.1100470 384.091200
   5166   5175   5177     1   110.1100470 384.091200
   5166   5175   5179     1   110.1100470 384.091200
   5167   5166   5169     1   110.5600475 386.601600
   5167   5166   5175     1   108.0100461 406.684800
   5167   5166   5168     1   109.7500473 328.025600
   5168   5166   5169     1   110.5600475 386.601600
   5168   5166   5175     1   108.0100461 406.684800
   5169   5172   5173     1   109.5600471 388.275200
   5169   5172   5174     1   109.5600471 388.275200
   5170   5169   5172     1   109.8000471 387.438400
   5170   5169   5171     1   107.5800459 329.699200
   5171   5169   5172     1   109.8000471 387.438400
   5173   5172   5178     1   109.7800468 425.094400
   5173   5172   5174     1   108.4600466 328.025600
   5174   5172   5178     1   109.7800468 425.094400
   5176   5175   5177     1   108.3000464 339.740800
   5176   5175   5179     1   108.3000464 339.740800
   5177   5175   5179     1   108.3000464 339.740800
   5180   5183   5184     1   109.8000471 387.438400
   5180   5183   5185     1   109.8000471 387.438400
   5180   5189   5190     1   110.1100470 384.091200
   5180   5189   5191     1   110.1100470 384.091200
   5180   5189   5193     1   110.1100470 384.091200
   5181   5180   5183     1   110.5600475 386.601600
   5181   5180   5189     1   108.0100461 406.684800
   5181   5180   5182     1   109.7500473 328.025600
   5182   5180   5183     1   110.5600475 386.601600
   5182   5180   5189     1   108.0100461 406.684800
   5183   5186   5187     1   109.5600471 388.275200
   5183   5186   5188     1   109.5600471 388.275200
   5184   5183   5186     1   109.8000471 387.438400
   5184   5183   5185     1   107.5800459 329.699200
   5185   5183   5186     1   109.8000471 387.438400
   5187   5186   5192     1   109.7800468 425.094400
   5187   5186   5188     1   108.4600466 328.025600
   5188   5186   5192     1   109.7800468 425.094400
   5190   5189   5191     1   108.3000464 339.740800
   5190   5189   5193     1   108.3000464 339.740800
   5191   5189   5193     1   108.3000464 339.740800
   5194   5197   5198     1   109.8000471 387.438400
   5194   5197   5199     1   109.8000471 387.438400
   5194   5203   5204     1   110.1100470 384.091200
   5194   5203   5205     1   110.1100470 384.091200
   5194   5203   5207     1   110.1100470 384.091200
   5195   5194   5197     1   110.5600475 386.601600
   5195   5194   5203     1   108.0100461 406.684800
   5195   5194   5196     1   109.7500473 328.025600
   5196   5194   5197     1   110.5600475 386.601600
   5196   5194   5203     1   108.0100461 406.684800
   5197   5200   5201     1   109.5600471 388.275200
   5197   5200   5202     1   109.5600471 388.275200
   5198   5197   5200     1   109.8000471 387.438400
   5198   5197   5199     1   107.5800459 329.699200
   5199   5197   5200     1   109.8000471 387.438400
   5201   5200   5206     1   109.7800468 425.094400
   5201   5200   5202     1   108.4600466 328.025600
   5202   5200   5206     1   109.7800468 425.094400
   5204   5203   5205     1   108.3000464 339.740800
   5204   5203   5207     1   108.3000464 339.740800
   5205   5203   5207     1   108.3000464 339.740800
   5208   5211   5212     1   109.8000471 387.438400
   5208   5211   5213     1   109.8000471 387.438400
   5208   5217   5218     1   110.1100470 384.091200
   5208   5217   5219     1   110.1100470 384.091200
   5208   5217   5221     1   110.1100470 384.091200
   5209   5208   5211     1   110.5600475 386.601600
   5209   5208   5217     1   108.0100461 406.684800
   5209   5208   5210     1   109.7500473 328.025600
   5210   5208   5211     1   110.5600475 386.601600
   5210   5208   5217     1   108.0100461 406.684800
   5211   5214   5215     1   109.5600471 388.275200
   5211   5214   5216     1   109.5600471 388.275200
   5212   5211   5214     1   109.8000471 387.438400
   5212   5211   5213     1   107.5800459 329.699200
   5213   5211   5214     1   109.8000471 387.438400
   5215   5214   5220     1   109.7800468 425.094400
   5215   5214   5216     1   108.4600466 328.025600
   5216   5214   5220     1   109.7800468 425.094400
   5218   5217   5219     1   108.3000464 339.740800
   5218   5217   5221     1   108.3000464 339.740800
   5219   5217   5221     1   108.3000464 339.740800
   5222   5225   5226     1   109.8000471 387.438400
   5222   5225   5227     1   109.8000471 387.438400
   5222   5231   5232     1   110.1100470 384.091200
   5222   5231   5233     1   110.1100470 384.091200
   5222   5231   5235     1   110.1100470 384.091200
   5223   5222   5225     1   110.5600475 386.601600
   5223   5222   5231     1   108.0100461 406.684800
   5223   5222   5224     1   109.7500473 328.025600
   5224   5222   5225     1   110.5600475 386.601600
   5224   5222   5231     1   108.0100461 406.684800
   5225   5228   5229     1   109.5600471 388.275200
   5225   5228   5230     1   109.5600471 388.275200
   5226   5225   5228     1   109.8000471 387.438400
   5226   5225   5227     1   107.5800459 329.699200
   5227   5225   5228     1   109.8000471 387.438400
   5229   5228   5234     1   109.7800468 425.094400
   5229   5228   5230     1   108.4600466 328.025600
   5230   5228   5234     1   109.7800468 425.094400
   5232   5231   5233     1   108.3000464 339.740800
   5232   5231   5235     1   108.3000464 339.740800
   5233   5231   5235     1   108.3000464 339.740800
   5236   5239   5240     1   109.8000471 387.438400
   5236   5239   5241     1   109.8000471 387.438400
   5236   5245   5246     1   110.1100470 384.091200
   5236   5245   5247     1   110.1100470 384.091200
   5236   5245   5249     1   110.1100470 384.091200
   5237   5236   5239     1   110.5600475 386.601600
   5237   5236   5245     1   108.0100461 406.684800
   5237   5236   5238     1   109.7500473 328.025600
   5238   5236   5239     1   110.5600475 386.601600
   5238   5236   5245     1   108.0100461 406.684800
   5239   5242   5243     1   109.5600471 388.275200
   5239   5242   5244     1   109.5600471 388.275200
   5240   5239   5242     1   109.8000471 387.438400
   5240   5239   5241     1   107.5800459 329.699200
   5241   5239   5242     1   109.8000471 387.438400
   5243   5242   5248     1   109.7800468 425.094400
   5243   5242   5244     1   108.4600466 328.025600
   5244   5242   5248     1   109.7800468 425.094400
   5246   5245   5247     1   108.3000464 339.740800
   5246   5245   5249     1   108.3000464 339.740800
   5247   5245   5249     1   108.3000464 339.740800
   5250   5253   5254     1   109.8000471 387.438400
   5250   5253   5255     1   109.8000471 387.438400
   5250   5259   5260     1   110.1100470 384.091200
   5250   5259   5261     1   110.1100470 384.091200
   5250   5259   5263     1   110.1100470 384.091200
   5251   5250   5253     1   110.5600475 386.601600
   5251   5250   5259     1   108.0100461 406.684800
   5251   5250   5252     1   109.7500473 328.025600
   5252   5250   5253     1   110.5600475 386.601600
   5252   5250   5259     1   108.0100461 406.684800
   5253   5256   5257     1   109.5600471 388.275200
   5253   5256   5258     1   109.5600471 388.275200
   5254   5253   5256     1   109.8000471 387.438400
   5254   5253   5255     1   107.5800459 329.699200
   5255   5253   5256     1   109.8000471 387.438400
   5257   5256   5262     1   109.7800468 425.094400
   5257   5256   5258     1   108.4600466 328.025600
   5258   5256   5262     1   109.7800468 425.094400
   5260   5259   5261     1   108.3000464 339.740800
   5260   5259   5263     1   108.3000464 339.740800
   5261   5259   5263     1   108.3000464 339.740800
   5264   5267   5268     1   109.8000471 387.438400
   5264   5267   5269     1   109.8000471 387.438400
   5264   5273   5274     1   110.1100470 384.091200
   5264   5273   5275     1   110.1100470 384.091200
   5264   5273   5277     1   110.1100470 384.091200
   5265   5264   5267     1   110.5600475 386.601600
   5265   5264   5273     1   108.0100461 406.684800
   5265   5264   5266     1   109.7500473 328.025600
   5266   5264   5267     1   110.5600475 386.601600
   5266   5264   5273     1   108.0100461 406.684800
   5267   5270   5271     1   109.5600471 388.275200
   5267   5270   5272     1   109.5600471 388.275200
   5268   5267   5270     1   109.8000471 387.438400
   5268   5267   5269     1   107.5800459 329.699200
   5269   5267   5270     1   109.8000471 387.438400
   5271   5270   5276     1   109.7800468 425.094400
   5271   5270   5272     1   108.4600466 328.025600
   5272   5270   5276     1   109.7800468 425.094400
   5274   5273   5275     1   108.3000464 339.740800
   5274   5273   5277     1   108.3000464 339.740800
   5275   5273   5277     1   108.3000464 339.740800
   5278   5281   5282     1   109.8000471 387.438400
   5278   5281   5283     1   109.8000471 387.438400
   5278   5287   5288     1   110.1100470 384.091200
   5278   5287   5289     1   110.1100470 384.091200
   5278   5287   5291     1   110.1100470 384.091200
   5279   5278   5281     1   110.5600475 386.601600
   5279   5278   5287     1   108.0100461 406.684800
   5279   5278   5280     1   109.7500473 328.025600
   5280   5278   5281     1   110.5600475 386.601600
   5280   5278   5287     1   108.0100461 406.684800
   5281   5284   5285     1   109.5600471 388.275200
   5281   5284   5286     1   109.5600471 388.275200
   5282   5281   5284     1   109.8000471 387.438400
   5282   5281   5283     1   107.5800459 329.699200
   5283   5281   5284     1   109.8000471 387.438400
   5285   5284   5290     1   109.7800468 425.094400
   5285   5284   5286     1   108.4600466 328.025600
   5286   5284   5290     1   109.7800468 425.094400
   5288   5287   5289     1   108.3000464 339.740800
   5288   5287   5291     1   108.3000464 339.740800
   5289   5287   5291     1   108.3000464 339.740800
   5292   5295   5296     1   109.8000471 387.438400
   5292   5295   5297     1   109.8000471 387.438400
   5292   5301   5302     1   110.1100470 384.091200
   5292   5301   5303     1   110.1100470 384.091200
   5292   5301   5305     1   110.1100470 384.091200
   5293   5292   5295     1   110.5600475 386.601600
   5293   5292   5301     1   108.0100461 406.684800
   5293   5292   5294     1   109.7500473 328.025600
   5294   5292   5295     1   110.5600475 386.601600
   5294   5292   5301     1   108.0100461 406.684800
   5295   5298   5299     1   109.5600471 388.275200
   5295   5298   5300     1   109.5600471 388.275200
   5296   5295   5298     1   109.8000471 387.438400
   5296   5295   5297     1   107.5800459 329.699200
   5297   5295   5298     1   109.8000471 387.438400
   5299   5298   5304     1   109.7800468 425.094400
   5299   5298   5300     1   108.4600466 328.025600
   5300   5298   5304     1   109.7800468 425.094400
   5302   5301   5303     1   108.3000464 339.740800
   5302   5301   5305     1   108.3000464 339.740800
   5303   5301   5305     1   108.3000464 339.740800
   5306   5309   5310     1   109.8000471 387.438400
   5306   5309   5311     1   109.8000471 387.438400
   5306   5315   5316     1   110.1100470 384.091200
   5306   5315   5317     1   110.1100470 384.091200
   5306   5315   5319     1   110.1100470 384.091200
   5307   5306   5309     1   110.5600475 386.601600
   5307   5306   5315     1   108.0100461 406.684800
   5307   5306   5308     1   109.7500473 328.025600
   5308   5306   5309     1   110.5600475 386.601600
   5308   5306   5315     1   108.0100461 406.684800
   5309   5312   5313     1   109.5600471 388.275200
   5309   5312   5314     1   109.5600471 388.275200
   5310   5309   5312     1   109.8000471 387.438400
   5310   5309   5311     1   107.5800459 329.699200
   5311   5309   5312     1   109.8000471 387.438400
   5313   5312   5318     1   109.7800468 425.094400
   5313   5312   5314     1   108.4600466 328.025600
   5314   5312   5318     1   109.7800468 425.094400
   5316   5315   5317     1   108.3000464 339.740800
   5316   5315   5319     1   108.3000464 339.740800
   5317   5315   5319     1   108.3000464 339.740800
   5320   5323   5324     1   109.8000471 387.438400
   5320   5323   5325     1   109.8000471 387.438400
   5320   5329   5330     1   110.1100470 384.091200
   5320   5329   5331     1   110.1100470 384.091200
   5320   5329   5333     1   110.1100470 384.091200
   5321   5320   5323     1   110.5600475 386.601600
   5321   5320   5329     1   108.0100461 406.684800
   5321   5320   5322     1   109.7500473 328.025600
   5322   5320   5323     1   110.5600475 386.601600
   5322   5320   5329     1   108.0100461 406.684800
   5323   5326   5327     1   109.5600471 388.275200
   5323   5326   5328     1   109.5600471 388.275200
   5324   5323   5326     1   109.8000471 387.438400
   5324   5323   5325     1   107.5800459 329.699200
   5325   5323   5326     1   109.8000471 387.438400
   5327   5326   5332     1   109.7800468 425.094400
   5327   5326   5328     1   108.4600466 328.025600
   5328   5326   5332     1   109.7800468 425.094400
   5330   5329   5331     1   108.3000464 339.740800
   5330   5329   5333     1   108.3000464 339.740800
   5331   5329   5333     1   108.3000464 339.740800
   5334   5337   5338     1   109.8000471 387.438400
   5334   5337   5339     1   109.8000471 387.438400
   5334   5343   5344     1   110.1100470 384.091200
   5334   5343   5345     1   110.1100470 384.091200
   5334   5343   5347     1   110.1100470 384.091200
   5335   5334   5337     1   110.5600475 386.601600
   5335   5334   5343     1   108.0100461 406.684800
   5335   5334   5336     1   109.7500473 328.025600
   5336   5334   5337     1   110.5600475 386.601600
   5336   5334   5343     1   108.0100461 406.684800
   5337   5340   5341     1   109.5600471 388.275200
   5337   5340   5342     1   109.5600471 388.275200
   5338   5337   5340     1   109.8000471 387.438400
   5338   5337   5339     1   107.5800459 329.699200
   5339   5337   5340     1   109.8000471 387.438400
   5341   5340   5346     1   109.7800468 425.094400
   5341   5340   5342     1   108.4600466 328.025600
   5342   5340   5346     1   109.7800468 425.094400
   5344   5343   5345     1   108.3000464 339.740800
   5344   5343   5347     1   108.3000464 339.740800
   5345   5343   5347     1   108.3000464 339.740800
   5348   5351   5352     1   109.8000471 387.438400
   5348   5351   5353     1   109.8000471 387.438400
   5348   5357   5358     1   110.1100470 384.091200
   5348   5357   5359     1   110.1100470 384.091200
   5348   5357   5361     1   110.1100470 384.091200
   5349   5348   5351     1   110.5600475 386.601600
   5349   5348   5357     1   108.0100461 406.684800
   5349   5348   5350     1   109.7500473 328.025600
   5350   5348   5351     1   110.5600475 386.601600
   5350   5348   5357     1   108.0100461 406.684800
   5351   5354   5355     1   109.5600471 388.275200
   5351   5354   5356     1   109.5600471 388.275200
   5352   5351   5354     1   109.8000471 387.438400
   5352   5351   5353     1   107.5800459 329.699200
   5353   5351   5354     1   109.8000471 387.438400
   5355   5354   5360     1   109.7800468 425.094400
   5355   5354   5356     1   108.4600466 328.025600
   5356   5354   5360     1   109.7800468 425.094400
   5358   5357   5359     1   108.3000464 339.740800
   5358   5357   5361     1   108.3000464 339.740800
   5359   5357   5361     1   108.3000464 339.740800
   5362   5365   5366     1   109.8000471 387.438400
   5362   5365   5367     1   109.8000471 387.438400
   5362   5371   5372     1   110.1100470 384.091200
   5362   5371   5373     1   110.1100470 384.091200
   5362   5371   5375     1   110.1100470 384.091200
   5363   5362   5365     1   110.5600475 386.601600
   5363   5362   5371     1   108.0100461 406.684800
   5363   5362   5364     1   109.7500473 328.025600
   5364   5362   5365     1   110.5600475 386.601600
   5364   5362   5371     1   108.0100461 406.684800
   5365   5368   5369     1   109.5600471 388.275200
   5365   5368   5370     1   109.5600471 388.275200
   5366   5365   5368     1   109.8000471 387.438400
   5366   5365   5367     1   107.5800459 329.699200
   5367   5365   5368     1   109.8000471 387.438400
   5369   5368   5374     1   109.7800468 425.094400
   5369   5368   5370     1   108.4600466 328.025600
   5370   5368   5374     1   109.7800468 425.094400
   5372   5371   5373     1   108.3000464 339.740800
   5372   5371   5375     1   108.3000464 339.740800
   5373   5371   5375     1   108.3000464 339.740800
   5376   5379   5380     1   109.8000471 387.438400
   5376   5379   5381     1   109.8000471 387.438400
   5376   5385   5386     1   110.1100470 384.091200
   5376   5385   5387     1   110.1100470 384.091200
   5376   5385   5389     1   110.1100470 384.091200
   5377   5376   5379     1   110.5600475 386.601600
   5377   5376   5385     1   108.0100461 406.684800
   5377   5376   5378     1   109.7500473 328.025600
   5378   5376   5379     1   110.5600475 386.601600
   5378   5376   5385     1   108.0100461 406.684800
   5379   5382   5383     1   109.5600471 388.275200
   5379   5382   5384     1   109.5600471 388.275200
   5380   5379   5382     1   109.8000471 387.438400
   5380   5379   5381     1   107.5800459 329.699200
   5381   5379   5382     1   109.8000471 387.438400
   5383   5382   5388     1   109.7800468 425.094400
   5383   5382   5384     1   108.4600466 328.025600
   5384   5382   5388     1   109.7800468 425.094400
   5386   5385   5387     1   108.3000464 339.740800
   5386   5385   5389     1   108.3000464 339.740800
   5387   5385   5389     1   108.3000464 339.740800
   5390   5393   5394     1   109.8000471 387.438400
   5390   5393   5395     1   109.8000471 387.438400
   5390   5399   5400     1   110.1100470 384.091200
   5390   5399   5401     1   110.1100470 384.091200
   5390   5399   5403     1   110.1100470 384.091200
   5391   5390   5393     1   110.5600475 386.601600
   5391   5390   5399     1   108.0100461 406.684800
   5391   5390   5392     1   109.7500473 328.025600
   5392   5390   5393     1   110.5600475 386.601600
   5392   5390   5399     1   108.0100461 406.684800
   5393   5396   5397     1   109.5600471 388.275200
   5393   5396   5398     1   109.5600471 388.275200
   5394   5393   5396     1   109.8000471 387.438400
   5394   5393   5395     1   107.5800459 329.699200
   5395   5393   5396     1   109.8000471 387.438400
   5397   5396   5402     1   109.7800468 425.094400
   5397   5396   5398     1   108.4600466 328.025600
   5398   5396   5402     1   109.7800468 425.094400
   5400   5399   5401     1   108.3000464 339.740800
   5400   5399   5403     1   108.3000464 339.740800
   5401   5399   5403     1   108.3000464 339.740800
   5404   5407   5408     1   109.8000471 387.438400
   5404   5407   5409     1   109.8000471 387.438400
   5404   5413   5414     1   110.1100470 384.091200
   5404   5413   5415     1   110.1100470 384.091200
   5404   5413   5417     1   110.1100470 384.091200
   5405   5404   5407     1   110.5600475 386.601600
   5405   5404   5413     1   108.0100461 406.684800
   5405   5404   5406     1   109.7500473 328.025600
   5406   5404   5407     1   110.5600475 386.601600
   5406   5404   5413     1   108.0100461 406.684800
   5407   5410   5411     1   109.5600471 388.275200
   5407   5410   5412     1   109.5600471 388.275200
   5408   5407   5410     1   109.8000471 387.438400
   5408   5407   5409     1   107.5800459 329.699200
   5409   5407   5410     1   109.8000471 387.438400
   5411   5410   5416     1   109.7800468 425.094400
   5411   5410   5412     1   108.4600466 328.025600
   5412   5410   5416     1   109.7800468 425.094400
   5414   5413   5415     1   108.3000464 339.740800
   5414   5413   5417     1   108.3000464 339.740800
   5415   5413   5417     1   108.3000464 339.740800
   5418   5421   5422     1   109.8000471 387.438400
   5418   5421   5423     1   109.8000471 387.438400
   5418   5427   5428     1   110.1100470 384.091200
   5418   5427   5429     1   110.1100470 384.091200
   5418   5427   5431     1   110.1100470 384.091200
   5419   5418   5421     1   110.5600475 386.601600
   5419   5418   5427     1   108.0100461 406.684800
   5419   5418   5420     1   109.7500473 328.025600
   5420   5418   5421     1   110.5600475 386.601600
   5420   5418   5427     1   108.0100461 406.684800
   5421   5424   5425     1   109.5600471 388.275200
   5421   5424   5426     1   109.5600471 388.275200
   5422   5421   5424     1   109.8000471 387.438400
   5422   5421   5423     1   107.5800459 329.699200
   5423   5421   5424     1   109.8000471 387.438400
   5425   5424   5430     1   109.7800468 425.094400
   5425   5424   5426     1   108.4600466 328.025600
   5426   5424   5430     1   109.7800468 425.094400
   5428   5427   5429     1   108.3000464 339.740800
   5428   5427   5431     1   108.3000464 339.740800
   5429   5427   5431     1   108.3000464 339.740800
   5432   5435   5436     1   109.8000471 387.438400
   5432   5435   5437     1   109.8000471 387.438400
   5432   5441   5442     1   110.1100470 384.091200
   5432   5441   5443     1   110.1100470 384.091200
   5432   5441   5445     1   110.1100470 384.091200
   5433   5432   5435     1   110.5600475 386.601600
   5433   5432   5441     1   108.0100461 406.684800
   5433   5432   5434     1   109.7500473 328.025600
   5434   5432   5435     1   110.5600475 386.601600
   5434   5432   5441     1   108.0100461 406.684800
   5435   5438   5439     1   109.5600471 388.275200
   5435   5438   5440     1   109.5600471 388.275200
   5436   5435   5438     1   109.8000471 387.438400
   5436   5435   5437     1   107.5800459 329.699200
   5437   5435   5438     1   109.8000471 387.438400
   5439   5438   5444     1   109.7800468 425.094400
   5439   5438   5440     1   108.4600466 328.025600
   5440   5438   5444     1   109.7800468 425.094400
   5442   5441   5443     1   108.3000464 339.740800
   5442   5441   5445     1   108.3000464 339.740800
   5443   5441   5445     1   108.3000464 339.740800
   5446   5449   5450     1   109.8000471 387.438400
   5446   5449   5451     1   109.8000471 387.438400
   5446   5455   5456     1   110.1100470 384.091200
   5446   5455   5457     1   110.1100470 384.091200
   5446   5455   5459     1   110.1100470 384.091200
   5447   5446   5449     1   110.5600475 386.601600
   5447   5446   5455     1   108.0100461 406.684800
   5447   5446   5448     1   109.7500473 328.025600
   5448   5446   5449     1   110.5600475 386.601600
   5448   5446   5455     1   108.0100461 406.684800
   5449   5452   5453     1   109.5600471 388.275200
   5449   5452   5454     1   109.5600471 388.275200
   5450   5449   5452     1   109.8000471 387.438400
   5450   5449   5451     1   107.5800459 329.699200
   5451   5449   5452     1   109.8000471 387.438400
   5453   5452   5458     1   109.7800468 425.094400
   5453   5452   5454     1   108.4600466 328.025600
   5454   5452   5458     1   109.7800468 425.094400
   5456   5455   5457     1   108.3000464 339.740800
   5456   5455   5459     1   108.3000464 339.740800
   5457   5455   5459     1   108.3000464 339.740800
   5460   5463   5464     1   109.8000471 387.438400
   5460   5463   5465     1   109.8000471 387.438400
   5460   5469   5470     1   110.1100470 384.091200
   5460   5469   5471     1   110.1100470 384.091200
   5460   5469   5473     1   110.1100470 384.091200
   5461   5460   5463     1   110.5600475 386.601600
   5461   5460   5469     1   108.0100461 406.684800
   5461   5460   5462     1   109.7500473 328.025600
   5462   5460   5463     1   110.5600475 386.601600
   5462   5460   5469     1   108.0100461 406.684800
   5463   5466   5467     1   109.5600471 388.275200
   5463   5466   5468     1   109.5600471 388.275200
   5464   5463   5466     1   109.8000471 387.438400
   5464   5463   5465     1   107.5800459 329.699200
   5465   5463   5466     1   109.8000471 387.438400
   5467   5466   5472     1   109.7800468 425.094400
   5467   5466   5468     1   108.4600466 328.025600
   5468   5466   5472     1   109.7800468 425.094400
   5470   5469   5471     1   108.3000464 339.740800
   5470   5469   5473     1   108.3000464 339.740800
   5471   5469   5473     1   108.3000464 339.740800
   5474   5477   5478     1   109.8000471 387.438400
   5474   5477   5479     1   109.8000471 387.438400
   5474   5483   5484     1   110.1100470 384.091200
   5474   5483   5485     1   110.1100470 384.091200
   5474   5483   5487     1   110.1100470 384.091200
   5475   5474   5477     1   110.5600475 386.601600
   5475   5474   5483     1   108.0100461 406.684800
   5475   5474   5476     1   109.7500473 328.025600
   5476   5474   5477     1   110.5600475 386.601600
   5476   5474   5483     1   108.0100461 406.684800
   5477   5480   5481     1   109.5600471 388.275200
   5477   5480   5482     1   109.5600471 388.275200
   5478   5477   5480     1   109.8000471 387.438400
   5478   5477   5479     1   107.5800459 329.699200
   5479   5477   5480     1   109.8000471 387.438400
   5481   5480   5486     1   109.7800468 425.094400
   5481   5480   5482     1   108.4600466 328.025600
   5482   5480   5486     1   109.7800468 425.094400
   5484   5483   5485     1   108.3000464 339.740800
   5484   5483   5487     1   108.3000464 339.740800
   5485   5483   5487     1   108.3000464 339.740800
   5488   5491   5492     1   109.8000471 387.438400
   5488   5491   5493     1   109.8000471 387.438400
   5488   5497   5498     1   110.1100470 384.091200
   5488   5497   5499     1   110.1100470 384.091200
   5488   5497   5501     1   110.1100470 384.091200
   5489   5488   5491     1   110.5600475 386.601600
   5489   5488   5497     1   108.0100461 406.684800
   5489   5488   5490     1   109.7500473 328.025600
   5490   5488   5491     1   110.5600475 386.601600
   5490   5488   5497     1   108.0100461 406.684800
   5491   5494   5495     1   109.5600471 388.275200
   5491   5494   5496     1   109.5600471 388.275200
   5492   5491   5494     1   109.8000471 387.438400
   5492   5491   5493     1   107.5800459 329.699200
   5493   5491   5494     1   109.8000471 387.438400
   5495   5494   5500     1   109.7800468 425.094400
   5495   5494   5496     1   108.4600466 328.025600
   5496   5494   5500     1   109.7800468 425.094400
   5498   5497   5499     1   108.3000464 339.740800
   5498   5497   5501     1   108.3000464 339.740800
   5499   5497   5501     1   108.3000464 339.740800
   5502   5505   5506     1   109.8000471 387.438400
   5502   5505   5507     1   109.8000471 387.438400
   5502   5511   5512     1   110.1100470 384.091200
   5502   5511   5513     1   110.1100470 384.091200
   5502   5511   5515     1   110.1100470 384.091200
   5503   5502   5505     1   110.5600475 386.601600
   5503   5502   5511     1   108.0100461 406.684800
   5503   5502   5504     1   109.7500473 328.025600
   5504   5502   5505     1   110.5600475 386.601600
   5504   5502   5511     1   108.0100461 406.684800
   5505   5508   5509     1   109.5600471 388.275200
   5505   5508   5510     1   109.5600471 388.275200
   5506   5505   5508     1   109.8000471 387.438400
   5506   5505   5507     1   107.5800459 329.699200
   5507   5505   5508     1   109.8000471 387.438400
   5509   5508   5514     1   109.7800468 425.094400
   5509   5508   5510     1   108.4600466 328.025600
   5510   5508   5514     1   109.7800468 425.094400
   5512   5511   5513     1   108.3000464 339.740800
   5512   5511   5515     1   108.3000464 339.740800
   5513   5511   5515     1   108.3000464 339.740800
   5516   5519   5520     1   109.8000471 387.438400
   5516   5519   5521     1   109.8000471 387.438400
   5516   5525   5526     1   110.1100470 384.091200
   5516   5525   5527     1   110.1100470 384.091200
   5516   5525   5529     1   110.1100470 384.091200
   5517   5516   5519     1   110.5600475 386.601600
   5517   5516   5525     1   108.0100461 406.684800
   5517   5516   5518     1   109.7500473 328.025600
   5518   5516   5519     1   110.5600475 386.601600
   5518   5516   5525     1   108.0100461 406.684800
   5519   5522   5523     1   109.5600471 388.275200
   5519   5522   5524     1   109.5600471 388.275200
   5520   5519   5522     1   109.8000471 387.438400
   5520   5519   5521     1   107.5800459 329.699200
   5521   5519   5522     1   109.8000471 387.438400
   5523   5522   5528     1   109.7800468 425.094400
   5523   5522   5524     1   108.4600466 328.025600
   5524   5522   5528     1   109.7800468 425.094400
   5526   5525   5527     1   108.3000464 339.740800
   5526   5525   5529     1   108.3000464 339.740800
   5527   5525   5529     1   108.3000464 339.740800
   5530   5533   5534     1   109.8000471 387.438400
   5530   5533   5535     1   109.8000471 387.438400
   5530   5539   5540     1   110.1100470 384.091200
   5530   5539   5541     1   110.1100470 384.091200
   5530   5539   5543     1   110.1100470 384.091200
   5531   5530   5533     1   110.5600475 386.601600
   5531   5530   5539     1   108.0100461 406.684800
   5531   5530   5532     1   109.7500473 328.025600
   5532   5530   5533     1   110.5600475 386.601600
   5532   5530   5539     1   108.0100461 406.684800
   5533   5536   5537     1   109.5600471 388.275200
   5533   5536   5538     1   109.5600471 388.275200
   5534   5533   5536     1   109.8000471 387.438400
   5534   5533   5535     1   107.5800459 329.699200
   5535   5533   5536     1   109.8000471 387.438400
   5537   5536   5542     1   109.7800468 425.094400
   5537   5536   5538     1   108.4600466 328.025600
   5538   5536   5542     1   109.7800468 425.094400
   5540   5539   5541     1   108.3000464 339.740800
   5540   5539   5543     1   108.3000464 339.740800
   5541   5539   5543     1   108.3000464 339.740800
   5544   5547   5548     1   109.8000471 387.438400
   5544   5547   5549     1   109.8000471 387.438400
   5544   5553   5554     1   110.1100470 384.091200
   5544   5553   5555     1   110.1100470 384.091200
   5544   5553   5557     1   110.1100470 384.091200
   5545   5544   5547     1   110.5600475 386.601600
   5545   5544   5553     1   108.0100461 406.684800
   5545   5544   5546     1   109.7500473 328.025600
   5546   5544   5547     1   110.5600475 386.601600
   5546   5544   5553     1   108.0100461 406.684800
   5547   5550   5551     1   109.5600471 388.275200
   5547   5550   5552     1   109.5600471 388.275200
   5548   5547   5550     1   109.8000471 387.438400
   5548   5547   5549     1   107.5800459 329.699200
   5549   5547   5550     1   109.8000471 387.438400
   5551   5550   5556     1   109.7800468 425.094400
   5551   5550   5552     1   108.4600466 328.025600
   5552   5550   5556     1   109.7800468 425.094400
   5554   5553   5555     1   108.3000464 339.740800
   5554   5553   5557     1   108.3000464 339.740800
   5555   5553   5557     1   108.3000464 339.740800
   5558   5561   5562     1   109.8000471 387.438400
   5558   5561   5563     1   109.8000471 387.438400
   5558   5567   5568     1   110.1100470 384.091200
   5558   5567   5569     1   110.1100470 384.091200
   5558   5567   5571     1   110.1100470 384.091200
   5559   5558   5561     1   110.5600475 386.601600
   5559   5558   5567     1   108.0100461 406.684800
   5559   5558   5560     1   109.7500473 328.025600
   5560   5558   5561     1   110.5600475 386.601600
   5560   5558   5567     1   108.0100461 406.684800
   5561   5564   5565     1   109.5600471 388.275200
   5561   5564   5566     1   109.5600471 388.275200
   5562   5561   5564     1   109.8000471 387.438400
   5562   5561   5563     1   107.5800459 329.699200
   5563   5561   5564     1   109.8000471 387.438400
   5565   5564   5570     1   109.7800468 425.094400
   5565   5564   5566     1   108.4600466 328.025600
   5566   5564   5570     1   109.7800468 425.094400
   5568   5567   5569     1   108.3000464 339.740800
   5568   5567   5571     1   108.3000464 339.740800
   5569   5567   5571     1   108.3000464 339.740800

[ dihedrals ]
;    ai     aj     ak     al funct         c0         c1         c2         c3         c4         c5
      1      2      8     14     1  0.0000000  0.6508444  3
      1      5     11     17     1  0.0000000  0.6508444  3
      2      1      5     11     1  180.0000771  0.4184000  2
      2      1      5     11     1  0.0000000  1.6024720  3
      2      8     14     20     1  0.0000000  0.6508444  3
      5      1      2      8     1  180.0000771  0.4184000  2
      5      1      2      8     1  0.0000000  1.6024720  3
      5     11     17     21     1  0.0000000  0.6508444  3
      8     14     20     28     1  0.0000000  0.6508444  3
      8     14     20     31     1  0.0000000  0.6508444  3
     11     17     21     22     1  0.0000000  0.6508444  3
     11     17     21     25     1  0.0000000  0.6508444  3
     14     20     28     40     1  0.0000000  0.6508444  3
     14     20     31     43     1  0.0000000  0.6508444  3
     17     21     22     34     1  0.0000000  0.6508444  3
     17     21     25     37     1  0.0000000  0.6508444  3
     20     28     40     49     1  0.0000000  0.6508444  3
     20     31     43     46     1  0.0000000  0.6508444  3
     21     22     34     55     1  0.0000000  0.6508444  3
     21     25     37     52     1  0.0000000  0.6508444  3
     22     21     25     37     1  0.0000000  0.6508444  3
     22     34     55    178     1  0.0000000  0.6508444  3
     25     21     22     34     1  0.0000000  0.6508444  3
     25     37     52    148     1  0.0000000  0.6508444  3
     28     20     31     43     1  0.0000000  0.6508444  3
     28     40     49    118     1  0.0000000  0.6508444  3
     31     20     28     40     1  0.0000000  0.6508444  3
     31     43     46     88     1  0.0000000  0.6508444  3
     34     55    178    169     1  180.0000771  0.4184000  2
     34     55    178    169     1  0.0000000  1.6024720  3
     37     52    148    139     1  180.0000771  0.4184000  2
     37     52    148    139     1  0.0000000  1.6024720  3
     40     49    118    109     1  180.0000771  0.4184000  2
     40     49    118    109     1  0.0000000  1.6024720  3
     43     46     88     79     1  180.0000771  0.4184000  2
     43     46     88     79     1  0.0000000  1.6024720  3
     46     88     79     70     1  180.0000771  0.4184000  2
     46     88     79     70     1  0.0000000  1.6024720  3
     49    118    109    100     1  180.0000771  0.4184000  2
     49    118    109    100     1  0.0000000  1.6024720  3
     52    148    139    130     1  180.0000771  0.4184000  2
     52    148    139    130     1  0.0000000  1.6024720  3
     55    178    169    160     1  180.0000771  0.4184000  2
     55    178    169    160     1  0.0000000  1.6024720  3
     60     61     73     85     1  0.0000000  0.6508444  3
     60     64     76     82     1  0.0000000  0.6508444  3
     60     67     70     79     1  0.0000000  0.6508444  3
     61     60     64     76     1  0.0000000  0.6508444  3
     61     60     67     70     1  0.0000000  0.6508444  3
     61     73     85    238     1  0.0000000  0.6508444  3
     64     60     61     73     1  0.0000000  0.6508444  3
     64     60     67     70     1  0.0000000  0.6508444  3
     64     76     82    208     1  0.0000000  0.6508444  3
     67     60     61     73     1  0.0000000  0.6508444  3
     67     60     64     76     1  0.0000000  0.6508444  3
     67     70     79     88     1  0.0000000  0.6508444  3
     73     85    238    229     1  180.0000771  0.4184000  2
     73     85    238    229     1  0.0000000  1.6024720  3
     76     82    208    199     1  180.0000771  0.4184000  2
     76     82    208    199     1  0.0000000  1.6024720  3
     82    208    199    190     1  180.0000771  0.4184000  2
     82    208    199    190     1  0.0000000  1.6024720  3
     85    238    229    220     1  180.0000771  0.4184000  2
     85    238    229    220     1  0.0000000  1.6024720  3
     90     91    103    115     1  0.0000000  0.6508444  3
     90     94    106    112     1  0.0000000  0.6508444  3
     90     97    100    109     1  0.0000000  0.6508444  3
     91     90     94    106     1  0.0000000  0.6508444  3
     91     90     97    100     1  0.0000000  0.6508444  3
     91    103    115    298     1  0.0000000  0.6508444  3
     94     90     91    103     1  0.0000000  0.6508444  3
     94     90     97    100     1  0.0000000  0.6508444  3
     94    106    112    268     1  0.0000000  0.6508444  3
     97     90     91    103     1  0.0000000  0.6508444  3
     97     90     94    106     1  0.0000000  0.6508444  3
     97    100    109    118     1  0.0000000  0.6508444  3
    103    115    298    289     1  180.0000771  0.4184000  2
    103    115    298    289     1  0.0000000  1.6024720  3
    106    112    268    259     1  180.0000771  0.4184000  2
    106    112    268    259     1  0.0000000  1.6024720  3
    112    268    259    250     1  180.0000771  0.4184000  2
    112    268    259    250     1  0.0000000  1.6024720  3
    115    298    289    280     1  180.0000771  0.4184000  2
    115    298    289    280     1  0.0000000  1.6024720  3
    120    121    133    145     1  0.0000000  0.6508444  3
    120    124    136    142     1  0.0000000  0.6508444  3
    120    127    130    139     1  0.0000000  0.6508444  3
    121    120    124    136     1  0.0000000  0.6508444  3
    121    120    127    130     1  0.0000000  0.6508444  3
    121    133    145    358     1  0.0000000  0.6508444  3
    124    120    121    133     1  0.0000000  0.6508444  3
    124    120    127    130     1  0.0000000  0.6508444  3
    124    136    142    328     1  0.0000000  0.6508444  3
    127    120    121    133     1  0.0000000  0.6508444  3
    127    120    124    136     1  0.0000000  0.6508444  3
    127    130    139    148     1  0.0000000  0.6508444  3
    133    145    358    349     1  180.0000771  0.4184000  2
    133    145    358    349     1  0.0000000  1.6024720  3
    136    142    328    319     1  180.0000771  0.4184000  2
    136    142    328    319     1  0.0000000  1.6024720  3
    142    328    319    310     1  180.0000771  0.4184000  2
    142    328    319    310     1  0.0000000  1.6024720  3
    145    358    349    340     1  180.0000771  0.4184000  2
    145    358    349    340     1  0.0000000  1.6024720  3
    150    151    163    175     1  0.0000000  0.6508444  3
    150    154    166    172     1  0.0000000  0.6508444  3
    150    157    160    169     1  0.0000000  0.6508444  3
    151    150    154    166     1  0.0000000  0.6508444  3
    151    150    157    160     1  0.0000000  0.6508444  3
    151    163    175    418     1  0.0000000  0.6508444  3
    154    150    151    163     1  0.0000000  0.6508444  3
    154    150    157    160     1  0.0000000  0.6508444  3
    154    166    172    388     1  0.0000000  0.6508444  3
    157    150    151    163     1  0.0000000  0.6508444  3
    157    150    154    166     1  0.0000000  0.6508444  3
    157    160    169    178     1  0.0000000  0.6508444  3
    163    175    418    409     1  180.0000771  0.4184000  2
    163    175    418    409     1  0.0000000  1.6024720  3
    166    172    388    379     1  180.0000771  0.4184000  2
    166    172    388    379     1  0.0000000  1.6024720  3
    172    388    379    370     1  180.0000771  0.4184000  2
    172    388    379    370     1  0.0000000  1.6024720  3
    175    418    409    400     1  180.0000771  0.4184000  2
    175    418    409    400     1  0.0000000  1.6024720  3
    180    181    193    205     1  0.0000000  0.6508444  3
    180    184    196    202     1  0.0000000  0.6508444  3
    180    187    190    199     1  0.0000000  0.6508444  3
    181    180    184    196     1  0.0000000  0.6508444  3
    181    180    187    190     1  0.0000000  0.6508444  3
    181    193    205    478     1  0.0000000  0.6508444  3
    184    180    181    193     1  0.0000000  0.6508444  3
    184    180    187    190     1  0.0000000  0.6508444  3
    184    196    202    448     1  0.0000000  0.6508444  3
    187    180    181    193     1  0.0000000  0.6508444  3
    187    180    184    196     1  0.0000000  0.6508444  3
    187    190    199    208     1  0.0000000  0.6508444  3
    193    205    478    469     1  180.0000771  0.4184000  2
    193    205    478    469     1  0.0000000  1.6024720  3
    196    202    448    439     1  180.0000771  0.4184000  2
    196    202    448    439     1  0.0000000  1.6024720  3
    202    448    439    430     1  180.0000771  0.4184000  2
    202    448    439    430     1  0.0000000  1.6024720  3
    205    478    469    460     1  180.0000771  0.4184000  2
    205    478    469    460     1  0.0000000  1.6024720  3
    210    211    223    235     1  0.0000000  0.6508444  3
    210    214    226    232     1  0.0000000  0.6508444  3
    210    217    220    229     1  0.0000000  0.6508444  3
    211    210    214    226     1  0.0000000  0.6508444  3
    211    210    217    220     1  0.0000000  0.6508444  3
    211    223    235    538     1  0.0000000  0.6508444  3
    214    210    211    223     1  0.0000000  0.6508444  3
    214    210    217    220     1  0.0000000  0.6508444  3
    214    226    232    508     1  0.0000000  0.6508444  3
    217    210    211    223     1  0.0000000  0.6508444  3
    217    210    214    226     1  0.0000000  0.6508444  3
    217    220    229    238     1  0.0000000  0.6508444  3
    223    235    538    529     1  180.0000771  0.4184000  2
    223    235    538    529     1  0.0000000  1.6024720  3
    226    232    508    499     1  180.0000771  0.4184000  2
    226    232    508    499     1  0.0000000  1.6024720  3
    232    508    499    490     1  180.0000771  0.4184000  2
    232    508    499    490     1  0.0000000  1.6024720  3
    235    538    529    520     1  180.0000771  0.4184000  2
    235    538    529    520     1  0.0000000  1.6024720  3
    240    241    253    265     1  0.0000000  0.6508444  3
    240    244    256    262     1  0.0000000  0.6508444  3
    240    247    250    259     1  0.0000000  0.6508444  3
    241    240    244    256     1  0.0000000  0.6508444  3
    241    240    247    250     1  0.0000000  0.6508444  3
    241    253    265    598     1  0.0000000  0.6508444  3
    244    240    241    253     1  0.0000000  0.6508444  3
    244    240    247    250     1  0.0000000  0.6508444  3
    244    256    262    568     1  0.0000000  0.6508444  3
    247    240    241    253     1  0.0000000  0.6508444  3
    247    240    244    256     1  0.0000000  0.6508444  3
    247    250    259    268     1  0.0000000  0.6508444  3
    253    265    598    589     1  180.0000771  0.4184000  2
    253    265    598    589     1  0.0000000  1.6024720  3
    256    262    568    559     1  180.0000771  0.4184000  2
    256    262    568    559     1  0.0000000  1.6024720  3
    262    568    559    550     1  180.0000771  0.4184000  2
    262    568    559    550     1  0.0000000  1.6024720  3
    265    598    589    580     1  180.0000771  0.4184000  2
    265    598    589    580     1  0.0000000  1.6024720  3
    270    271    283    295     1  0.0000000  0.6508444  3
    270    274    286    292     1  0.0000000  0.6508444  3
    270    277    280    289     1  0.0000000  0.6508444  3
    271    270    274    286     1  0.0000000  0.6508444  3
    271    270    277    280     1  0.0000000  0.6508444  3
    271    283    295    658     1  0.0000000  0.6508444  3
    274    270    271    283     1  0.0000000  0.6508444  3
    274    270    277    280     1  0.0000000  0.6508444  3
    274    286    292    628     1  0.0000000  0.6508444  3
    277    270    271    283     1  0.0000000  0.6508444  3
    277    270    274    286     1  0.0000000  0.6508444  3
    277    280    289    298     1  0.0000000  0.6508444  3
    283    295    658    649     1  180.0000771  0.4184000  2
    283    295    658    649     1  0.0000000  1.6024720  3
    286    292    628    619     1  180.0000771  0.4184000  2
    286    292    628    619     1  0.0000000  1.6024720  3
    292    628    619    610     1  180.0000771  0.4184000  2
    292    628    619    610     1  0.0000000  1.6024720  3
    295    658    649    640     1  180.0000771  0.4184000  2
    295    658    649    640     1  0.0000000  1.6024720  3
    300    301    313    325     1  0.0000000  0.6508444  3
    300    304    316    322     1  0.0000000  0.6508444  3
    300    307    310    319     1  0.0000000  0.6508444  3
    301    300    304    316     1  0.0000000  0.6508444  3
    301    300    307    310     1  0.0000000  0.6508444  3
    301    313    325    718     1  0.0000000  0.6508444  3
    304    300    301    313     1  0.0000000  0.6508444  3
    304    300    307    310     1  0.0000000  0.6508444  3
    304    316    322    688     1  0.0000000  0.6508444  3
    307    300    301    313     1  0.0000000  0.6508444  3
    307    300    304    316     1  0.0000000  0.6508444  3
    307    310    319    328     1  0.0000000  0.6508444  3
    313    325    718    709     1  180.0000771  0.4184000  2
    313    325    718    709     1  0.0000000  1.6024720  3
    316    322    688    679     1  180.0000771  0.4184000  2
    316    322    688    679     1  0.0000000  1.6024720  3
    322    688    679    670     1  180.0000771  0.4184000  2
    322    688    679    670     1  0.0000000  1.6024720  3
    325    718    709    700     1  180.0000771  0.4184000  2
    325    718    709    700     1  0.0000000  1.6024720  3
    330    331    343    355     1  0.0000000  0.6508444  3
    330    334    346    352     1  0.0000000  0.6508444  3
    330    337    340    349     1  0.0000000  0.6508444  3
    331    330    334    346     1  0.0000000  0.6508444  3
    331    330    337    340     1  0.0000000  0.6508444  3
    331    343    355    778     1  0.0000000  0.6508444  3
    334    330    331    343     1  0.0000000  0.6508444  3
    334    330    337    340     1  0.0000000  0.6508444  3
    334    346    352    748     1  0.0000000  0.6508444  3
    337    330    331    343     1  0.0000000  0.6508444  3
    337    330    334    346     1  0.0000000  0.6508444  3
    337    340    349    358     1  0.0000000  0.6508444  3
    343    355    778    769     1  180.0000771  0.4184000  2
    343    355    778    769     1  0.0000000  1.6024720  3
    346    352    748    739     1  180.0000771  0.4184000  2
    346    352    748    739     1  0.0000000  1.6024720  3
    352    748    739    730     1  180.0000771  0.4184000  2
    352    748    739    730     1  0.0000000  1.6024720  3
    355    778    769    760     1  180.0000771  0.4184000  2
    355    778    769    760     1  0.0000000  1.6024720  3
    360    361    373    385     1  0.0000000  0.6508444  3
    360    364    376    382     1  0.0000000  0.6508444  3
    360    367    370    379     1  0.0000000  0.6508444  3
    361    360    364    376     1  0.0000000  0.6508444  3
    361    360    367    370     1  0.0000000  0.6508444  3
    361    373    385    838     1  0.0000000  0.6508444  3
    364    360    361    373     1  0.0000000  0.6508444  3
    364    360    367    370     1  0.0000000  0.6508444  3
    364    376    382    808     1  0.0000000  0.6508444  3
    367    360    361    373     1  0.0000000  0.6508444  3
    367    360    364    376     1  0.0000000  0.6508444  3
    367    370    379    388     1  0.0000000  0.6508444  3
    373    385    838    829     1  180.0000771  0.4184000  2
    373    385    838    829     1  0.0000000  1.6024720  3
    376    382    808    799     1  180.0000771  0.4184000  2
    376    382    808    799     1  0.0000000  1.6024720  3
    382    808    799    790     1  180.0000771  0.4184000  2
    382    808    799    790     1  0.0000000  1.6024720  3
    385    838    829    820     1  180.0000771  0.4184000  2
    385    838    829    820     1  0.0000000  1.6024720  3
    390    391    403    415     1  0.0000000  0.6508444  3
    390    394    406    412     1  0.0000000  0.6508444  3
    390    397    400    409     1  0.0000000  0.6508444  3
    391    390    394    406     1  0.0000000  0.6508444  3
    391    390    397    400     1  0.0000000  0.6508444  3
    391    403    415    898     1  0.0000000  0.6508444  3
    394    390    391    403     1  0.0000000  0.6508444  3
    394    390    397    400     1  0.0000000  0.6508444  3
    394    406    412    868     1  0.0000000  0.6508444  3
    397    390    391    403     1  0.0000000  0.6508444  3
    397    390    394    406     1  0.0000000  0.6508444  3
    397    400    409    418     1  0.0000000  0.6508444  3
    403    415    898    889     1  180.0000771  0.4184000  2
    403    415    898    889     1  0.0000000  1.6024720  3
    406    412    868    859     1  180.0000771  0.4184000  2
    406    412    868    859     1  0.0000000  1.6024720  3
    412    868    859    850     1  180.0000771  0.4184000  2
    412    868    859    850     1  0.0000000  1.6024720  3
    415    898    889    880     1  180.0000771  0.4184000  2
    415    898    889    880     1  0.0000000  1.6024720  3
    420    421    433    445     1  0.0000000  0.6508444  3
    420    424    436    442     1  0.0000000  0.6508444  3
    420    427    430    439     1  0.0000000  0.6508444  3
    421    420    424    436     1  0.0000000  0.6508444  3
    421    420    427    430     1  0.0000000  0.6508444  3
    421    433    445    958     1  0.0000000  0.6508444  3
    424    420    421    433     1  0.0000000  0.6508444  3
    424    420    427    430     1  0.0000000  0.6508444  3
    424    436    442    928     1  0.0000000  0.6508444  3
    427    420    421    433     1  0.0000000  0.6508444  3
    427    420    424    436     1  0.0000000  0.6508444  3
    427    430    439    448     1  0.0000000  0.6508444  3
    433    445    958    949     1  180.0000771  0.4184000  2
    433    445    958    949     1  0.0000000  1.6024720  3
    436    442    928    919     1  180.0000771  0.4184000  2
    436    442    928    919     1  0.0000000  1.6024720  3
    442    928    919    910     1  180.0000771  0.4184000  2
    442    928    919    910     1  0.0000000  1.6024720  3
    445    958    949    940     1  180.0000771  0.4184000  2
    445    958    949    940     1  0.0000000  1.6024720  3
    450    451    463    475     1  0.0000000  0.6508444  3
    450    454    466    472     1  0.0000000  0.6508444  3
    450    457    460    469     1  0.0000000  0.6508444  3
    451    450    454    466     1  0.0000000  0.6508444  3
    451    450    457    460     1  0.0000000  0.6508444  3
    451    463    475   1018     1  0.0000000  0.6508444  3
    454    450    451    463     1  0.0000000  0.6508444  3
    454    450    457    460     1  0.0000000  0.6508444  3
    454    466    472    988     1  0.0000000  0.6508444  3
    457    450    451    463     1  0.0000000  0.6508444  3
    457    450    454    466     1  0.0000000  0.6508444  3
    457    460    469    478     1  0.0000000  0.6508444  3
    463    475   1018   1009     1  180.0000771  0.4184000  2
    463    475   1018   1009     1  0.0000000  1.6024720  3
    466    472    988    979     1  180.0000771  0.4184000  2
    466    472    988    979     1  0.0000000  1.6024720  3
    472    988    979    970     1  180.0000771  0.4184000  2
    472    988    979    970     1  0.0000000  1.6024720  3
    475   1018   1009   1000     1  180.0000771  0.4184000  2
    475   1018   1009   1000     1  0.0000000  1.6024720  3
    480    481    493    505     1  0.0000000  0.6508444  3
    480    484    496    502     1  0.0000000  0.6508444  3
    480    487    490    499     1  0.0000000  0.6508444  3
    481    480    484    496     1  0.0000000  0.6508444  3
    481    480    487    490     1  0.0000000  0.6508444  3
    481    493    505   1078     1  0.0000000  0.6508444  3
    484    480    481    493     1  0.0000000  0.6508444  3
    484    480    487    490     1  0.0000000  0.6508444  3
    484    496    502   1048     1  0.0000000  0.6508444  3
    487    480    481    493     1  0.0000000  0.6508444  3
    487    480    484    496     1  0.0000000  0.6508444  3
    487    490    499    508     1  0.0000000  0.6508444  3
    493    505   1078   1069     1  180.0000771  0.4184000  2
    493    505   1078   1069     1  0.0000000  1.6024720  3
    496    502   1048   1039     1  180.0000771  0.4184000  2
    496    502   1048   1039     1  0.0000000  1.6024720  3
    502   1048   1039   1030     1  180.0000771  0.4184000  2
    502   1048   1039   1030     1  0.0000000  1.6024720  3
    505   1078   1069   1060     1  180.0000771  0.4184000  2
    505   1078   1069   1060     1  0.0000000  1.6024720  3
    510    511    523    535     1  0.0000000  0.6508444  3
    510    514    526    532     1  0.0000000  0.6508444  3
    510    517    520    529     1  0.0000000  0.6508444  3
    511    510    514    526     1  0.0000000  0.6508444  3
    511    510    517    520     1  0.0000000  0.6508444  3
    511    523    535   1138     1  0.0000000  0.6508444  3
    514    510    511    523     1  0.0000000  0.6508444  3
    514    510    517    520     1  0.0000000  0.6508444  3
    514    526    532   1108     1  0.0000000  0.6508444  3
    517    510    511    523     1  0.0000000  0.6508444  3
    517    510    514    526     1  0.0000000  0.6508444  3
    517    520    529    538     1  0.0000000  0.6508444  3
    523    535   1138   1129     1  180.0000771  0.4184000  2
    523    535   1138   1129     1  0.0000000  1.6024720  3
    526    532   1108   1099     1  180.0000771  0.4184000  2
    526    532   1108   1099     1  0.0000000  1.6024720  3
    532   1108   1099   1090     1  180.0000771  0.4184000  2
    532   1108   1099   1090     1  0.0000000  1.6024720  3
    535   1138   1129   1120     1  180.0000771  0.4184000  2
    535   1138   1129   1120     1  0.0000000  1.6024720  3
    540    541    553    565     1  0.0000000  0.6508444  3
    540    544    556    562     1  0.0000000  0.6508444  3
    540    547    550    559     1  0.0000000  0.6508444  3
    541    540    544    556     1  0.0000000  0.6508444  3
    541    540    547    550     1  0.0000000  0.6508444  3
    541    553    565   1198     1  0.0000000  0.6508444  3
    544    540    541    553     1  0.0000000  0.6508444  3
    544    540    547    550     1  0.0000000  0.6508444  3
    544    556    562   1168     1  0.0000000  0.6508444  3
    547    540    541    553     1  0.0000000  0.6508444  3
    547    540    544    556     1  0.0000000  0.6508444  3
    547    550    559    568     1  0.0000000  0.6508444  3
    553    565   1198   1189     1  180.0000771  0.4184000  2
    553    565   1198   1189     1  0.0000000  1.6024720  3
    556    562   1168   1159     1  180.0000771  0.4184000  2
    556    562   1168   1159     1  0.0000000  1.6024720  3
    562   1168   1159   1150     1  180.0000771  0.4184000  2
    562   1168   1159   1150     1  0.0000000  1.6024720  3
    565   1198   1189   1180     1  180.0000771  0.4184000  2
    565   1198   1189   1180     1  0.0000000  1.6024720  3
    570    571    583    595     1  0.0000000  0.6508444  3
    570    574    586    592     1  0.0000000  0.6508444  3
    570    577    580    589     1  0.0000000  0.6508444  3
    571    570    574    586     1  0.0000000  0.6508444  3
    571    570    577    580     1  0.0000000  0.6508444  3
    571    583    595   1258     1  0.0000000  0.6508444  3
    574    570    571    583     1  0.0000000  0.6508444  3
    574    570    577    580     1  0.0000000  0.6508444  3
    574    586    592   1228     1  0.0000000  0.6508444  3
    577    570    571    583     1  0.0000000  0.6508444  3
    577    570    574    586     1  0.0000000  0.6508444  3
    577    580    589    598     1  0.0000000  0.6508444  3
    583    595   1258   1249     1  180.0000771  0.4184000  2
    583    595   1258   1249     1  0.0000000  1.6024720  3
    586    592   1228   1219     1  180.0000771  0.4184000  2
    586    592   1228   1219     1  0.0000000  1.6024720  3
    592   1228   1219   1210     1  180.0000771  0.4184000  2
    592   1228   1219   1210     1  0.0000000  1.6024720  3
    595   1258   1249   1240     1  180.0000771  0.4184000  2
    595   1258   1249   1240     1  0.0000000  1.6024720  3
    600    601    613    625     1  0.0000000  0.6508444  3
    600    604    616    622     1  0.0000000  0.6508444  3
    600    607    610    619     1  0.0000000  0.6508444  3
    601    600    604    616     1  0.0000000  0.6508444  3
    601    600    607    610     1  0.0000000  0.6508444  3
    601    613    625   1318     1  0.0000000  0.6508444  3
    604    600    601    613     1  0.0000000  0.6508444  3
    604    600    607    610     1  0.0000000  0.6508444  3
    604    616    622   1288     1  0.0000000  0.6508444  3
    607    600    601    613     1  0.0000000  0.6508444  3
    607    600    604    616     1  0.0000000  0.6508444  3
    607    610    619    628     1  0.0000000  0.6508444  3
    613    625   1318   1309     1  180.0000771  0.4184000  2
    613    625   1318   1309     1  0.0000000  1.6024720  3
    616    622   1288   1279     1  180.0000771  0.4184000  2
    616    622   1288   1279     1  0.0000000  1.6024720  3
    622   1288   1279   1270     1  180.0000771  0.4184000  2
    622   1288   1279   1270     1  0.0000000  1.6024720  3
    625   1318   1309   1300     1  180.0000771  0.4184000  2
    625   1318   1309   1300     1  0.0000000  1.6024720  3
    630    631    643    655     1  0.0000000  0.6508444  3
    630    634    646    652     1  0.0000000  0.6508444  3
    630    637    640    649     1  0.0000000  0.6508444  3
    631    630    634    646     1  0.0000000  0.6508444  3
    631    630    637    640     1  0.0000000  0.6508444  3
    631    643    655   1378     1  0.0000000  0.6508444  3
    634    630    631    643     1  0.0000000  0.6508444  3
    634    630    637    640     1  0.0000000  0.6508444  3
    634    646    652   1348     1  0.0000000  0.6508444  3
    637    630    631    643     1  0.0000000  0.6508444  3
    637    630    634    646     1  0.0000000  0.6508444  3
    637    640    649    658     1  0.0000000  0.6508444  3
    643    655   1378   1369     1  180.0000771  0.4184000  2
    643    655   1378   1369     1  0.0000000  1.6024720  3
    646    652   1348   1339     1  180.0000771  0.4184000  2
    646    652   1348   1339     1  0.0000000  1.6024720  3
    652   1348   1339   1330     1  180.0000771  0.4184000  2
    652   1348   1339   1330     1  0.0000000  1.6024720  3
    655   1378   1369   1360     1  180.0000771  0.4184000  2
    655   1378   1369   1360     1  0.0000000  1.6024720  3
    660    661    673    685     1  0.0000000  0.6508444  3
    660    664    676    682     1  0.0000000  0.6508444  3
    660    667    670    679     1  0.0000000  0.6508444  3
    661    660    664    676     1  0.0000000  0.6508444  3
    661    660    667    670     1  0.0000000  0.6508444  3
    661    673    685   1438     1  0.0000000  0.6508444  3
    664    660    661    673     1  0.0000000  0.6508444  3
    664    660    667    670     1  0.0000000  0.6508444  3
    664    676    682   1408     1  0.0000000  0.6508444  3
    667    660    661    673     1  0.0000000  0.6508444  3
    667    660    664    676     1  0.0000000  0.6508444  3
    667    670    679    688     1  0.0000000  0.6508444  3
    673    685   1438   1429     1  180.0000771  0.4184000  2
    673    685   1438   1429     1  0.0000000  1.6024720  3
    676    682   1408   1399     1  180.0000771  0.4184000  2
    676    682   1408   1399     1  0.0000000  1.6024720  3
    682   1408   1399   1390     1  180.0000771  0.4184000  2
    682   1408   1399   1390     1  0.0000000  1.6024720  3
    685   1438   1429   1420     1  180.0000771  0.4184000  2
    685   1438   1429   1420     1  0.0000000  1.6024720  3
    690    691    703    715     1  0.0000000  0.6508444  3
    690    694    706    712     1  0.0000000  0.6508444  3
    690    697    700    709     1  0.0000000  0.6508444  3
    691    690    694    706     1  0.0000000  0.6508444  3
    691    690    697    700     1  0.0000000  0.6508444  3
    691    703    715   1498     1  0.0000000  0.6508444  3
    694    690    691    703     1  0.0000000  0.6508444  3
    694    690    697    700     1  0.0000000  0.6508444  3
    694    706    712   1468     1  0.0000000  0.6508444  3
    697    690    691    703     1  0.0000000  0.6508444  3
    697    690    694    706     1  0.0000000  0.6508444  3
    697    700    709    718     1  0.0000000  0.6508444  3
    703    715   1498   1489     1  180.0000771  0.4184000  2
    703    715   1498   1489     1  0.0000000  1.6024720  3
    706    712   1468   1459     1  180.0000771  0.4184000  2
    706    712   1468   1459     1  0.0000000  1.6024720  3
    712   1468   1459   1450     1  180.0000771  0.4184000  2
    712   1468   1459   1450     1  0.0000000  1.6024720  3
    715   1498   1489   1480     1  180.0000771  0.4184000  2
    715   1498   1489   1480     1  0.0000000  1.6024720  3
    720    721    733    745     1  0.0000000  0.6508444  3
    720    724    736    742     1  0.0000000  0.6508444  3
    720    727    730    739     1  0.0000000  0.6508444  3
    721    720    724    736     1  0.0000000  0.6508444  3
    721    720    727    730     1  0.0000000  0.6508444  3
    721    733    745   1558     1  0.0000000  0.6508444  3
    724    720    721    733     1  0.0000000  0.6508444  3
    724    720    727    730     1  0.0000000  0.6508444  3
    724    736    742   1528     1  0.0000000  0.6508444  3
    727    720    721    733     1  0.0000000  0.6508444  3
    727    720    724    736     1  0.0000000  0.6508444  3
    727    730    739    748     1  0.0000000  0.6508444  3
    733    745   1558   1549     1  180.0000771  0.4184000  2
    733    745   1558   1549     1  0.0000000  1.6024720  3
    736    742   1528   1519     1  180.0000771  0.4184000  2
    736    742   1528   1519     1  0.0000000  1.6024720  3
    742   1528   1519   1510     1  180.0000771  0.4184000  2
    742   1528   1519   1510     1  0.0000000  1.6024720  3
    745   1558   1549   1540     1  180.0000771  0.4184000  2
    745   1558   1549   1540     1  0.0000000  1.6024720  3
    750    751    763    775     1  0.0000000  0.6508444  3
    750    754    766    772     1  0.0000000  0.6508444  3
    750    757    760    769     1  0.0000000  0.6508444  3
    751    750    754    766     1  0.0000000  0.6508444  3
    751    750    757    760     1  0.0000000  0.6508444  3
    751    763    775   1618     1  0.0000000  0.6508444  3
    754    750    751    763     1  0.0000000  0.6508444  3
    754    750    757    760     1  0.0000000  0.6508444  3
    754    766    772   1588     1  0.0000000  0.6508444  3
    757    750    751    763     1  0.0000000  0.6508444  3
    757    750    754    766     1  0.0000000  0.6508444  3
    757    760    769    778     1  0.0000000  0.6508444  3
    763    775   1618   1609     1  180.0000771  0.4184000  2
    763    775   1618   1609     1  0.0000000  1.6024720  3
    766    772   1588   1579     1  180.0000771  0.4184000  2
    766    772   1588   1579     1  0.0000000  1.6024720  3
    772   1588   1579   1570     1  180.0000771  0.4184000  2
    772   1588   1579   1570     1  0.0000000  1.6024720  3
    775   1618   1609   1600     1  180.0000771  0.4184000  2
    775   1618   1609   1600     1  0.0000000  1.6024720  3
    780    781    793    805     1  0.0000000  0.6508444  3
    780    784    796    802     1  0.0000000  0.6508444  3
    780    787    790    799     1  0.0000000  0.6508444  3
    781    780    784    796     1  0.0000000  0.6508444  3
    781    780    787    790     1  0.0000000  0.6508444  3
    781    793    805   1678     1  0.0000000  0.6508444  3
    784    780    781    793     1  0.0000000  0.6508444  3
    784    780    787    790     1  0.0000000  0.6508444  3
    784    796    802   1648     1  0.0000000  0.6508444  3
    787    780    781    793     1  0.0000000  0.6508444  3
    787    780    784    796     1  0.0000000  0.6508444  3
    787    790    799    808     1  0.0000000  0.6508444  3
    793    805   1678   1669     1  180.0000771  0.4184000  2
    793    805   1678   1669     1  0.0000000  1.6024720  3
    796    802   1648   1639     1  180.0000771  0.4184000  2
    796    802   1648   1639     1  0.0000000  1.6024720  3
    802   1648   1639   1630     1  180.0000771  0.4184000  2
    802   1648   1639   1630     1  0.0000000  1.6024720  3
    805   1678   1669   1660     1  180.0000771  0.4184000  2
    805   1678   1669   1660     1  0.0000000  1.6024720  3
    810    811    823    835     1  0.0000000  0.6508444  3
    810    814    826    832     1  0.0000000  0.6508444  3
    810    817    820    829     1  0.0000000  0.6508444  3
    811    810    814    826     1  0.0000000  0.6508444  3
    811    810    817    820     1  0.0000000  0.6508444  3
    811    823    835   1738     1  0.0000000  0.6508444  3
    814    810    811    823     1  0.0000000  0.6508444  3
    814    810    817    820     1  0.0000000  0.6508444  3
    814    826    832   1708     1  0.0000000  0.6508444  3
    817    810    811    823     1  0.0000000  0.6508444  3
    817    810    814    826     1  0.0000000  0.6508444  3
    817    820    829    838     1  0.0000000  0.6508444  3
    823    835   1738   1729     1  180.0000771  0.4184000  2
    823    835   1738   1729     1  0.0000000  1.6024720  3
    826    832   1708   1699     1  180.0000771  0.4184000  2
    826    832   1708   1699     1  0.0000000  1.6024720  3
    832   1708   1699   1690     1  180.0000771  0.4184000  2
    832   1708   1699   1690     1  0.0000000  1.6024720  3
    835   1738   1729   1720     1  180.0000771  0.4184000  2
    835   1738   1729   1720     1  0.0000000  1.6024720  3
    840    841    853    865     1  0.0000000  0.6508444  3
    840    844    856    862     1  0.0000000  0.6508444  3
    840    847    850    859     1  0.0000000  0.6508444  3
    841    840    844    856     1  0.0000000  0.6508444  3
    841    840    847    850     1  0.0000000  0.6508444  3
    841    853    865   1798     1  0.0000000  0.6508444  3
    844    840    841    853     1  0.0000000  0.6508444  3
    844    840    847    850     1  0.0000000  0.6508444  3
    844    856    862   1768     1  0.0000000  0.6508444  3
    847    840    841    853     1  0.0000000  0.6508444  3
    847    840    844    856     1  0.0000000  0.6508444  3
    847    850    859    868     1  0.0000000  0.6508444  3
    853    865   1798   1789     1  180.0000771  0.4184000  2
    853    865   1798   1789     1  0.0000000  1.6024720  3
    856    862   1768   1759     1  180.0000771  0.4184000  2
    856    862   1768   1759     1  0.0000000  1.6024720  3
    862   1768   1759   1750     1  180.0000771  0.4184000  2
    862   1768   1759   1750     1  0.0000000  1.6024720  3
    865   1798   1789   1780     1  180.0000771  0.4184000  2
    865   1798   1789   1780     1  0.0000000  1.6024720  3
    870    871    883    895     1  0.0000000  0.6508444  3
    870    874    886    892     1  0.0000000  0.6508444  3
    870    877    880    889     1  0.0000000  0.6508444  3
    871    870    874    886     1  0.0000000  0.6508444  3
    871    870    877    880     1  0.0000000  0.6508444  3
    871    883    895   1858     1  0.0000000  0.6508444  3
    874    870    871    883     1  0.0000000  0.6508444  3
    874    870    877    880     1  0.0000000  0.6508444  3
    874    886    892   1828     1  0.0000000  0.6508444  3
    877    870    871    883     1  0.0000000  0.6508444  3
    877    870    874    886     1  0.0000000  0.6508444  3
    877    880    889    898     1  0.0000000  0.6508444  3
    883    895   1858   1849     1  180.0000771  0.4184000  2
    883    895   1858   1849     1  0.0000000  1.6024720  3
    886    892   1828   1819     1  180.0000771  0.4184000  2
    886    892   1828   1819     1  0.0000000  1.6024720  3
    892   1828   1819   1810     1  180.0000771  0.4184000  2
    892   1828   1819   1810     1  0.0000000  1.6024720  3
    895   1858   1849   1840     1  180.0000771  0.4184000  2
    895   1858   1849   1840     1  0.0000000  1.6024720  3
    900    901    913    925     1  0.0000000  0.6508444  3
    900    904    916    922     1  0.0000000  0.6508444  3
    900    907    910    919     1  0.0000000  0.6508444  3
    901    900    904    916     1  0.0000000  0.6508444  3
    901    900    907    910     1  0.0000000  0.6508444  3
    901    913    925   1918     1  0.0000000  0.6508444  3
    904    900    901    913     1  0.0000000  0.6508444  3
    904    900    907    910     1  0.0000000  0.6508444  3
    904    916    922   1888     1  0.0000000  0.6508444  3
    907    900    901    913     1  0.0000000  0.6508444  3
    907    900    904    916     1  0.0000000  0.6508444  3
    907    910    919    928     1  0.0000000  0.6508444  3
    913    925   1918   1909     1  180.0000771  0.4184000  2
    913    925   1918   1909     1  0.0000000  1.6024720  3
    916    922   1888   1879     1  180.0000771  0.4184000  2
    916    922   1888   1879     1  0.0000000  1.6024720  3
    922   1888   1879   1870     1  180.0000771  0.4184000  2
    922   1888   1879   1870     1  0.0000000  1.6024720  3
    925   1918   1909   1900     1  180.0000771  0.4184000  2
    925   1918   1909   1900     1  0.0000000  1.6024720  3
    930    931    943    955     1  0.0000000  0.6508444  3
    930    934    946    952     1  0.0000000  0.6508444  3
    930    937    940    949     1  0.0000000  0.6508444  3
    931    930    934    946     1  0.0000000  0.6508444  3
    931    930    937    940     1  0.0000000  0.6508444  3
    931    943    955   1978     1  0.0000000  0.6508444  3
    934    930    931    943     1  0.0000000  0.6508444  3
    934    930    937    940     1  0.0000000  0.6508444  3
    934    946    952   1948     1  0.0000000  0.6508444  3
    937    930    931    943     1  0.0000000  0.6508444  3
    937    930    934    946     1  0.0000000  0.6508444  3
    937    940    949    958     1  0.0000000  0.6508444  3
    943    955   1978   1969     1  180.0000771  0.4184000  2
    943    955   1978   1969     1  0.0000000  1.6024720  3
    946    952   1948   1939     1  180.0000771  0.4184000  2
    946    952   1948   1939     1  0.0000000  1.6024720  3
    952   1948   1939   1930     1  180.0000771  0.4184000  2
    952   1948   1939   1930     1  0.0000000  1.6024720  3
    955   1978   1969   1960     1  180.0000771  0.4184000  2
    955   1978   1969   1960     1  0.0000000  1.6024720  3
    960    961    973    985     1  0.0000000  0.6508444  3
    960    964    976    982     1  0.0000000  0.6508444  3
    960    967    970    979     1  0.0000000  0.6508444  3
    961    960    964    976     1  0.0000000  0.6508444  3
    961    960    967    970     1  0.0000000  0.6508444  3
    961    973    985   2038     1  0.0000000  0.6508444  3
    964    960    961    973     1  0.0000000  0.6508444  3
    964    960    967    970     1  0.0000000  0.6508444  3
    964    976    982   2008     1  0.0000000  0.6508444  3
    967    960    961    973     1  0.0000000  0.6508444  3
    967    960    964    976     1  0.0000000  0.6508444  3
    967    970    979    988     1  0.0000000  0.6508444  3
    973    985   2038   2029     1  180.0000771  0.4184000  2
    973    985   2038   2029     1  0.0000000  1.6024720  3
    976    982   2008   1999     1  180.0000771  0.4184000  2
    976    982   2008   1999     1  0.0000000  1.6024720  3
    982   2008   1999   1990     1  180.0000771  0.4184000  2
    982   2008   1999   1990     1  0.0000000  1.6024720  3
    985   2038   2029   2020     1  180.0000771  0.4184000  2
    985   2038   2029   2020     1  0.0000000  1.6024720  3
    990    991   1003   1015     1  0.0000000  0.6508444  3
    990    994   1006   1012     1  0.0000000  0.6508444  3
    990    997   1000   1009     1  0.0000000  0.6508444  3
    991    990    994   1006     1  0.0000000  0.6508444  3
    991    990    997   1000     1  0.0000000  0.6508444  3
    991   1003   1015   2098     1  0.0000000  0.6508444  3
    994    990    991   1003     1  0.0000000  0.6508444  3
    994    990    997   1000     1  0.0000000  0.6508444  3
    994   1006   1012   2068     1  0.0000000  0.6508444  3
    997    990    991   1003     1  0.0000000  0.6508444  3
    997    990    994   1006     1  0.0000000  0.6508444  3
    997   1000   1009   1018     1  0.0000000  0.6508444  3
   1003   1015   2098   2089     1  180.0000771  0.4184000  2
   1003   1015   2098   2089     1  0.0000000  1.6024720  3
   1006   1012   2068   2059     1  180.0000771  0.4184000  2
   1006   1012   2068   2059     1  0.0000000  1.6024720  3
   1012   2068   2059   2050     1  180.0000771  0.4184000  2
   1012   2068   2059   2050     1  0.0000000  1.6024720  3
   1015   2098   2089   2080     1  180.0000771  0.4184000  2
   1015   2098   2089   2080     1  0.0000000  1.6024720  3
   1020   1021   1033   1045     1  0.0000000  0.6508444  3
   1020   1024   1036   1042     1  0.0000000  0.6508444  3
   1020   1027   1030   1039     1  0.0000000  0.6508444  3
   1021   1020   1024   1036     1  0.0000000  0.6508444  3
   1021   1020   1027   1030     1  0.0000000  0.6508444  3
   1021   1033   1045   2158     1  0.0000000  0.6508444  3
   1024   1020   1021   1033     1  0.0000000  0.6508444  3
   1024   1020   1027   1030     1  0.0000000  0.6508444  3
   1024   1036   1042   2128     1  0.0000000  0.6508444  3
   1027   1020   1021   1033     1  0.0000000  0.6508444  3
   1027   1020   1024   1036     1  0.0000000  0.6508444  3
   1027   1030   1039   1048     1  0.0000000  0.6508444  3
   1033   1045   2158   2149     1  180.0000771  0.4184000  2
   1033   1045   2158   2149     1  0.0000000  1.6024720  3
   1036   1042   2128   2119     1  180.0000771  0.4184000  2
   1036   1042   2128   2119     1  0.0000000  1.6024720  3
   1042   2128   2119   2110     1  180.0000771  0.4184000  2
   1042   2128   2119   2110     1  0.0000000  1.6024720  3
   1045   2158   2149   2140     1  180.0000771  0.4184000  2
   1045   2158   2149   2140     1  0.0000000  1.6024720  3
   1050   1051   1063   1075     1  0.0000000  0.6508444  3
   1050   1054   1066   1072     1  0.0000000  0.6508444  3
   1050   1057   1060   1069     1  0.0000000  0.6508444  3
   1051   1050   1054   1066     1  0.0000000  0.6508444  3
   1051   1050   1057   1060     1  0.0000000  0.6508444  3
   1051   1063   1075   2218     1  0.0000000  0.6508444  3
   1054   1050   1051   1063     1  0.0000000  0.6508444  3
   1054   1050   1057   1060     1  0.0000000  0.6508444  3
   1054   1066   1072   2188     1  0.0000000  0.6508444  3
   1057   1050   1051   1063     1  0.0000000  0.6508444  3
   1057   1050   1054   1066     1  0.0000000  0.6508444  3
   1057   1060   1069   1078     1  0.0000000  0.6508444  3
   1063   1075   2218   2209     1  180.0000771  0.4184000  2
   1063   1075   2218   2209     1  0.0000000  1.6024720  3
   1066   1072   2188   2179     1  180.0000771  0.4184000  2
   1066   1072   2188   2179     1  0.0000000  1.6024720  3
   1072   2188   2179   2170     1  180.0000771  0.4184000  2
   1072   2188   2179   2170     1  0.0000000  1.6024720  3
   1075   2218   2209   2200     1  180.0000771  0.4184000  2
   1075   2218   2209   2200     1  0.0000000  1.6024720  3
   1080   1081   1093   1105     1  0.0000000  0.6508444  3
   1080   1084   1096   1102     1  0.0000000  0.6508444  3
   1080   1087   1090   1099     1  0.0000000  0.6508444  3
   1081   1080   1084   1096     1  0.0000000  0.6508444  3
   1081   1080   1087   1090     1  0.0000000  0.6508444  3
   1081   1093   1105   2278     1  0.0000000  0.6508444  3
   1084   1080   1081   1093     1  0.0000000  0.6508444  3
   1084   1080   1087   1090     1  0.0000000  0.6508444  3
   1084   1096   1102   2248     1  0.0000000  0.6508444  3
   1087   1080   1081   1093     1  0.0000000  0.6508444  3
   1087   1080   1084   1096     1  0.0000000  0.6508444  3
   1087   1090   1099   1108     1  0.0000000  0.6508444  3
   1093   1105   2278   2269     1  180.0000771  0.4184000  2
   1093   1105   2278   2269     1  0.0000000  1.6024720  3
   1096   1102   2248   2239     1  180.0000771  0.4184000  2
   1096   1102   2248   2239     1  0.0000000  1.6024720  3
   1102   2248   2239   2230     1  180.0000771  0.4184000  2
   1102   2248   2239   2230     1  0.0000000  1.6024720  3
   1105   2278   2269   2260     1  180.0000771  0.4184000  2
   1105   2278   2269   2260     1  0.0000000  1.6024720  3
   1110   1111   1123   1135     1  0.0000000  0.6508444  3
   1110   1114   1126   1132     1  0.0000000  0.6508444  3
   1110   1117   1120   1129     1  0.0000000  0.6508444  3
   1111   1110   1114   1126     1  0.0000000  0.6508444  3
   1111   1110   1117   1120     1  0.0000000  0.6508444  3
   1111   1123   1135   2338     1  0.0000000  0.6508444  3
   1114   1110   1111   1123     1  0.0000000  0.6508444  3
   1114   1110   1117   1120     1  0.0000000  0.6508444  3
   1114   1126   1132   2308     1  0.0000000  0.6508444  3
   1117   1110   1111   1123     1  0.0000000  0.6508444  3
   1117   1110   1114   1126     1  0.0000000  0.6508444  3
   1117   1120   1129   1138     1  0.0000000  0.6508444  3
   1123   1135   2338   2329     1  180.0000771  0.4184000  2
   1123   1135   2338   2329     1  0.0000000  1.6024720  3
   1126   1132   2308   2299     1  180.0000771  0.4184000  2
   1126   1132   2308   2299     1  0.0000000  1.6024720  3
   1132   2308   2299   2290     1  180.0000771  0.4184000  2
   1132   2308   2299   2290     1  0.0000000  1.6024720  3
   1135   2338   2329   2320     1  180.0000771  0.4184000  2
   1135   2338   2329   2320     1  0.0000000  1.6024720  3
   1140   1141   1153   1165     1  0.0000000  0.6508444  3
   1140   1144   1156   1162     1  0.0000000  0.6508444  3
   1140   1147   1150   1159     1  0.0000000  0.6508444  3
   1141   1140   1144   1156     1  0.0000000  0.6508444  3
   1141   1140   1147   1150     1  0.0000000  0.6508444  3
   1141   1153   1165   2398     1  0.0000000  0.6508444  3
   1144   1140   1141   1153     1  0.0000000  0.6508444  3
   1144   1140   1147   1150     1  0.0000000  0.6508444  3
   1144   1156   1162   2368     1  0.0000000  0.6508444  3
   1147   1140   1141   1153     1  0.0000000  0.6508444  3
   1147   1140   1144   1156     1  0.0000000  0.6508444  3
   1147   1150   1159   1168     1  0.0000000  0.6508444  3
   1153   1165   2398   2389     1  180.0000771  0.4184000  2
   1153   1165   2398   2389     1  0.0000000  1.6024720  3
   1156   1162   2368   2359     1  180.0000771  0.4184000  2
   1156   1162   2368   2359     1  0.0000000  1.6024720  3
   1162   2368   2359   2350     1  180.0000771  0.4184000  2
   1162   2368   2359   2350     1  0.0000000  1.6024720  3
   1165   2398   2389   2380     1  180.0000771  0.4184000  2
   1165   2398   2389   2380     1  0.0000000  1.6024720  3
   1170   1171   1183   1195     1  0.0000000  0.6508444  3
   1170   1174   1186   1192     1  0.0000000  0.6508444  3
   1170   1177   1180   1189     1  0.0000000  0.6508444  3
   1171   1170   1174   1186     1  0.0000000  0.6508444  3
   1171   1170   1177   1180     1  0.0000000  0.6508444  3
   1171   1183   1195   2458     1  0.0000000  0.6508444  3
   1174   1170   1171   1183     1  0.0000000  0.6508444  3
   1174   1170   1177   1180     1  0.0000000  0.6508444  3
   1174   1186   1192   2428     1  0.0000000  0.6508444  3
   1177   1170   1171   1183     1  0.0000000  0.6508444  3
   1177   1170   1174   1186     1  0.0000000  0.6508444  3
   1177   1180   1189   1198     1  0.0000000  0.6508444  3
   1183   1195   2458   2449     1  180.0000771  0.4184000  2
   1183   1195   2458   2449     1  0.0000000  1.6024720  3
   1186   1192   2428   2419     1  180.0000771  0.4184000  2
   1186   1192   2428   2419     1  0.0000000  1.6024720  3
   1192   2428   2419   2410     1  180.0000771  0.4184000  2
   1192   2428   2419   2410     1  0.0000000  1.6024720  3
   1195   2458   2449   2440     1  180.0000771  0.4184000  2
   1195   2458   2449   2440     1  0.0000000  1.6024720  3
   1200   1201   1213   1225     1  0.0000000  0.6508444  3
   1200   1204   1216   1222     1  0.0000000  0.6508444  3
   1200   1207   1210   1219     1  0.0000000  0.6508444  3
   1201   1200   1204   1216     1  0.0000000  0.6508444  3
   1201   1200   1207   1210     1  0.0000000  0.6508444  3
   1201   1213   1225   2518     1  0.0000000  0.6508444  3
   1204   1200   1201   1213     1  0.0000000  0.6508444  3
   1204   1200   1207   1210     1  0.0000000  0.6508444  3
   1204   1216   1222   2488     1  0.0000000  0.6508444  3
   1207   1200   1201   1213     1  0.0000000  0.6508444  3
   1207   1200   1204   1216     1  0.0000000  0.6508444  3
   1207   1210   1219   1228     1  0.0000000  0.6508444  3
   1213   1225   2518   2509     1  180.0000771  0.4184000  2
   1213   1225   2518   2509     1  0.0000000  1.6024720  3
   1216   1222   2488   2479     1  180.0000771  0.4184000  2
   1216   1222   2488   2479     1  0.0000000  1.6024720  3
   1222   2488   2479   2470     1  180.0000771  0.4184000  2
   1222   2488   2479   2470     1  0.0000000  1.6024720  3
   1225   2518   2509   2500     1  180.0000771  0.4184000  2
   1225   2518   2509   2500     1  0.0000000  1.6024720  3
   1230   1231   1243   1255     1  0.0000000  0.6508444  3
   1230   1234   1246   1252     1  0.0000000  0.6508444  3
   1230   1237   1240   1249     1  0.0000000  0.6508444  3
   1231   1230   1234   1246     1  0.0000000  0.6508444  3
   1231   1230   1237   1240     1  0.0000000  0.6508444  3
   1231   1243   1255   2578     1  0.0000000  0.6508444  3
   1234   1230   1231   1243     1  0.0000000  0.6508444  3
   1234   1230   1237   1240     1  0.0000000  0.6508444  3
   1234   1246   1252   2548     1  0.0000000  0.6508444  3
   1237   1230   1231   1243     1  0.0000000  0.6508444  3
   1237   1230   1234   1246     1  0.0000000  0.6508444  3
   1237   1240   1249   1258     1  0.0000000  0.6508444  3
   1243   1255   2578   2569     1  180.0000771  0.4184000  2
   1243   1255   2578   2569     1  0.0000000  1.6024720  3
   1246   1252   2548   2539     1  180.0000771  0.4184000  2
   1246   1252   2548   2539     1  0.0000000  1.6024720  3
   1252   2548   2539   2530     1  180.0000771  0.4184000  2
   1252   2548   2539   2530     1  0.0000000  1.6024720  3
   1255   2578   2569   2560     1  180.0000771  0.4184000  2
   1255   2578   2569   2560     1  0.0000000  1.6024720  3
   1260   1261   1273   1285     1  0.0000000  0.6508444  3
   1260   1264   1276   1282     1  0.0000000  0.6508444  3
   1260   1267   1270   1279     1  0.0000000  0.6508444  3
   1261   1260   1264   1276     1  0.0000000  0.6508444  3
   1261   1260   1267   1270     1  0.0000000  0.6508444  3
   1261   1273   1285   2638     1  0.0000000  0.6508444  3
   1264   1260   1261   1273     1  0.0000000  0.6508444  3
   1264   1260   1267   1270     1  0.0000000  0.6508444  3
   1264   1276   1282   2608     1  0.0000000  0.6508444  3
   1267   1260   1261   1273     1  0.0000000  0.6508444  3
   1267   1260   1264   1276     1  0.0000000  0.6508444  3
   1267   1270   1279   1288     1  0.0000000  0.6508444  3
   1273   1285   2638   2629     1  180.0000771  0.4184000  2
   1273   1285   2638   2629     1  0.0000000  1.6024720  3
   1276   1282   2608   2599     1  180.0000771  0.4184000  2
   1276   1282   2608   2599     1  0.0000000  1.6024720  3
   1282   2608   2599   2590     1  180.0000771  0.4184000  2
   1282   2608   2599   2590     1  0.0000000  1.6024720  3
   1285   2638   2629   2620     1  180.0000771  0.4184000  2
   1285   2638   2629   2620     1  0.0000000  1.6024720  3
   1290   1291   1303   1315     1  0.0000000  0.6508444  3
   1290   1294   1306   1312     1  0.0000000  0.6508444  3
   1290   1297   1300   1309     1  0.0000000  0.6508444  3
   1291   1290   1294   1306     1  0.0000000  0.6508444  3
   1291   1290   1297   1300     1  0.0000000  0.6508444  3
   1291   1303   1315   2698     1  0.0000000  0.6508444  3
   1294   1290   1291   1303     1  0.0000000  0.6508444  3
   1294   1290   1297   1300     1  0.0000000  0.6508444  3
   1294   1306   1312   2668     1  0.0000000  0.6508444  3
   1297   1290   1291   1303     1  0.0000000  0.6508444  3
   1297   1290   1294   1306     1  0.0000000  0.6508444  3
   1297   1300   1309   1318     1  0.0000000  0.6508444  3
   1303   1315   2698   2689     1  180.0000771  0.4184000  2
   1303   1315   2698   2689     1  0.0000000  1.6024720  3
   1306   1312   2668   2659     1  180.0000771  0.4184000  2
   1306   1312   2668   2659     1  0.0000000  1.6024720  3
   1312   2668   2659   2650     1  180.0000771  0.4184000  2
   1312   2668   2659   2650     1  0.0000000  1.6024720  3
   1315   2698   2689   2680     1  180.0000771  0.4184000  2
   1315   2698   2689   2680     1  0.0000000  1.6024720  3
   1320   1321   1333   1345     1  0.0000000  0.6508444  3
   1320   1324   1336   1342     1  0.0000000  0.6508444  3
   1320   1327   1330   1339     1  0.0000000  0.6508444  3
   1321   1320   1324   1336     1  0.0000000  0.6508444  3
   1321   1320   1327   1330     1  0.0000000  0.6508444  3
   1321   1333   1345   2758     1  0.0000000  0.6508444  3
   1324   1320   1321   1333     1  0.0000000  0.6508444  3
   1324   1320   1327   1330     1  0.0000000  0.6508444  3
   1324   1336   1342   2728     1  0.0000000  0.6508444  3
   1327   1320   1321   1333     1  0.0000000  0.6508444  3
   1327   1320   1324   1336     1  0.0000000  0.6508444  3
   1327   1330   1339   1348     1  0.0000000  0.6508444  3
   1333   1345   2758   2749     1  180.0000771  0.4184000  2
   1333   1345   2758   2749     1  0.0000000  1.6024720  3
   1336   1342   2728   2719     1  180.0000771  0.4184000  2
   1336   1342   2728   2719     1  0.0000000  1.6024720  3
   1342   2728   2719   2710     1  180.0000771  0.4184000  2
   1342   2728   2719   2710     1  0.0000000  1.6024720  3
   1345   2758   2749   2740     1  180.0000771  0.4184000  2
   1345   2758   2749   2740     1  0.0000000  1.6024720  3
   1350   1351   1363   1375     1  0.0000000  0.6508444  3
   1350   1354   1366   1372     1  0.0000000  0.6508444  3
   1350   1357   1360   1369     1  0.0000000  0.6508444  3
   1351   1350   1354   1366     1  0.0000000  0.6508444  3
   1351   1350   1357   1360     1  0.0000000  0.6508444  3
   1351   1363   1375   2818     1  0.0000000  0.6508444  3
   1354   1350   1351   1363     1  0.0000000  0.6508444  3
   1354   1350   1357   1360     1  0.0000000  0.6508444  3
   1354   1366   1372   2788     1  0.0000000  0.6508444  3
   1357   1350   1351   1363     1  0.0000000  0.6508444  3
   1357   1350   1354   1366     1  0.0000000  0.6508444  3
   1357   1360   1369   1378     1  0.0000000  0.6508444  3
   1363   1375   2818   2809     1  180.0000771  0.4184000  2
   1363   1375   2818   2809     1  0.0000000  1.6024720  3
   1366   1372   2788   2779     1  180.0000771  0.4184000  2
   1366   1372   2788   2779     1  0.0000000  1.6024720  3
   1372   2788   2779   2770     1  180.0000771  0.4184000  2
   1372   2788   2779   2770     1  0.0000000  1.6024720  3
   1375   2818   2809   2800     1  180.0000771  0.4184000  2
   1375   2818   2809   2800     1  0.0000000  1.6024720  3
   1380   1381   1393   1405     1  0.0000000  0.6508444  3
   1380   1384   1396   1402     1  0.0000000  0.6508444  3
   1380   1387   1390   1399     1  0.0000000  0.6508444  3
   1381   1380   1384   1396     1  0.0000000  0.6508444  3
   1381   1380   1387   1390     1  0.0000000  0.6508444  3
   1381   1393   1405   2878     1  0.0000000  0.6508444  3
   1384   1380   1381   1393     1  0.0000000  0.6508444  3
   1384   1380   1387   1390     1  0.0000000  0.6508444  3
   1384   1396   1402   2848     1  0.0000000  0.6508444  3
   1387   1380   1381   1393     1  0.0000000  0.6508444  3
   1387   1380   1384   1396     1  0.0000000  0.6508444  3
   1387   1390   1399   1408     1  0.0000000  0.6508444  3
   1393   1405   2878   2869     1  180.0000771  0.4184000  2
   1393   1405   2878   2869     1  0.0000000  1.6024720  3
   1396   1402   2848   2839     1  180.0000771  0.4184000  2
   1396   1402   2848   2839     1  0.0000000  1.6024720  3
   1402   2848   2839   2830     1  180.0000771  0.4184000  2
   1402   2848   2839   2830     1  0.0000000  1.6024720  3
   1405   2878   2869   2860     1  180.0000771  0.4184000  2
   1405   2878   2869   2860     1  0.0000000  1.6024720  3
   1410   1411   1423   1435     1  0.0000000  0.6508444  3
   1410   1414   1426   1432     1  0.0000000  0.6508444  3
   1410   1417   1420   1429     1  0.0000000  0.6508444  3
   1411   1410   1414   1426     1  0.0000000  0.6508444  3
   1411   1410   1417   1420     1  0.0000000  0.6508444  3
   1411   1423   1435   2938     1  0.0000000  0.6508444  3
   1414   1410   1411   1423     1  0.0000000  0.6508444  3
   1414   1410   1417   1420     1  0.0000000  0.6508444  3
   1414   1426   1432   2908     1  0.0000000  0.6508444  3
   1417   1410   1411   1423     1  0.0000000  0.6508444  3
   1417   1410   1414   1426     1  0.0000000  0.6508444  3
   1417   1420   1429   1438     1  0.0000000  0.6508444  3
   1423   1435   2938   2929     1  180.0000771  0.4184000  2
   1423   1435   2938   2929     1  0.0000000  1.6024720  3
   1426   1432   2908   2899     1  180.0000771  0.4184000  2
   1426   1432   2908   2899     1  0.0000000  1.6024720  3
   1432   2908   2899   2890     1  180.0000771  0.4184000  2
   1432   2908   2899   2890     1  0.0000000  1.6024720  3
   1435   2938   2929   2920     1  180.0000771  0.4184000  2
   1435   2938   2929   2920     1  0.0000000  1.6024720  3
   1440   1441   1453   1465     1  0.0000000  0.6508444  3
   1440   1444   1456   1462     1  0.0000000  0.6508444  3
   1440   1447   1450   1459     1  0.0000000  0.6508444  3
   1441   1440   1444   1456     1  0.0000000  0.6508444  3
   1441   1440   1447   1450     1  0.0000000  0.6508444  3
   1441   1453   1465   2998     1  0.0000000  0.6508444  3
   1444   1440   1441   1453     1  0.0000000  0.6508444  3
   1444   1440   1447   1450     1  0.0000000  0.6508444  3
   1444   1456   1462   2968     1  0.0000000  0.6508444  3
   1447   1440   1441   1453     1  0.0000000  0.6508444  3
   1447   1440   1444   1456     1  0.0000000  0.6508444  3
   1447   1450   1459   1468     1  0.0000000  0.6508444  3
   1453   1465   2998   2989     1  180.0000771  0.4184000  2
   1453   1465   2998   2989     1  0.0000000  1.6024720  3
   1456   1462   2968   2959     1  180.0000771  0.4184000  2
   1456   1462   2968   2959     1  0.0000000  1.6024720  3
   1462   2968   2959   2950     1  180.0000771  0.4184000  2
   1462   2968   2959   2950     1  0.0000000  1.6024720  3
   1465   2998   2989   2980     1  180.0000771  0.4184000  2
   1465   2998   2989   2980     1  0.0000000  1.6024720  3
   1470   1471   1483   1495     1  0.0000000  0.6508444  3
   1470   1474   1486   1492     1  0.0000000  0.6508444  3
   1470   1477   1480   1489     1  0.0000000  0.6508444  3
   1471   1470   1474   1486     1  0.0000000  0.6508444  3
   1471   1470   1477   1480     1  0.0000000  0.6508444  3
   1471   1483   1495   3058     1  0.0000000  0.6508444  3
   1474   1470   1471   1483     1  0.0000000  0.6508444  3
   1474   1470   1477   1480     1  0.0000000  0.6508444  3
   1474   1486   1492   3028     1  0.0000000  0.6508444  3
   1477   1470   1471   1483     1  0.0000000  0.6508444  3
   1477   1470   1474   1486     1  0.0000000  0.6508444  3
   1477   1480   1489   1498     1  0.0000000  0.6508444  3
   1483   1495   3058   3049     1  180.0000771  0.4184000  2
   1483   1495   3058   3049     1  0.0000000  1.6024720  3
   1486   1492   3028   3019     1  180.0000771  0.4184000  2
   1486   1492   3028   3019     1  0.0000000  1.6024720  3
   1492   3028   3019   3010     1  180.0000771  0.4184000  2
   1492   3028   3019   3010     1  0.0000000  1.6024720  3
   1495   3058   3049   3040     1  180.0000771  0.4184000  2
   1495   3058   3049   3040     1  0.0000000  1.6024720  3
   1500   1501   1513   1525     1  0.0000000  0.6508444  3
   1500   1504   1516   1522     1  0.0000000  0.6508444  3
   1500   1507   1510   1519     1  0.0000000  0.6508444  3
   1501   1500   1504   1516     1  0.0000000  0.6508444  3
   1501   1500   1507   1510     1  0.0000000  0.6508444  3
   1501   1513   1525   3118     1  0.0000000  0.6508444  3
   1504   1500   1501   1513     1  0.0000000  0.6508444  3
   1504   1500   1507   1510     1  0.0000000  0.6508444  3
   1504   1516   1522   3088     1  0.0000000  0.6508444  3
   1507   1500   1501   1513     1  0.0000000  0.6508444  3
   1507   1500   1504   1516     1  0.0000000  0.6508444  3
   1507   1510   1519   1528     1  0.0000000  0.6508444  3
   1513   1525   3118   3109     1  180.0000771  0.4184000  2
   1513   1525   3118   3109     1  0.0000000  1.6024720  3
   1516   1522   3088   3079     1  180.0000771  0.4184000  2
   1516   1522   3088   3079     1  0.0000000  1.6024720  3
   1522   3088   3079   3070     1  180.0000771  0.4184000  2
   1522   3088   3079   3070     1  0.0000000  1.6024720  3
   1525   3118   3109   3100     1  180.0000771  0.4184000  2
   1525   3118   3109   3100     1  0.0000000  1.6024720  3
   1530   1531   1543   1555     1  0.0000000  0.6508444  3
   1530   1534   1546   1552     1  0.0000000  0.6508444  3
   1530   1537   1540   1549     1  0.0000000  0.6508444  3
   1531   1530   1534   1546     1  0.0000000  0.6508444  3
   1531   1530   1537   1540     1  0.0000000  0.6508444  3
   1531   1543   1555   3178     1  0.0000000  0.6508444  3
   1534   1530   1531   1543     1  0.0000000  0.6508444  3
   1534   1530   1537   1540     1  0.0000000  0.6508444  3
   1534   1546   1552   3148     1  0.0000000  0.6508444  3
   1537   1530   1531   1543     1  0.0000000  0.6508444  3
   1537   1530   1534   1546     1  0.0000000  0.6508444  3
   1537   1540   1549   1558     1  0.0000000  0.6508444  3
   1543   1555   3178   3169     1  180.0000771  0.4184000  2
   1543   1555   3178   3169     1  0.0000000  1.6024720  3
   1546   1552   3148   3139     1  180.0000771  0.4184000  2
   1546   1552   3148   3139     1  0.0000000  1.6024720  3
   1552   3148   3139   3130     1  180.0000771  0.4184000  2
   1552   3148   3139   3130     1  0.0000000  1.6024720  3
   1555   3178   3169   3160     1  180.0000771  0.4184000  2
   1555   3178   3169   3160     1  0.0000000  1.6024720  3
   1560   1561   1573   1585     1  0.0000000  0.6508444  3
   1560   1564   1576   1582     1  0.0000000  0.6508444  3
   1560   1567   1570   1579     1  0.0000000  0.6508444  3
   1561   1560   1564   1576     1  0.0000000  0.6508444  3
   1561   1560   1567   1570     1  0.0000000  0.6508444  3
   1561   1573   1585   3238     1  0.0000000  0.6508444  3
   1564   1560   1561   1573     1  0.0000000  0.6508444  3
   1564   1560   1567   1570     1  0.0000000  0.6508444  3
   1564   1576   1582   3208     1  0.0000000  0.6508444  3
   1567   1560   1561   1573     1  0.0000000  0.6508444  3
   1567   1560   1564   1576     1  0.0000000  0.6508444  3
   1567   1570   1579   1588     1  0.0000000  0.6508444  3
   1573   1585   3238   3229     1  180.0000771  0.4184000  2
   1573   1585   3238   3229     1  0.0000000  1.6024720  3
   1576   1582   3208   3199     1  180.0000771  0.4184000  2
   1576   1582   3208   3199     1  0.0000000  1.6024720  3
   1582   3208   3199   3190     1  180.0000771  0.4184000  2
   1582   3208   3199   3190     1  0.0000000  1.6024720  3
   1585   3238   3229   3220     1  180.0000771  0.4184000  2
   1585   3238   3229   3220     1  0.0000000  1.6024720  3
   1590   1591   1603   1615     1  0.0000000  0.6508444  3
   1590   1594   1606   1612     1  0.0000000  0.6508444  3
   1590   1597   1600   1609     1  0.0000000  0.6508444  3
   1591   1590   1594   1606     1  0.0000000  0.6508444  3
   1591   1590   1597   1600     1  0.0000000  0.6508444  3
   1591   1603   1615   3298     1  0.0000000  0.6508444  3
   1594   1590   1591   1603     1  0.0000000  0.6508444  3
   1594   1590   1597   1600     1  0.0000000  0.6508444  3
   1594   1606   1612   3268     1  0.0000000  0.6508444  3
   1597   1590   1591   1603     1  0.0000000  0.6508444  3
   1597   1590   1594   1606     1  0.0000000  0.6508444  3
   1597   1600   1609   1618     1  0.0000000  0.6508444  3
   1603   1615   3298   3289     1  180.0000771  0.4184000  2
   1603   1615   3298   3289     1  0.0000000  1.6024720  3
   1606   1612   3268   3259     1  180.0000771  0.4184000  2
   1606   1612   3268   3259     1  0.0000000  1.6024720  3
   1612   3268   3259   3250     1  180.0000771  0.4184000  2
   1612   3268   3259   3250     1  0.0000000  1.6024720  3
   1615   3298   3289   3280     1  180.0000771  0.4184000  2
   1615   3298   3289   3280     1  0.0000000  1.6024720  3
   1620   1621   1633   1645     1  0.0000000  0.6508444  3
   1620   1624   1636   1642     1  0.0000000  0.6508444  3
   1620   1627   1630   1639     1  0.0000000  0.6508444  3
   1621   1620   1624   1636     1  0.0000000  0.6508444  3
   1621   1620   1627   1630     1  0.0000000  0.6508444  3
   1621   1633   1645   3358     1  0.0000000  0.6508444  3
   1624   1620   1621   1633     1  0.0000000  0.6508444  3
   1624   1620   1627   1630     1  0.0000000  0.6508444  3
   1624   1636   1642   3328     1  0.0000000  0.6508444  3
   1627   1620   1621   1633     1  0.0000000  0.6508444  3
   1627   1620   1624   1636     1  0.0000000  0.6508444  3
   1627   1630   1639   1648     1  0.0000000  0.6508444  3
   1633   1645   3358   3349     1  180.0000771  0.4184000  2
   1633   1645   3358   3349     1  0.0000000  1.6024720  3
   1636   1642   3328   3319     1  180.0000771  0.4184000  2
   1636   1642   3328   3319     1  0.0000000  1.6024720  3
   1642   3328   3319   3310     1  180.0000771  0.4184000  2
   1642   3328   3319   3310     1  0.0000000  1.6024720  3
   1645   3358   3349   3340     1  180.0000771  0.4184000  2
   1645   3358   3349   3340     1  0.0000000  1.6024720  3
   1650   1651   1663   1675     1  0.0000000  0.6508444  3
   1650   1654   1666   1672     1  0.0000000  0.6508444  3
   1650   1657   1660   1669     1  0.0000000  0.6508444  3
   1651   1650   1654   1666     1  0.0000000  0.6508444  3
   1651   1650   1657   1660     1  0.0000000  0.6508444  3
   1651   1663   1675   3418     1  0.0000000  0.6508444  3
   1654   1650   1651   1663     1  0.0000000  0.6508444  3
   1654   1650   1657   1660     1  0.0000000  0.6508444  3
   1654   1666   1672   3388     1  0.0000000  0.6508444  3
   1657   1650   1651   1663     1  0.0000000  0.6508444  3
   1657   1650   1654   1666     1  0.0000000  0.6508444  3
   1657   1660   1669   1678     1  0.0000000  0.6508444  3
   1663   1675   3418   3409     1  180.0000771  0.4184000  2
   1663   1675   3418   3409     1  0.0000000  1.6024720  3
   1666   1672   3388   3379     1  180.0000771  0.4184000  2
   1666   1672   3388   3379     1  0.0000000  1.6024720  3
   1672   3388   3379   3370     1  180.0000771  0.4184000  2
   1672   3388   3379   3370     1  0.0000000  1.6024720  3
   1675   3418   3409   3400     1  180.0000771  0.4184000  2
   1675   3418   3409   3400     1  0.0000000  1.6024720  3
   1680   1681   1693   1705     1  0.0000000  0.6508444  3
   1680   1684   1696   1702     1  0.0000000  0.6508444  3
   1680   1687   1690   1699     1  0.0000000  0.6508444  3
   1681   1680   1684   1696     1  0.0000000  0.6508444  3
   1681   1680   1687   1690     1  0.0000000  0.6508444  3
   1681   1693   1705   3478     1  0.0000000  0.6508444  3
   1684   1680   1681   1693     1  0.0000000  0.6508444  3
   1684   1680   1687   1690     1  0.0000000  0.6508444  3
   1684   1696   1702   3448     1  0.0000000  0.6508444  3
   1687   1680   1681   1693     1  0.0000000  0.6508444  3
   1687   1680   1684   1696     1  0.0000000  0.6508444  3
   1687   1690   1699   1708     1  0.0000000  0.6508444  3
   1693   1705   3478   3469     1  180.0000771  0.4184000  2
   1693   1705   3478   3469     1  0.0000000  1.6024720  3
   1696   1702   3448   3439     1  180.0000771  0.4184000  2
   1696   1702   3448   3439     1  0.0000000  1.6024720  3
   1702   3448   3439   3430     1  180.0000771  0.4184000  2
   1702   3448   3439   3430     1  0.0000000  1.6024720  3
   1705   3478   3469   3460     1  180.0000771  0.4184000  2
   1705   3478   3469   3460     1  0.0000000  1.6024720  3
   1710   1711   1723   1735     1  0.0000000  0.6508444  3
   1710   1714   1726   1732     1  0.0000000  0.6508444  3
   1710   1717   1720   1729     1  0.0000000  0.6508444  3
   1711   1710   1714   1726     1  0.0000000  0.6508444  3
   1711   1710   1717   1720     1  0.0000000  0.6508444  3
   1711   1723   1735   3538     1  0.0000000  0.6508444  3
   1714   1710   1711   1723     1  0.0000000  0.6508444  3
   1714   1710   1717   1720     1  0.0000000  0.6508444  3
   1714   1726   1732   3508     1  0.0000000  0.6508444  3
   1717   1710   1711   1723     1  0.0000000  0.6508444  3
   1717   1710   1714   1726     1  0.0000000  0.6508444  3
   1717   1720   1729   1738     1  0.0000000  0.6508444  3
   1723   1735   3538   3529     1  180.0000771  0.4184000  2
   1723   1735   3538   3529     1  0.0000000  1.6024720  3
   1726   1732   3508   3499     1  180.0000771  0.4184000  2
   1726   1732   3508   3499     1  0.0000000  1.6024720  3
   1732   3508   3499   3490     1  180.0000771  0.4184000  2
   1732   3508   3499   3490     1  0.0000000  1.6024720  3
   1735   3538   3529   3520     1  180.0000771  0.4184000  2
   1735   3538   3529   3520     1  0.0000000  1.6024720  3
   1740   1741   1753   1765     1  0.0000000  0.6508444  3
   1740   1744   1756   1762     1  0.0000000  0.6508444  3
   1740   1747   1750   1759     1  0.0000000  0.6508444  3
   1741   1740   1744   1756     1  0.0000000  0.6508444  3
   1741   1740   1747   1750     1  0.0000000  0.6508444  3
   1741   1753   1765   3598     1  0.0000000  0.6508444  3
   1744   1740   1741   1753     1  0.0000000  0.6508444  3
   1744   1740   1747   1750     1  0.0000000  0.6508444  3
   1744   1756   1762   3568     1  0.0000000  0.6508444  3
   1747   1740   1741   1753     1  0.0000000  0.6508444  3
   1747   1740   1744   1756     1  0.0000000  0.6508444  3
   1747   1750   1759   1768     1  0.0000000  0.6508444  3
   1753   1765   3598   3589     1  180.0000771  0.4184000  2
   1753   1765   3598   3589     1  0.0000000  1.6024720  3
   1756   1762   3568   3559     1  180.0000771  0.4184000  2
   1756   1762   3568   3559     1  0.0000000  1.6024720  3
   1762   3568   3559   3550     1  180.0000771  0.4184000  2
   1762   3568   3559   3550     1  0.0000000  1.6024720  3
   1765   3598   3589   3580     1  180.0000771  0.4184000  2
   1765   3598   3589   3580     1  0.0000000  1.6024720  3
   1770   1771   1783   1795     1  0.0000000  0.6508444  3
   1770   1774   1786   1792     1  0.0000000  0.6508444  3
   1770   1777   1780   1789     1  0.0000000  0.6508444  3
   1771   1770   1774   1786     1  0.0000000  0.6508444  3
   1771   1770   1777   1780     1  0.0000000  0.6508444  3
   1771   1783   1795   3658     1  0.0000000  0.6508444  3
   1774   1770   1771   1783     1  0.0000000  0.6508444  3
   1774   1770   1777   1780     1  0.0000000  0.6508444  3
   1774   1786   1792   3628     1  0.0000000  0.6508444  3
   1777   1770   1771   1783     1  0.0000000  0.6508444  3
   1777   1770   1774   1786     1  0.0000000  0.6508444  3
   1777   1780   1789   1798     1  0.0000000  0.6508444  3
   1783   1795   3658   3649     1  180.0000771  0.4184000  2
   1783   1795   3658   3649     1  0.0000000  1.6024720  3
   1786   1792   3628   3619     1  180.0000771  0.4184000  2
   1786   1792   3628   3619     1  0.0000000  1.6024720  3
   1792   3628   3619   3610     1  180.0000771  0.4184000  2
   1792   3628   3619   3610     1  0.0000000  1.6024720  3
   1795   3658   3649   3640     1  180.0000771  0.4184000  2
   1795   3658   3649   3640     1  0.0000000  1.6024720  3
   1800   1801   1813   1825     1  0.0000000  0.6508444  3
   1800   1804   1816   1822     1  0.0000000  0.6508444  3
   1800   1807   1810   1819     1  0.0000000  0.6508444  3
   1801   1800   1804   1816     1  0.0000000  0.6508444  3
   1801   1800   1807   1810     1  0.0000000  0.6508444  3
   1801   1813   1825   3718     1  0.0000000  0.6508444  3
   1804   1800   1801   1813     1  0.0000000  0.6508444  3
   1804   1800   1807   1810     1  0.0000000  0.6508444  3
   1804   1816   1822   3688     1  0.0000000  0.6508444  3
   1807   1800   1801   1813     1  0.0000000  0.6508444  3
   1807   1800   1804   1816     1  0.0000000  0.6508444  3
   1807   1810   1819   1828     1  0.0000000  0.6508444  3
   1813   1825   3718   3709     1  180.0000771  0.4184000  2
   1813   1825   3718   3709     1  0.0000000  1.6024720  3
   1816   1822   3688   3679     1  180.0000771  0.4184000  2
   1816   1822   3688   3679     1  0.0000000  1.6024720  3
   1822   3688   3679   3670     1  180.0000771  0.4184000  2
   1822   3688   3679   3670     1  0.0000000  1.6024720  3
   1825   3718   3709   3700     1  180.0000771  0.4184000  2
   1825   3718   3709   3700     1  0.0000000  1.6024720  3
   1830   1831   1843   1855     1  0.0000000  0.6508444  3
   1830   1834   1846   1852     1  0.0000000  0.6508444  3
   1830   1837   1840   1849     1  0.0000000  0.6508444  3
   1831   1830   1834   1846     1  0.0000000  0.6508444  3
   1831   1830   1837   1840     1  0.0000000  0.6508444  3
   1831   1843   1855   3778     1  0.0000000  0.6508444  3
   1834   1830   1831   1843     1  0.0000000  0.6508444  3
   1834   1830   1837   1840     1  0.0000000  0.6508444  3
   1834   1846   1852   3748     1  0.0000000  0.6508444  3
   1837   1830   1831   1843     1  0.0000000  0.6508444  3
   1837   1830   1834   1846     1  0.0000000  0.6508444  3
   1837   1840   1849   1858     1  0.0000000  0.6508444  3
   1843   1855   3778   3769     1  180.0000771  0.4184000  2
   1843   1855   3778   3769     1  0.0000000  1.6024720  3
   1846   1852   3748   3739     1  180.0000771  0.4184000  2
   1846   1852   3748   3739     1  0.0000000  1.6024720  3
   1852   3748   3739   3730     1  180.0000771  0.4184000  2
   1852   3748   3739   3730     1  0.0000000  1.6024720  3
   1855   3778   3769   3760     1  180.0000771  0.4184000  2
   1855   3778   3769   3760     1  0.0000000  1.6024720  3
   1860   1861   1873   1885     1  0.0000000  0.6508444  3
   1860   1864   1876   1882     1  0.0000000  0.6508444  3
   1860   1867   1870   1879     1  0.0000000  0.6508444  3
   1861   1860   1864   1876     1  0.0000000  0.6508444  3
   1861   1860   1867   1870     1  0.0000000  0.6508444  3
   1861   1873   1885   3806     1  0.0000000  0.6508444  3
   1864   1860   1861   1873     1  0.0000000  0.6508444  3
   1864   1860   1867   1870     1  0.0000000  0.6508444  3
   1864   1876   1882   3792     1  0.0000000  0.6508444  3
   1867   1860   1861   1873     1  0.0000000  0.6508444  3
   1867   1860   1864   1876     1  0.0000000  0.6508444  3
   1867   1870   1879   1888     1  0.0000000  0.6508444  3
   1873   1885   3806   3800     1  180.0000771  0.4184000  2
   1873   1885   3806   3800     1  0.0000000  1.6024720  3
   1876   1882   3792   3786     1  180.0000771  0.4184000  2
   1876   1882   3792   3786     1  0.0000000  1.6024720  3
   1882   3792   3786   3783     1  180.0000771  0.4184000  2
   1882   3792   3786   3783     1  0.0000000  1.6024720  3
   1885   3806   3800   3797     1  180.0000771  0.4184000  2
   1885   3806   3800   3797     1  0.0000000  1.6024720  3
   1890   1891   1903   1915     1  0.0000000  0.6508444  3
   1890   1894   1906   1912     1  0.0000000  0.6508444  3
   1890   1897   1900   1909     1  0.0000000  0.6508444  3
   1891   1890   1894   1906     1  0.0000000  0.6508444  3
   1891   1890   1897   1900     1  0.0000000  0.6508444  3
   1891   1903   1915   3834     1  0.0000000  0.6508444  3
   1894   1890   1891   1903     1  0.0000000  0.6508444  3
   1894   1890   1897   1900     1  0.0000000  0.6508444  3
   1894   1906   1912   3820     1  0.0000000  0.6508444  3
   1897   1890   1891   1903     1  0.0000000  0.6508444  3
   1897   1890   1894   1906     1  0.0000000  0.6508444  3
   1897   1900   1909   1918     1  0.0000000  0.6508444  3
   1903   1915   3834   3828     1  180.0000771  0.4184000  2
   1903   1915   3834   3828     1  0.0000000  1.6024720  3
   1906   1912   3820   3814     1  180.0000771  0.4184000  2
   1906   1912   3820   3814     1  0.0000000  1.6024720  3
   1912   3820   3814   3811     1  180.0000771  0.4184000  2
   1912   3820   3814   3811     1  0.0000000  1.6024720  3
   1915   3834   3828   3825     1  180.0000771  0.4184000  2
   1915   3834   3828   3825     1  0.0000000  1.6024720  3
   1920   1921   1933   1945     1  0.0000000  0.6508444  3
   1920   1924   1936   1942     1  0.0000000  0.6508444  3
   1920   1927   1930   1939     1  0.0000000  0.6508444  3
   1921   1920   1924   1936     1  0.0000000  0.6508444  3
   1921   1920   1927   1930     1  0.0000000  0.6508444  3
   1921   1933   1945   3862     1  0.0000000  0.6508444  3
   1924   1920   1921   1933     1  0.0000000  0.6508444  3
   1924   1920   1927   1930     1  0.0000000  0.6508444  3
   1924   1936   1942   3848     1  0.0000000  0.6508444  3
   1927   1920   1921   1933     1  0.0000000  0.6508444  3
   1927   1920   1924   1936     1  0.0000000  0.6508444  3
   1927   1930   1939   1948     1  0.0000000  0.6508444  3
   1933   1945   3862   3856     1  180.0000771  0.4184000  2
   1933   1945   3862   3856     1  0.0000000  1.6024720  3
   1936   1942   3848   3842     1  180.0000771  0.4184000  2
   1936   1942   3848   3842     1  0.0000000  1.6024720  3
   1942   3848   3842   3839     1  180.0000771  0.4184000  2
   1942   3848   3842   3839     1  0.0000000  1.6024720  3
   1945   3862   3856   3853     1  180.0000771  0.4184000  2
   1945   3862   3856   3853     1  0.0000000  1.6024720  3
   1950   1951   1963   1975     1  0.0000000  0.6508444  3
   1950   1954   1966   1972     1  0.0000000  0.6508444  3
   1950   1957   1960   1969     1  0.0000000  0.6508444  3
   1951   1950   1954   1966     1  0.0000000  0.6508444  3
   1951   1950   1957   1960     1  0.0000000  0.6508444  3
   1951   1963   1975   3890     1  0.0000000  0.6508444  3
   1954   1950   1951   1963     1  0.0000000  0.6508444  3
   1954   1950   1957   1960     1  0.0000000  0.6508444  3
   1954   1966   1972   3876     1  0.0000000  0.6508444  3
   1957   1950   1951   1963     1  0.0000000  0.6508444  3
   1957   1950   1954   1966     1  0.0000000  0.6508444  3
   1957   1960   1969   1978     1  0.0000000  0.6508444  3
   1963   1975   3890   3884     1  180.0000771  0.4184000  2
   1963   1975   3890   3884     1  0.0000000  1.6024720  3
   1966   1972   3876   3870     1  180.0000771  0.4184000  2
   1966   1972   3876   3870     1  0.0000000  1.6024720  3
   1972   3876   3870   3867     1  180.0000771  0.4184000  2
   1972   3876   3870   3867     1  0.0000000  1.6024720  3
   1975   3890   3884   3881     1  180.0000771  0.4184000  2
   1975   3890   3884   3881     1  0.0000000  1.6024720  3
   1980   1981   1993   2005     1  0.0000000  0.6508444  3
   1980   1984   1996   2002     1  0.0000000  0.6508444  3
   1980   1987   1990   1999     1  0.0000000  0.6508444  3
   1981   1980   1984   1996     1  0.0000000  0.6508444  3
   1981   1980   1987   1990     1  0.0000000  0.6508444  3
   1981   1993   2005   3918     1  0.0000000  0.6508444  3
   1984   1980   1981   1993     1  0.0000000  0.6508444  3
   1984   1980   1987   1990     1  0.0000000  0.6508444  3
   1984   1996   2002   3904     1  0.0000000  0.6508444  3
   1987   1980   1981   1993     1  0.0000000  0.6508444  3
   1987   1980   1984   1996     1  0.0000000  0.6508444  3
   1987   1990   1999   2008     1  0.0000000  0.6508444  3
   1993   2005   3918   3912     1  180.0000771  0.4184000  2
   1993   2005   3918   3912     1  0.0000000  1.6024720  3
   1996   2002   3904   3898     1  180.0000771  0.4184000  2
   1996   2002   3904   3898     1  0.0000000  1.6024720  3
   2002   3904   3898   3895     1  180.0000771  0.4184000  2
   2002   3904   3898   3895     1  0.0000000  1.6024720  3
   2005   3918   3912   3909     1  180.0000771  0.4184000  2
   2005   3918   3912   3909     1  0.0000000  1.6024720  3
   2010   2011   2023   2035     1  0.0000000  0.6508444  3
   2010   2014   2026   2032     1  0.0000000  0.6508444  3
   2010   2017   2020   2029     1  0.0000000  0.6508444  3
   2011   2010   2014   2026     1  0.0000000  0.6508444  3
   2011   2010   2017   2020     1  0.0000000  0.6508444  3
   2011   2023   2035   3946     1  0.0000000  0.6508444  3
   2014   2010   2011   2023     1  0.0000000  0.6508444  3
   2014   2010   2017   2020     1  0.0000000  0.6508444  3
   2014   2026   2032   3932     1  0.0000000  0.6508444  3
   2017   2010   2011   2023     1  0.0000000  0.6508444  3
   2017   2010   2014   2026     1  0.0000000  0.6508444  3
   2017   2020   2029   2038     1  0.0000000  0.6508444  3
   2023   2035   3946   3940     1  180.0000771  0.4184000  2
   2023   2035   3946   3940     1  0.0000000  1.6024720  3
   2026   2032   3932   3926     1  180.0000771  0.4184000  2
   2026   2032   3932   3926     1  0.0000000  1.6024720  3
   2032   3932   3926   3923     1  180.0000771  0.4184000  2
   2032   3932   3926   3923     1  0.0000000  1.6024720  3
   2035   3946   3940   3937     1  180.0000771  0.4184000  2
   2035   3946   3940   3937     1  0.0000000  1.6024720  3
   2040   2041   2053   2065     1  0.0000000  0.6508444  3
   2040   2044   2056   2062     1  0.0000000  0.6508444  3
   2040   2047   2050   2059     1  0.0000000  0.6508444  3
   2041   2040   2044   2056     1  0.0000000  0.6508444  3
   2041   2040   2047   2050     1  0.0000000  0.6508444  3
   2041   2053   2065   3974     1  0.0000000  0.6508444  3
   2044   2040   2041   2053     1  0.0000000  0.6508444  3
   2044   2040   2047   2050     1  0.0000000  0.6508444  3
   2044   2056   2062   3960     1  0.0000000  0.6508444  3
   2047   2040   2041   2053     1  0.0000000  0.6508444  3
   2047   2040   2044   2056     1  0.0000000  0.6508444  3
   2047   2050   2059   2068     1  0.0000000  0.6508444  3
   2053   2065   3974   3968     1  180.0000771  0.4184000  2
   2053   2065   3974   3968     1  0.0000000  1.6024720  3
   2056   2062   3960   3954     1  180.0000771  0.4184000  2
   2056   2062   3960   3954     1  0.0000000  1.6024720  3
   2062   3960   3954   3951     1  180.0000771  0.4184000  2
   2062   3960   3954   3951     1  0.0000000  1.6024720  3
   2065   3974   3968   3965     1  180.0000771  0.4184000  2
   2065   3974   3968   3965     1  0.0000000  1.6024720  3
   2070   2071   2083   2095     1  0.0000000  0.6508444  3
   2070   2074   2086   2092     1  0.0000000  0.6508444  3
   2070   2077   2080   2089     1  0.0000000  0.6508444  3
   2071   2070   2074   2086     1  0.0000000  0.6508444  3
   2071   2070   2077   2080     1  0.0000000  0.6508444  3
   2071   2083   2095   4002     1  0.0000000  0.6508444  3
   2074   2070   2071   2083     1  0.0000000  0.6508444  3
   2074   2070   2077   2080     1  0.0000000  0.6508444  3
   2074   2086   2092   3988     1  0.0000000  0.6508444  3
   2077   2070   2071   2083     1  0.0000000  0.6508444  3
   2077   2070   2074   2086     1  0.0000000  0.6508444  3
   2077   2080   2089   2098     1  0.0000000  0.6508444  3
   2083   2095   4002   3996     1  180.0000771  0.4184000  2
   2083   2095   4002   3996     1  0.0000000  1.6024720  3
   2086   2092   3988   3982     1  180.0000771  0.4184000  2
   2086   2092   3988   3982     1  0.0000000  1.6024720  3
   2092   3988   3982   3979     1  180.0000771  0.4184000  2
   2092   3988   3982   3979     1  0.0000000  1.6024720  3
   2095   4002   3996   3993     1  180.0000771  0.4184000  2
   2095   4002   3996   3993     1  0.0000000  1.6024720  3
   2100   2101   2113   2125     1  0.0000000  0.6508444  3
   2100   2104   2116   2122     1  0.0000000  0.6508444  3
   2100   2107   2110   2119     1  0.0000000  0.6508444  3
   2101   2100   2104   2116     1  0.0000000  0.6508444  3
   2101   2100   2107   2110     1  0.0000000  0.6508444  3
   2101   2113   2125   4030     1  0.0000000  0.6508444  3
   2104   2100   2101   2113     1  0.0000000  0.6508444  3
   2104   2100   2107   2110     1  0.0000000  0.6508444  3
   2104   2116   2122   4016     1  0.0000000  0.6508444  3
   2107   2100   2101   2113     1  0.0000000  0.6508444  3
   2107   2100   2104   2116     1  0.0000000  0.6508444  3
   2107   2110   2119   2128     1  0.0000000  0.6508444  3
   2113   2125   4030   4024     1  180.0000771  0.4184000  2
   2113   2125   4030   4024     1  0.0000000  1.6024720  3
   2116   2122   4016   4010     1  180.0000771  0.4184000  2
   2116   2122   4016   4010     1  0.0000000  1.6024720  3
   2122   4016   4010   4007     1  180.0000771  0.4184000  2
   2122   4016   4010   4007     1  0.0000000  1.6024720  3
   2125   4030   4024   4021     1  180.0000771  0.4184000  2
   2125   4030   4024   4021     1  0.0000000  1.6024720  3
   2130   2131   2143   2155     1  0.0000000  0.6508444  3
   2130   2134   2146   2152     1  0.0000000  0.6508444  3
   2130   2137   2140   2149     1  0.0000000  0.6508444  3
   2131   2130   2134   2146     1  0.0000000  0.6508444  3
   2131   2130   2137   2140     1  0.0000000  0.6508444  3
   2131   2143   2155   4058     1  0.0000000  0.6508444  3
   2134   2130   2131   2143     1  0.0000000  0.6508444  3
   2134   2130   2137   2140     1  0.0000000  0.6508444  3
   2134   2146   2152   4044     1  0.0000000  0.6508444  3
   2137   2130   2131   2143     1  0.0000000  0.6508444  3
   2137   2130   2134   2146     1  0.0000000  0.6508444  3
   2137   2140   2149   2158     1  0.0000000  0.6508444  3
   2143   2155   4058   4052     1  180.0000771  0.4184000  2
   2143   2155   4058   4052     1  0.0000000  1.6024720  3
   2146   2152   4044   4038     1  180.0000771  0.4184000  2
   2146   2152   4044   4038     1  0.0000000  1.6024720  3
   2152   4044   4038   4035     1  180.0000771  0.4184000  2
   2152   4044   4038   4035     1  0.0000000  1.6024720  3
   2155   4058   4052   4049     1  180.0000771  0.4184000  2
   2155   4058   4052   4049     1  0.0000000  1.6024720  3
   2160   2161   2173   2185     1  0.0000000  0.6508444  3
   2160   2164   2176   2182     1  0.0000000  0.6508444  3
   2160   2167   2170   2179     1  0.0000000  0.6508444  3
   2161   2160   2164   2176     1  0.0000000  0.6508444  3
   2161   2160   2167   2170     1  0.0000000  0.6508444  3
   2161   2173   2185   4086     1  0.0000000  0.6508444  3
   2164   2160   2161   2173     1  0.0000000  0.6508444  3
   2164   2160   2167   2170     1  0.0000000  0.6508444  3
   2164   2176   2182   4072     1  0.0000000  0.6508444  3
   2167   2160   2161   2173     1  0.0000000  0.6508444  3
   2167   2160   2164   2176     1  0.0000000  0.6508444  3
   2167   2170   2179   2188     1  0.0000000  0.6508444  3
   2173   2185   4086   4080     1  180.0000771  0.4184000  2
   2173   2185   4086   4080     1  0.0000000  1.6024720  3
   2176   2182   4072   4066     1  180.0000771  0.4184000  2
   2176   2182   4072   4066     1  0.0000000  1.6024720  3
   2182   4072   4066   4063     1  180.0000771  0.4184000  2
   2182   4072   4066   4063     1  0.0000000  1.6024720  3
   2185   4086   4080   4077     1  180.0000771  0.4184000  2
   2185   4086   4080   4077     1  0.0000000  1.6024720  3
   2190   2191   2203   2215     1  0.0000000  0.6508444  3
   2190   2194   2206   2212     1  0.0000000  0.6508444  3
   2190   2197   2200   2209     1  0.0000000  0.6508444  3
   2191   2190   2194   2206     1  0.0000000  0.6508444  3
   2191   2190   2197   2200     1  0.0000000  0.6508444  3
   2191   2203   2215   4114     1  0.0000000  0.6508444  3
   2194   2190   2191   2203     1  0.0000000  0.6508444  3
   2194   2190   2197   2200     1  0.0000000  0.6508444  3
   2194   2206   2212   4100     1  0.0000000  0.6508444  3
   2197   2190   2191   2203     1  0.0000000  0.6508444  3
   2197   2190   2194   2206     1  0.0000000  0.6508444  3
   2197   2200   2209   2218     1  0.0000000  0.6508444  3
   2203   2215   4114   4108     1  180.0000771  0.4184000  2
   2203   2215   4114   4108     1  0.0000000  1.6024720  3
   2206   2212   4100   4094     1  180.0000771  0.4184000  2
   2206   2212   4100   4094     1  0.0000000  1.6024720  3
   2212   4100   4094   4091     1  180.0000771  0.4184000  2
   2212   4100   4094   4091     1  0.0000000  1.6024720  3
   2215   4114   4108   4105     1  180.0000771  0.4184000  2
   2215   4114   4108   4105     1  0.0000000  1.6024720  3
   2220   2221   2233   2245     1  0.0000000  0.6508444  3
   2220   2224   2236   2242     1  0.0000000  0.6508444  3
   2220   2227   2230   2239     1  0.0000000  0.6508444  3
   2221   2220   2224   2236     1  0.0000000  0.6508444  3
   2221   2220   2227   2230     1  0.0000000  0.6508444  3
   2221   2233   2245   4142     1  0.0000000  0.6508444  3
   2224   2220   2221   2233     1  0.0000000  0.6508444  3
   2224   2220   2227   2230     1  0.0000000  0.6508444  3
   2224   2236   2242   4128     1  0.0000000  0.6508444  3
   2227   2220   2221   2233     1  0.0000000  0.6508444  3
   2227   2220   2224   2236     1  0.0000000  0.6508444  3
   2227   2230   2239   2248     1  0.0000000  0.6508444  3
   2233   2245   4142   4136     1  180.0000771  0.4184000  2
   2233   2245   4142   4136     1  0.0000000  1.6024720  3
   2236   2242   4128   4122     1  180.0000771  0.4184000  2
   2236   2242   4128   4122     1  0.0000000  1.6024720  3
   2242   4128   4122   4119     1  180.0000771  0.4184000  2
   2242   4128   4122   4119     1  0.0000000  1.6024720  3
   2245   4142   4136   4133     1  180.0000771  0.4184000  2
   2245   4142   4136   4133     1  0.0000000  1.6024720  3
   2250   2251   2263   2275     1  0.0000000  0.6508444  3
   2250   2254   2266   2272     1  0.0000000  0.6508444  3
   2250   2257   2260   2269     1  0.0000000  0.6508444  3
   2251   2250   2254   2266     1  0.0000000  0.6508444  3
   2251   2250   2257   2260     1  0.0000000  0.6508444  3
   2251   2263   2275   4170     1  0.0000000  0.6508444  3
   2254   2250   2251   2263     1  0.0000000  0.6508444  3
   2254   2250   2257   2260     1  0.0000000  0.6508444  3
   2254   2266   2272   4156     1  0.0000000  0.6508444  3
   2257   2250   2251   2263     1  0.0000000  0.6508444  3
   2257   2250   2254   2266     1  0.0000000  0.6508444  3
   2257   2260   2269   2278     1  0.0000000  0.6508444  3
   2263   2275   4170   4164     1  180.0000771  0.4184000  2
   2263   2275   4170   4164     1  0.0000000  1.6024720  3
   2266   2272   4156   4150     1  180.0000771  0.4184000  2
   2266   2272   4156   4150     1  0.0000000  1.6024720  3
   2272   4156   4150   4147     1  180.0000771  0.4184000  2
   2272   4156   4150   4147     1  0.0000000  1.6024720  3
   2275   4170   4164   4161     1  180.0000771  0.4184000  2
   2275   4170   4164   4161     1  0.0000000  1.6024720  3
   2280   2281   2293   2305     1  0.0000000  0.6508444  3
   2280   2284   2296   2302     1  0.0000000  0.6508444  3
   2280   2287   2290   2299     1  0.0000000  0.6508444  3
   2281   2280   2284   2296     1  0.0000000  0.6508444  3
   2281   2280   2287   2290     1  0.0000000  0.6508444  3
   2281   2293   2305   4198     1  0.0000000  0.6508444  3
   2284   2280   2281   2293     1  0.0000000  0.6508444  3
   2284   2280   2287   2290     1  0.0000000  0.6508444  3
   2284   2296   2302   4184     1  0.0000000  0.6508444  3
   2287   2280   2281   2293     1  0.0000000  0.6508444  3
   2287   2280   2284   2296     1  0.0000000  0.6508444  3
   2287   2290   2299   2308     1  0.0000000  0.6508444  3
   2293   2305   4198   4192     1  180.0000771  0.4184000  2
   2293   2305   4198   4192     1  0.0000000  1.6024720  3
   2296   2302   4184   4178     1  180.0000771  0.4184000  2
   2296   2302   4184   4178     1  0.0000000  1.6024720  3
   2302   4184   4178   4175     1  180.0000771  0.4184000  2
   2302   4184   4178   4175     1  0.0000000  1.6024720  3
   2305   4198   4192   4189     1  180.0000771  0.4184000  2
   2305   4198   4192   4189     1  0.0000000  1.6024720  3
   2310   2311   2323   2335     1  0.0000000  0.6508444  3
   2310   2314   2326   2332     1  0.0000000  0.6508444  3
   2310   2317   2320   2329     1  0.0000000  0.6508444  3
   2311   2310   2314   2326     1  0.0000000  0.6508444  3
   2311   2310   2317   2320     1  0.0000000  0.6508444  3
   2311   2323   2335   4226     1  0.0000000  0.6508444  3
   2314   2310   2311   2323     1  0.0000000  0.6508444  3
   2314   2310   2317   2320     1  0.0000000  0.6508444  3
   2314   2326   2332   4212     1  0.0000000  0.6508444  3
   2317   2310   2311   2323     1  0.0000000  0.6508444  3
   2317   2310   2314   2326     1  0.0000000  0.6508444  3
   2317   2320   2329   2338     1  0.0000000  0.6508444  3
   2323   2335   4226   4220     1  180.0000771  0.4184000  2
   2323   2335   4226   4220     1  0.0000000  1.6024720  3
   2326   2332   4212   4206     1  180.0000771  0.4184000  2
   2326   2332   4212   4206     1  0.0000000  1.6024720  3
   2332   4212   4206   4203     1  180.0000771  0.4184000  2
   2332   4212   4206   4203     1  0.0000000  1.6024720  3
   2335   4226   4220   4217     1  180.0000771  0.4184000  2
   2335   4226   4220   4217     1  0.0000000  1.6024720  3
   2340   2341   2353   2365     1  0.0000000  0.6508444  3
   2340   2344   2356   2362     1  0.0000000  0.6508444  3
   2340   2347   2350   2359     1  0.0000000  0.6508444  3
   2341   2340   2344   2356     1  0.0000000  0.6508444  3
   2341   2340   2347   2350     1  0.0000000  0.6508444  3
   2341   2353   2365   4254     1  0.0000000  0.6508444  3
   2344   2340   2341   2353     1  0.0000000  0.6508444  3
   2344   2340   2347   2350     1  0.0000000  0.6508444  3
   2344   2356   2362   4240     1  0.0000000  0.6508444  3
   2347   2340   2341   2353     1  0.0000000  0.6508444  3
   2347   2340   2344   2356     1  0.0000000  0.6508444  3
   2347   2350   2359   2368     1  0.0000000  0.6508444  3
   2353   2365   4254   4248     1  180.0000771  0.4184000  2
   2353   2365   4254   4248     1  0.0000000  1.6024720  3
   2356   2362   4240   4234     1  180.0000771  0.4184000  2
   2356   2362   4240   4234     1  0.0000000  1.6024720  3
   2362   4240   4234   4231     1  180.0000771  0.4184000  2
   2362   4240   4234   4231     1  0.0000000  1.6024720  3
   2365   4254   4248   4245     1  180.0000771  0.4184000  2
   2365   4254   4248   4245     1  0.0000000  1.6024720  3
   2370   2371   2383   2395     1  0.0000000  0.6508444  3
   2370   2374   2386   2392     1  0.0000000  0.6508444  3
   2370   2377   2380   2389     1  0.0000000  0.6508444  3
   2371   2370   2374   2386     1  0.0000000  0.6508444  3
   2371   2370   2377   2380     1  0.0000000  0.6508444  3
   2371   2383   2395   4282     1  0.0000000  0.6508444  3
   2374   2370   2371   2383     1  0.0000000  0.6508444  3
   2374   2370   2377   2380     1  0.0000000  0.6508444  3
   2374   2386   2392   4268     1  0.0000000  0.6508444  3
   2377   2370   2371   2383     1  0.0000000  0.6508444  3
   2377   2370   2374   2386     1  0.0000000  0.6508444  3
   2377   2380   2389   2398     1  0.0000000  0.6508444  3
   2383   2395   4282   4276     1  180.0000771  0.4184000  2
   2383   2395   4282   4276     1  0.0000000  1.6024720  3
   2386   2392   4268   4262     1  180.0000771  0.4184000  2
   2386   2392   4268   4262     1  0.0000000  1.6024720  3
   2392   4268   4262   4259     1  180.0000771  0.4184000  2
   2392   4268   4262   4259     1  0.0000000  1.6024720  3
   2395   4282   4276   4273     1  180.0000771  0.4184000  2
   2395   4282   4276   4273     1  0.0000000  1.6024720  3
   2400   2401   2413   2425     1  0.0000000  0.6508444  3
   2400   2404   2416   2422     1  0.0000000  0.6508444  3
   2400   2407   2410   2419     1  0.0000000  0.6508444  3
   2401   2400   2404   2416     1  0.0000000  0.6508444  3
   2401   2400   2407   2410     1  0.0000000  0.6508444  3
   2401   2413   2425   4310     1  0.0000000  0.6508444  3
   2404   2400   2401   2413     1  0.0000000  0.6508444  3
   2404   2400   2407   2410     1  0.0000000  0.6508444  3
   2404   2416   2422   4296     1  0.0000000  0.6508444  3
   2407   2400   2401   2413     1  0.0000000  0.6508444  3
   2407   2400   2404   2416     1  0.0000000  0.6508444  3
   2407   2410   2419   2428     1  0.0000000  0.6508444  3
   2413   2425   4310   4304     1  180.0000771  0.4184000  2
   2413   2425   4310   4304     1  0.0000000  1.6024720  3
   2416   2422   4296   4290     1  180.0000771  0.4184000  2
   2416   2422   4296   4290     1  0.0000000  1.6024720  3
   2422   4296   4290   4287     1  180.0000771  0.4184000  2
   2422   4296   4290   4287     1  0.0000000  1.6024720  3
   2425   4310   4304   4301     1  180.0000771  0.4184000  2
   2425   4310   4304   4301     1  0.0000000  1.6024720  3
   2430   2431   2443   2455     1  0.0000000  0.6508444  3
   2430   2434   2446   2452     1  0.0000000  0.6508444  3
   2430   2437   2440   2449     1  0.0000000  0.6508444  3
   2431   2430   2434   2446     1  0.0000000  0.6508444  3
   2431   2430   2437   2440     1  0.0000000  0.6508444  3
   2431   2443   2455   4338     1  0.0000000  0.6508444  3
   2434   2430   2431   2443     1  0.0000000  0.6508444  3
   2434   2430   2437   2440     1  0.0000000  0.6508444  3
   2434   2446   2452   4324     1  0.0000000  0.6508444  3
   2437   2430   2431   2443     1  0.0000000  0.6508444  3
   2437   2430   2434   2446     1  0.0000000  0.6508444  3
   2437   2440   2449   2458     1  0.0000000  0.6508444  3
   2443   2455   4338   4332     1  180.0000771  0.4184000  2
   2443   2455   4338   4332     1  0.0000000  1.6024720  3
   2446   2452   4324   4318     1  180.0000771  0.4184000  2
   2446   2452   4324   4318     1  0.0000000  1.6024720  3
   2452   4324   4318   4315     1  180.0000771  0.4184000  2
   2452   4324   4318   4315     1  0.0000000  1.6024720  3
   2455   4338   4332   4329     1  180.0000771  0.4184000  2
   2455   4338   4332   4329     1  0.0000000  1.6024720  3
   2460   2461   2473   2485     1  0.0000000  0.6508444  3
   2460   2464   2476   2482     1  0.0000000  0.6508444  3
   2460   2467   2470   2479     1  0.0000000  0.6508444  3
   2461   2460   2464   2476     1  0.0000000  0.6508444  3
   2461   2460   2467   2470     1  0.0000000  0.6508444  3
   2461   2473   2485   4366     1  0.0000000  0.6508444  3
   2464   2460   2461   2473     1  0.0000000  0.6508444  3
   2464   2460   2467   2470     1  0.0000000  0.6508444  3
   2464   2476   2482   4352     1  0.0000000  0.6508444  3
   2467   2460   2461   2473     1  0.0000000  0.6508444  3
   2467   2460   2464   2476     1  0.0000000  0.6508444  3
   2467   2470   2479   2488     1  0.0000000  0.6508444  3
   2473   2485   4366   4360     1  180.0000771  0.4184000  2
   2473   2485   4366   4360     1  0.0000000  1.6024720  3
   2476   2482   4352   4346     1  180.0000771  0.4184000  2
   2476   2482   4352   4346     1  0.0000000  1.6024720  3
   2482   4352   4346   4343     1  180.0000771  0.4184000  2
   2482   4352   4346   4343     1  0.0000000  1.6024720  3
   2485   4366   4360   4357     1  180.0000771  0.4184000  2
   2485   4366   4360   4357     1  0.0000000  1.6024720  3
   2490   2491   2503   2515     1  0.0000000  0.6508444  3
   2490   2494   2506   2512     1  0.0000000  0.6508444  3
   2490   2497   2500   2509     1  0.0000000  0.6508444  3
   2491   2490   2494   2506     1  0.0000000  0.6508444  3
   2491   2490   2497   2500     1  0.0000000  0.6508444  3
   2491   2503   2515   4394     1  0.0000000  0.6508444  3
   2494   2490   2491   2503     1  0.0000000  0.6508444  3
   2494   2490   2497   2500     1  0.0000000  0.6508444  3
   2494   2506   2512   4380     1  0.0000000  0.6508444  3
   2497   2490   2491   2503     1  0.0000000  0.6508444  3
   2497   2490   2494   2506     1  0.0000000  0.6508444  3
   2497   2500   2509   2518     1  0.0000000  0.6508444  3
   2503   2515   4394   4388     1  180.0000771  0.4184000  2
   2503   2515   4394   4388     1  0.0000000  1.6024720  3
   2506   2512   4380   4374     1  180.0000771  0.4184000  2
   2506   2512   4380   4374     1  0.0000000  1.6024720  3
   2512   4380   4374   4371     1  180.0000771  0.4184000  2
   2512   4380   4374   4371     1  0.0000000  1.6024720  3
   2515   4394   4388   4385     1  180.0000771  0.4184000  2
   2515   4394   4388   4385     1  0.0000000  1.6024720  3
   2520   2521   2533   2545     1  0.0000000  0.6508444  3
   2520   2524   2536   2542     1  0.0000000  0.6508444  3
   2520   2527   2530   2539     1  0.0000000  0.6508444  3
   2521   2520   2524   2536     1  0.0000000  0.6508444  3
   2521   2520   2527   2530     1  0.0000000  0.6508444  3
   2521   2533   2545   4422     1  0.0000000  0.6508444  3
   2524   2520   2521   2533     1  0.0000000  0.6508444  3
   2524   2520   2527   2530     1  0.0000000  0.6508444  3
   2524   2536   2542   4408     1  0.0000000  0.6508444  3
   2527   2520   2521   2533     1  0.0000000  0.6508444  3
   2527   2520   2524   2536     1  0.0000000  0.6508444  3
   2527   2530   2539   2548     1  0.0000000  0.6508444  3
   2533   2545   4422   4416     1  180.0000771  0.4184000  2
   2533   2545   4422   4416     1  0.0000000  1.6024720  3
   2536   2542   4408   4402     1  180.0000771  0.4184000  2
   2536   2542   4408   4402     1  0.0000000  1.6024720  3
   2542   4408   4402   4399     1  180.0000771  0.4184000  2
   2542   4408   4402   4399     1  0.0000000  1.6024720  3
   2545   4422   4416   4413     1  180.0000771  0.4184000  2
   2545   4422   4416   4413     1  0.0000000  1.6024720  3
   2550   2551   2563   2575     1  0.0000000  0.6508444  3
   2550   2554   2566   2572     1  0.0000000  0.6508444  3
   2550   2557   2560   2569     1  0.0000000  0.6508444  3
   2551   2550   2554   2566     1  0.0000000  0.6508444  3
   2551   2550   2557   2560     1  0.0000000  0.6508444  3
   2551   2563   2575   4450     1  0.0000000  0.6508444  3
   2554   2550   2551   2563     1  0.0000000  0.6508444  3
   2554   2550   2557   2560     1  0.0000000  0.6508444  3
   2554   2566   2572   4436     1  0.0000000  0.6508444  3
   2557   2550   2551   2563     1  0.0000000  0.6508444  3
   2557   2550   2554   2566     1  0.0000000  0.6508444  3
   2557   2560   2569   2578     1  0.0000000  0.6508444  3
   2563   2575   4450   4444     1  180.0000771  0.4184000  2
   2563   2575   4450   4444     1  0.0000000  1.6024720  3
   2566   2572   4436   4430     1  180.0000771  0.4184000  2
   2566   2572   4436   4430     1  0.0000000  1.6024720  3
   2572   4436   4430   4427     1  180.0000771  0.4184000  2
   2572   4436   4430   4427     1  0.0000000  1.6024720  3
   2575   4450   4444   4441     1  180.0000771  0.4184000  2
   2575   4450   4444   4441     1  0.0000000  1.6024720  3
   2580   2581   2593   2605     1  0.0000000  0.6508444  3
   2580   2584   2596   2602     1  0.0000000  0.6508444  3
   2580   2587   2590   2599     1  0.0000000  0.6508444  3
   2581   2580   2584   2596     1  0.0000000  0.6508444  3
   2581   2580   2587   2590     1  0.0000000  0.6508444  3
   2581   2593   2605   4478     1  0.0000000  0.6508444  3
   2584   2580   2581   2593     1  0.0000000  0.6508444  3
   2584   2580   2587   2590     1  0.0000000  0.6508444  3
   2584   2596   2602   4464     1  0.0000000  0.6508444  3
   2587   2580   2581   2593     1  0.0000000  0.6508444  3
   2587   2580   2584   2596     1  0.0000000  0.6508444  3
   2587   2590   2599   2608     1  0.0000000  0.6508444  3
   2593   2605   4478   4472     1  180.0000771  0.4184000  2
   2593   2605   4478   4472     1  0.0000000  1.6024720  3
   2596   2602   4464   4458     1  180.0000771  0.4184000  2
   2596   2602   4464   4458     1  0.0000000  1.6024720  3
   2602   4464   4458   4455     1  180.0000771  0.4184000  2
   2602   4464   4458   4455     1  0.0000000  1.6024720  3
   2605   4478   4472   4469     1  180.0000771  0.4184000  2
   2605   4478   4472   4469     1  0.0000000  1.6024720  3
   2610   2611   2623   2635     1  0.0000000  0.6508444  3
   2610   2614   2626   2632     1  0.0000000  0.6508444  3
   2610   2617   2620   2629     1  0.0000000  0.6508444  3
   2611   2610   2614   2626     1  0.0000000  0.6508444  3
   2611   2610   2617   2620     1  0.0000000  0.6508444  3
   2611   2623   2635   4506     1  0.0000000  0.6508444  3
   2614   2610   2611   2623     1  0.0000000  0.6508444  3
   2614   2610   2617   2620     1  0.0000000  0.6508444  3
   2614   2626   2632   4492     1  0.0000000  0.6508444  3
   2617   2610   2611   2623     1  0.0000000  0.6508444  3
   2617   2610   2614   2626     1  0.0000000  0.6508444  3
   2617   2620   2629   2638     1  0.0000000  0.6508444  3
   2623   2635   4506   4500     1  180.0000771  0.4184000  2
   2623   2635   4506   4500     1  0.0000000  1.6024720  3
   2626   2632   4492   4486     1  180.0000771  0.4184000  2
   2626   2632   4492   4486     1  0.0000000  1.6024720  3
   2632   4492   4486   4483     1  180.0000771  0.4184000  2
   2632   4492   4486   4483     1  0.0000000  1.6024720  3
   2635   4506   4500   4497     1  180.0000771  0.4184000  2
   2635   4506   4500   4497     1  0.0000000  1.6024720  3
   2640   2641   2653   2665     1  0.0000000  0.6508444  3
   2640   2644   2656   2662     1  0.0000000  0.6508444  3
   2640   2647   2650   2659     1  0.0000000  0.6508444  3
   2641   2640   2644   2656     1  0.0000000  0.6508444  3
   2641   2640   2647   2650     1  0.0000000  0.6508444  3
   2641   2653   2665   4534     1  0.0000000  0.6508444  3
   2644   2640   2641   2653     1  0.0000000  0.6508444  3
   2644   2640   2647   2650     1  0.0000000  0.6508444  3
   2644   2656   2662   4520     1  0.0000000  0.6508444  3
   2647   2640   2641   2653     1  0.0000000  0.6508444  3
   2647   2640   2644   2656     1  0.0000000  0.6508444  3
   2647   2650   2659   2668     1  0.0000000  0.6508444  3
   2653   2665   4534   4528     1  180.0000771  0.4184000  2
   2653   2665   4534   4528     1  0.0000000  1.6024720  3
   2656   2662   4520   4514     1  180.0000771  0.4184000  2
   2656   2662   4520   4514     1  0.0000000  1.6024720  3
   2662   4520   4514   4511     1  180.0000771  0.4184000  2
   2662   4520   4514   4511     1  0.0000000  1.6024720  3
   2665   4534   4528   4525     1  180.0000771  0.4184000  2
   2665   4534   4528   4525     1  0.0000000  1.6024720  3
   2670   2671   2683   2695     1  0.0000000  0.6508444  3
   2670   2674   2686   2692     1  0.0000000  0.6508444  3
   2670   2677   2680   2689     1  0.0000000  0.6508444  3
   2671   2670   2674   2686     1  0.0000000  0.6508444  3
   2671   2670   2677   2680     1  0.0000000  0.6508444  3
   2671   2683   2695   4562     1  0.0000000  0.6508444  3
   2674   2670   2671   2683     1  0.0000000  0.6508444  3
   2674   2670   2677   2680     1  0.0000000  0.6508444  3
   2674   2686   2692   4548     1  0.0000000  0.6508444  3
   2677   2670   2671   2683     1  0.0000000  0.6508444  3
   2677   2670   2674   2686     1  0.0000000  0.6508444  3
   2677   2680   2689   2698     1  0.0000000  0.6508444  3
   2683   2695   4562   4556     1  180.0000771  0.4184000  2
   2683   2695   4562   4556     1  0.0000000  1.6024720  3
   2686   2692   4548   4542     1  180.0000771  0.4184000  2
   2686   2692   4548   4542     1  0.0000000  1.6024720  3
   2692   4548   4542   4539     1  180.0000771  0.4184000  2
   2692   4548   4542   4539     1  0.0000000  1.6024720  3
   2695   4562   4556   4553     1  180.0000771  0.4184000  2
   2695   4562   4556   4553     1  0.0000000  1.6024720  3
   2700   2701   2713   2725     1  0.0000000  0.6508444  3
   2700   2704   2716   2722     1  0.0000000  0.6508444  3
   2700   2707   2710   2719     1  0.0000000  0.6508444  3
   2701   2700   2704   2716     1  0.0000000  0.6508444  3
   2701   2700   2707   2710     1  0.0000000  0.6508444  3
   2701   2713   2725   4590     1  0.0000000  0.6508444  3
   2704   2700   2701   2713     1  0.0000000  0.6508444  3
   2704   2700   2707   2710     1  0.0000000  0.6508444  3
   2704   2716   2722   4576     1  0.0000000  0.6508444  3
   2707   2700   2701   2713     1  0.0000000  0.6508444  3
   2707   2700   2704   2716     1  0.0000000  0.6508444  3
   2707   2710   2719   2728     1  0.0000000  0.6508444  3
   2713   2725   4590   4584     1  180.0000771  0.4184000  2
   2713   2725   4590   4584     1  0.0000000  1.6024720  3
   2716   2722   4576   4570     1  180.0000771  0.4184000  2
   2716   2722   4576   4570     1  0.0000000  1.6024720  3
   2722   4576   4570   4567     1  180.0000771  0.4184000  2
   2722   4576   4570   4567     1  0.0000000  1.6024720  3
   2725   4590   4584   4581     1  180.0000771  0.4184000  2
   2725   4590   4584   4581     1  0.0000000  1.6024720  3
   2730   2731   2743   2755     1  0.0000000  0.6508444  3
   2730   2734   2746   2752     1  0.0000000  0.6508444  3
   2730   2737   2740   2749     1  0.0000000  0.6508444  3
   2731   2730   2734   2746     1  0.0000000  0.6508444  3
   2731   2730   2737   2740     1  0.0000000  0.6508444  3
   2731   2743   2755   4618     1  0.0000000  0.6508444  3
   2734   2730   2731   2743     1  0.0000000  0.6508444  3
   2734   2730   2737   2740     1  0.0000000  0.6508444  3
   2734   2746   2752   4604     1  0.0000000  0.6508444  3
   2737   2730   2731   2743     1  0.0000000  0.6508444  3
   2737   2730   2734   2746     1  0.0000000  0.6508444  3
   2737   2740   2749   2758     1  0.0000000  0.6508444  3
   2743   2755   4618   4612     1  180.0000771  0.4184000  2
   2743   2755   4618   4612     1  0.0000000  1.6024720  3
   2746   2752   4604   4598     1  180.0000771  0.4184000  2
   2746   2752   4604   4598     1  0.0000000  1.6024720  3
   2752   4604   4598   4595     1  180.0000771  0.4184000  2
   2752   4604   4598   4595     1  0.0000000  1.6024720  3
   2755   4618   4612   4609     1  180.0000771  0.4184000  2
   2755   4618   4612   4609     1  0.0000000  1.6024720  3
   2760   2761   2773   2785     1  0.0000000  0.6508444  3
   2760   2764   2776   2782     1  0.0000000  0.6508444  3
   2760   2767   2770   2779     1  0.0000000  0.6508444  3
   2761   2760   2764   2776     1  0.0000000  0.6508444  3
   2761   2760   2767   2770     1  0.0000000  0.6508444  3
   2761   2773   2785   4646     1  0.0000000  0.6508444  3
   2764   2760   2761   2773     1  0.0000000  0.6508444  3
   2764   2760   2767   2770     1  0.0000000  0.6508444  3
   2764   2776   2782   4632     1  0.0000000  0.6508444  3
   2767   2760   2761   2773     1  0.0000000  0.6508444  3
   2767   2760   2764   2776     1  0.0000000  0.6508444  3
   2767   2770   2779   2788     1  0.0000000  0.6508444  3
   2773   2785   4646   4640     1  180.0000771  0.4184000  2
   2773   2785   4646   4640     1  0.0000000  1.6024720  3
   2776   2782   4632   4626     1  180.0000771  0.4184000  2
   2776   2782   4632   4626     1  0.0000000  1.6024720  3
   2782   4632   4626   4623     1  180.0000771  0.4184000  2
   2782   4632   4626   4623     1  0.0000000  1.6024720  3
   2785   4646   4640   4637     1  180.0000771  0.4184000  2
   2785   4646   4640   4637     1  0.0000000  1.6024720  3
   2790   2791   2803   2815     1  0.0000000  0.6508444  3
   2790   2794   2806   2812     1  0.0000000  0.6508444  3
   2790   2797   2800   2809     1  0.0000000  0.6508444  3
   2791   2790   2794   2806     1  0.0000000  0.6508444  3
   2791   2790   2797   2800     1  0.0000000  0.6508444  3
   2791   2803   2815   4674     1  0.0000000  0.6508444  3
   2794   2790   2791   2803     1  0.0000000  0.6508444  3
   2794   2790   2797   2800     1  0.0000000  0.6508444  3
   2794   2806   2812   4660     1  0.0000000  0.6508444  3
   2797   2790   2791   2803     1  0.0000000  0.6508444  3
   2797   2790   2794   2806     1  0.0000000  0.6508444  3
   2797   2800   2809   2818     1  0.0000000  0.6508444  3
   2803   2815   4674   4668     1  180.0000771  0.4184000  2
   2803   2815   4674   4668     1  0.0000000  1.6024720  3
   2806   2812   4660   4654     1  180.0000771  0.4184000  2
   2806   2812   4660   4654     1  0.0000000  1.6024720  3
   2812   4660   4654   4651     1  180.0000771  0.4184000  2
   2812   4660   4654   4651     1  0.0000000  1.6024720  3
   2815   4674   4668   4665     1  180.0000771  0.4184000  2
   2815   4674   4668   4665     1  0.0000000  1.6024720  3
   2820   2821   2833   2845     1  0.0000000  0.6508444  3
   2820   2824   2836   2842     1  0.0000000  0.6508444  3
   2820   2827   2830   2839     1  0.0000000  0.6508444  3
   2821   2820   2824   2836     1  0.0000000  0.6508444  3
   2821   2820   2827   2830     1  0.0000000  0.6508444  3
   2821   2833   2845   4702     1  0.0000000  0.6508444  3
   2824   2820   2821   2833     1  0.0000000  0.6508444  3
   2824   2820   2827   2830     1  0.0000000  0.6508444  3
   2824   2836   2842   4688     1  0.0000000  0.6508444  3
   2827   2820   2821   2833     1  0.0000000  0.6508444  3
   2827   2820   2824   2836     1  0.0000000  0.6508444  3
   2827   2830   2839   2848     1  0.0000000  0.6508444  3
   2833   2845   4702   4696     1  180.0000771  0.4184000  2
   2833   2845   4702   4696     1  0.0000000  1.6024720  3
   2836   2842   4688   4682     1  180.0000771  0.4184000  2
   2836   2842   4688   4682     1  0.0000000  1.6024720  3
   2842   4688   4682   4679     1  180.0000771  0.4184000  2
   2842   4688   4682   4679     1  0.0000000  1.6024720  3
   2845   4702   4696   4693     1  180.0000771  0.4184000  2
   2845   4702   4696   4693     1  0.0000000  1.6024720  3
   2850   2851   2863   2875     1  0.0000000  0.6508444  3
   2850   2854   2866   2872     1  0.0000000  0.6508444  3
   2850   2857   2860   2869     1  0.0000000  0.6508444  3
   2851   2850   2854   2866     1  0.0000000  0.6508444  3
   2851   2850   2857   2860     1  0.0000000  0.6508444  3
   2851   2863   2875   4730     1  0.0000000  0.6508444  3
   2854   2850   2851   2863     1  0.0000000  0.6508444  3
   2854   2850   2857   2860     1  0.0000000  0.6508444  3
   2854   2866   2872   4716     1  0.0000000  0.6508444  3
   2857   2850   2851   2863     1  0.0000000  0.6508444  3
   2857   2850   2854   2866     1  0.0000000  0.6508444  3
   2857   2860   2869   2878     1  0.0000000  0.6508444  3
   2863   2875   4730   4724     1  180.0000771  0.4184000  2
   2863   2875   4730   4724     1  0.0000000  1.6024720  3
   2866   2872   4716   4710     1  180.0000771  0.4184000  2
   2866   2872   4716   4710     1  0.0000000  1.6024720  3
   2872   4716   4710   4707     1  180.0000771  0.4184000  2
   2872   4716   4710   4707     1  0.0000000  1.6024720  3
   2875   4730   4724   4721     1  180.0000771  0.4184000  2
   2875   4730   4724   4721     1  0.0000000  1.6024720  3
   2880   2881   2893   2905     1  0.0000000  0.6508444  3
   2880   2884   2896   2902     1  0.0000000  0.6508444  3
   2880   2887   2890   2899     1  0.0000000  0.6508444  3
   2881   2880   2884   2896     1  0.0000000  0.6508444  3
   2881   2880   2887   2890     1  0.0000000  0.6508444  3
   2881   2893   2905   4758     1  0.0000000  0.6508444  3
   2884   2880   2881   2893     1  0.0000000  0.6508444  3
   2884   2880   2887   2890     1  0.0000000  0.6508444  3
   2884   2896   2902   4744     1  0.0000000  0.6508444  3
   2887   2880   2881   2893     1  0.0000000  0.6508444  3
   2887   2880   2884   2896     1  0.0000000  0.6508444  3
   2887   2890   2899   2908     1  0.0000000  0.6508444  3
   2893   2905   4758   4752     1  180.0000771  0.4184000  2
   2893   2905   4758   4752     1  0.0000000  1.6024720  3
   2896   2902   4744   4738     1  180.0000771  0.4184000  2
   2896   2902   4744   4738     1  0.0000000  1.6024720  3
   2902   4744   4738   4735     1  180.0000771  0.4184000  2
   2902   4744   4738   4735     1  0.0000000  1.6024720  3
   2905   4758   4752   4749     1  180.0000771  0.4184000  2
   2905   4758   4752   4749     1  0.0000000  1.6024720  3
   2910   2911   2923   2935     1  0.0000000  0.6508444  3
   2910   2914   2926   2932     1  0.0000000  0.6508444  3
   2910   2917   2920   2929     1  0.0000000  0.6508444  3
   2911   2910   2914   2926     1  0.0000000  0.6508444  3
   2911   2910   2917   2920     1  0.0000000  0.6508444  3
   2911   2923   2935   4786     1  0.0000000  0.6508444  3
   2914   2910   2911   2923     1  0.0000000  0.6508444  3
   2914   2910   2917   2920     1  0.0000000  0.6508444  3
   2914   2926   2932   4772     1  0.0000000  0.6508444  3
   2917   2910   2911   2923     1  0.0000000  0.6508444  3
   2917   2910   2914   2926     1  0.0000000  0.6508444  3
   2917   2920   2929   2938     1  0.0000000  0.6508444  3
   2923   2935   4786   4780     1  180.0000771  0.4184000  2
   2923   2935   4786   4780     1  0.0000000  1.6024720  3
   2926   2932   4772   4766     1  180.0000771  0.4184000  2
   2926   2932   4772   4766     1  0.0000000  1.6024720  3
   2932   4772   4766   4763     1  180.0000771  0.4184000  2
   2932   4772   4766   4763     1  0.0000000  1.6024720  3
   2935   4786   4780   4777     1  180.0000771  0.4184000  2
   2935   4786   4780   4777     1  0.0000000  1.6024720  3
   2940   2941   2953   2965     1  0.0000000  0.6508444  3
   2940   2944   2956   2962     1  0.0000000  0.6508444  3
   2940   2947   2950   2959     1  0.0000000  0.6508444  3
   2941   2940   2944   2956     1  0.0000000  0.6508444  3
   2941   2940   2947   2950     1  0.0000000  0.6508444  3
   2941   2953   2965   4814     1  0.0000000  0.6508444  3
   2944   2940   2941   2953     1  0.0000000  0.6508444  3
   2944   2940   2947   2950     1  0.0000000  0.6508444  3
   2944   2956   2962   4800     1  0.0000000  0.6508444  3
   2947   2940   2941   2953     1  0.0000000  0.6508444  3
   2947   2940   2944   2956     1  0.0000000  0.6508444  3
   2947   2950   2959   2968     1  0.0000000  0.6508444  3
   2953   2965   4814   4808     1  180.0000771  0.4184000  2
   2953   2965   4814   4808     1  0.0000000  1.6024720  3
   2956   2962   4800   4794     1  180.0000771  0.4184000  2
   2956   2962   4800   4794     1  0.0000000  1.6024720  3
   2962   4800   4794   4791     1  180.0000771  0.4184000  2
   2962   4800   4794   4791     1  0.0000000  1.6024720  3
   2965   4814   4808   4805     1  180.0000771  0.4184000  2
   2965   4814   4808   4805     1  0.0000000  1.6024720  3
   2970   2971   2983   2995     1  0.0000000  0.6508444  3
   2970   2974   2986   2992     1  0.0000000  0.6508444  3
   2970   2977   2980   2989     1  0.0000000  0.6508444  3
   2971   2970   2974   2986     1  0.0000000  0.6508444  3
   2971   2970   2977   2980     1  0.0000000  0.6508444  3
   2971   2983   2995   4842     1  0.0000000  0.6508444  3
   2974   2970   2971   2983     1  0.0000000  0.6508444  3
   2974   2970   2977   2980     1  0.0000000  0.6508444  3
   2974   2986   2992   4828     1  0.0000000  0.6508444  3
   2977   2970   2971   2983     1  0.0000000  0.6508444  3
   2977   2970   2974   2986     1  0.0000000  0.6508444  3
   2977   2980   2989   2998     1  0.0000000  0.6508444  3
   2983   2995   4842   4836     1  180.0000771  0.4184000  2
   2983   2995   4842   4836     1  0.0000000  1.6024720  3
   2986   2992   4828   4822     1  180.0000771  0.4184000  2
   2986   2992   4828   4822     1  0.0000000  1.6024720  3
   2992   4828   4822   4819     1  180.0000771  0.4184000  2
   2992   4828   4822   4819     1  0.0000000  1.6024720  3
   2995   4842   4836   4833     1  180.0000771  0.4184000  2
   2995   4842   4836   4833     1  0.0000000  1.6024720  3
   3000   3001   3013   3025     1  0.0000000  0.6508444  3
   3000   3004   3016   3022     1  0.0000000  0.6508444  3
   3000   3007   3010   3019     1  0.0000000  0.6508444  3
   3001   3000   3004   3016     1  0.0000000  0.6508444  3
   3001   3000   3007   3010     1  0.0000000  0.6508444  3
   3001   3013   3025   4870     1  0.0000000  0.6508444  3
   3004   3000   3001   3013     1  0.0000000  0.6508444  3
   3004   3000   3007   3010     1  0.0000000  0.6508444  3
   3004   3016   3022   4856     1  0.0000000  0.6508444  3
   3007   3000   3001   3013     1  0.0000000  0.6508444  3
   3007   3000   3004   3016     1  0.0000000  0.6508444  3
   3007   3010   3019   3028     1  0.0000000  0.6508444  3
   3013   3025   4870   4864     1  180.0000771  0.4184000  2
   3013   3025   4870   4864     1  0.0000000  1.6024720  3
   3016   3022   4856   4850     1  180.0000771  0.4184000  2
   3016   3022   4856   4850     1  0.0000000  1.6024720  3
   3022   4856   4850   4847     1  180.0000771  0.4184000  2
   3022   4856   4850   4847     1  0.0000000  1.6024720  3
   3025   4870   4864   4861     1  180.0000771  0.4184000  2
   3025   4870   4864   4861     1  0.0000000  1.6024720  3
   3030   3031   3043   3055     1  0.0000000  0.6508444  3
   3030   3034   3046   3052     1  0.0000000  0.6508444  3
   3030   3037   3040   3049     1  0.0000000  0.6508444  3
   3031   3030   3034   3046     1  0.0000000  0.6508444  3
   3031   3030   3037   3040     1  0.0000000  0.6508444  3
   3031   3043   3055   4898     1  0.0000000  0.6508444  3
   3034   3030   3031   3043     1  0.0000000  0.6508444  3
   3034   3030   3037   3040     1  0.0000000  0.6508444  3
   3034   3046   3052   4884     1  0.0000000  0.6508444  3
   3037   3030   3031   3043     1  0.0000000  0.6508444  3
   3037   3030   3034   3046     1  0.0000000  0.6508444  3
   3037   3040   3049   3058     1  0.0000000  0.6508444  3
   3043   3055   4898   4892     1  180.0000771  0.4184000  2
   3043   3055   4898   4892     1  0.0000000  1.6024720  3
   3046   3052   4884   4878     1  180.0000771  0.4184000  2
   3046   3052   4884   4878     1  0.0000000  1.6024720  3
   3052   4884   4878   4875     1  180.0000771  0.4184000  2
   3052   4884   4878   4875     1  0.0000000  1.6024720  3
   3055   4898   4892   4889     1  180.0000771  0.4184000  2
   3055   4898   4892   4889     1  0.0000000  1.6024720  3
   3060   3061   3073   3085     1  0.0000000  0.6508444  3
   3060   3064   3076   3082     1  0.0000000  0.6508444  3
   3060   3067   3070   3079     1  0.0000000  0.6508444  3
   3061   3060   3064   3076     1  0.0000000  0.6508444  3
   3061   3060   3067   3070     1  0.0000000  0.6508444  3
   3061   3073   3085   4926     1  0.0000000  0.6508444  3
   3064   3060   3061   3073     1  0.0000000  0.6508444  3
   3064   3060   3067   3070     1  0.0000000  0.6508444  3
   3064   3076   3082   4912     1  0.0000000  0.6508444  3
   3067   3060   3061   3073     1  0.0000000  0.6508444  3
   3067   3060   3064   3076     1  0.0000000  0.6508444  3
   3067   3070   3079   3088     1  0.0000000  0.6508444  3
   3073   3085   4926   4920     1  180.0000771  0.4184000  2
   3073   3085   4926   4920     1  0.0000000  1.6024720  3
   3076   3082   4912   4906     1  180.0000771  0.4184000  2
   3076   3082   4912   4906     1  0.0000000  1.6024720  3
   3082   4912   4906   4903     1  180.0000771  0.4184000  2
   3082   4912   4906   4903     1  0.0000000  1.6024720  3
   3085   4926   4920   4917     1  180.0000771  0.4184000  2
   3085   4926   4920   4917     1  0.0000000  1.6024720  3
   3090   3091   3103   3115     1  0.0000000  0.6508444  3
   3090   3094   3106   3112     1  0.0000000  0.6508444  3
   3090   3097   3100   3109     1  0.0000000  0.6508444  3
   3091   3090   3094   3106     1  0.0000000  0.6508444  3
   3091   3090   3097   3100     1  0.0000000  0.6508444  3
   3091   3103   3115   4954     1  0.0000000  0.6508444  3
   3094   3090   3091   3103     1  0.0000000  0.6508444  3
   3094   3090   3097   3100     1  0.0000000  0.6508444  3
   3094   3106   3112   4940     1  0.0000000  0.6508444  3
   3097   3090   3091   3103     1  0.0000000  0.6508444  3
   3097   3090   3094   3106     1  0.0000000  0.6508444  3
   3097   3100   3109   3118     1  0.0000000  0.6508444  3
   3103   3115   4954   4948     1  180.0000771  0.4184000  2
   3103   3115   4954   4948     1  0.0000000  1.6024720  3
   3106   3112   4940   4934     1  180.0000771  0.4184000  2
   3106   3112   4940   4934     1  0.0000000  1.6024720  3
   3112   4940   4934   4931     1  180.0000771  0.4184000  2
   3112   4940   4934   4931     1  0.0000000  1.6024720  3
   3115   4954   4948   4945     1  180.0000771  0.4184000  2
   3115   4954   4948   4945     1  0.0000000  1.6024720  3
   3120   3121   3133   3145     1  0.0000000  0.6508444  3
   3120   3124   3136   3142     1  0.0000000  0.6508444  3
   3120   3127   3130   3139     1  0.0000000  0.6508444  3
   3121   3120   3124   3136     1  0.0000000  0.6508444  3
   3121   3120   3127   3130     1  0.0000000  0.6508444  3
   3121   3133   3145   4982     1  0.0000000  0.6508444  3
   3124   3120   3121   3133     1  0.0000000  0.6508444  3
   3124   3120   3127   3130     1  0.0000000  0.6508444  3
   3124   3136   3142   4968     1  0.0000000  0.6508444  3
   3127   3120   3121   3133     1  0.0000000  0.6508444  3
   3127   3120   3124   3136     1  0.0000000  0.6508444  3
   3127   3130   3139   3148     1  0.0000000  0.6508444  3
   3133   3145   4982   4976     1  180.0000771  0.4184000  2
   3133   3145   4982   4976     1  0.0000000  1.6024720  3
   3136   3142   4968   4962     1  180.0000771  0.4184000  2
   3136   3142   4968   4962     1  0.0000000  1.6024720  3
   3142   4968   4962   4959     1  180.0000771  0.4184000  2
   3142   4968   4962   4959     1  0.0000000  1.6024720  3
   3145   4982   4976   4973     1  180.0000771  0.4184000  2
   3145   4982   4976   4973     1  0.0000000  1.6024720  3
   3150   3151   3163   3175     1  0.0000000  0.6508444  3
   3150   3154   3166   3172     1  0.0000000  0.6508444  3
   3150   3157   3160   3169     1  0.0000000  0.6508444  3
   3151   3150   3154   3166     1  0.0000000  0.6508444  3
   3151   3150   3157   3160     1  0.0000000  0.6508444  3
   3151   3163   3175   5010     1  0.0000000  0.6508444  3
   3154   3150   3151   3163     1  0.0000000  0.6508444  3
   3154   3150   3157   3160     1  0.0000000  0.6508444  3
   3154   3166   3172   4996     1  0.0000000  0.6508444  3
   3157   3150   3151   3163     1  0.0000000  0.6508444  3
   3157   3150   3154   3166     1  0.0000000  0.6508444  3
   3157   3160   3169   3178     1  0.0000000  0.6508444  3
   3163   3175   5010   5004     1  180.0000771  0.4184000  2
   3163   3175   5010   5004     1  0.0000000  1.6024720  3
   3166   3172   4996   4990     1  180.0000771  0.4184000  2
   3166   3172   4996   4990     1  0.0000000  1.6024720  3
   3172   4996   4990   4987     1  180.0000771  0.4184000  2
   3172   4996   4990   4987     1  0.0000000  1.6024720  3
   3175   5010   5004   5001     1  180.0000771  0.4184000  2
   3175   5010   5004   5001     1  0.0000000  1.6024720  3
   3180   3181   3193   3205     1  0.0000000  0.6508444  3
   3180   3184   3196   3202     1  0.0000000  0.6508444  3
   3180   3187   3190   3199     1  0.0000000  0.6508444  3
   3181   3180   3184   3196     1  0.0000000  0.6508444  3
   3181   3180   3187   3190     1  0.0000000  0.6508444  3
   3181   3193   3205   5038     1  0.0000000  0.6508444  3
   3184   3180   3181   3193     1  0.0000000  0.6508444  3
   3184   3180   3187   3190     1  0.0000000  0.6508444  3
   3184   3196   3202   5024     1  0.0000000  0.6508444  3
   3187   3180   3181   3193     1  0.0000000  0.6508444  3
   3187   3180   3184   3196     1  0.0000000  0.6508444  3
   3187   3190   3199   3208     1  0.0000000  0.6508444  3
   3193   3205   5038   5032     1  180.0000771  0.4184000  2
   3193   3205   5038   5032     1  0.0000000  1.6024720  3
   3196   3202   5024   5018     1  180.0000771  0.4184000  2
   3196   3202   5024   5018     1  0.0000000  1.6024720  3
   3202   5024   5018   5015     1  180.0000771  0.4184000  2
   3202   5024   5018   5015     1  0.0000000  1.6024720  3
   3205   5038   5032   5029     1  180.0000771  0.4184000  2
   3205   5038   5032   5029     1  0.0000000  1.6024720  3
   3210   3211   3223   3235     1  0.0000000  0.6508444  3
   3210   3214   3226   3232     1  0.0000000  0.6508444  3
   3210   3217   3220   3229     1  0.0000000  0.6508444  3
   3211   3210   3214   3226     1  0.0000000  0.6508444  3
   3211   3210   3217   3220     1  0.0000000  0.6508444  3
   3211   3223   3235   5066     1  0.0000000  0.6508444  3
   3214   3210   3211   3223     1  0.0000000  0.6508444  3
   3214   3210   3217   3220     1  0.0000000  0.6508444  3
   3214   3226   3232   5052     1  0.0000000  0.6508444  3
   3217   3210   3211   3223     1  0.0000000  0.6508444  3
   3217   3210   3214   3226     1  0.0000000  0.6508444  3
   3217   3220   3229   3238     1  0.0000000  0.6508444  3
   3223   3235   5066   5060     1  180.0000771  0.4184000  2
   3223   3235   5066   5060     1  0.0000000  1.6024720  3
   3226   3232   5052   5046     1  180.0000771  0.4184000  2
   3226   3232   5052   5046     1  0.0000000  1.6024720  3
   3232   5052   5046   5043     1  180.0000771  0.4184000  2
   3232   5052   5046   5043     1  0.0000000  1.6024720  3
   3235   5066   5060   5057     1  180.0000771  0.4184000  2
   3235   5066   5060   5057     1  0.0000000  1.6024720  3
   3240   3241   3253   3265     1  0.0000000  0.6508444  3
   3240   3244   3256   3262     1  0.0000000  0.6508444  3
   3240   3247   3250   3259     1  0.0000000  0.6508444  3
   3241   3240   3244   3256     1  0.0000000  0.6508444  3
   3241   3240   3247   3250     1  0.0000000  0.6508444  3
   3241   3253   3265   5094     1  0.0000000  0.6508444  3
   3244   3240   3241   3253     1  0.0000000  0.6508444  3
   3244   3240   3247   3250     1  0.0000000  0.6508444  3
   3244   3256   3262   5080     1  0.0000000  0.6508444  3
   3247   3240   3241   3253     1  0.0000000  0.6508444  3
   3247   3240   3244   3256     1  0.0000000  0.6508444  3
   3247   3250   3259   3268     1  0.0000000  0.6508444  3
   3253   3265   5094   5088     1  180.0000771  0.4184000  2
   3253   3265   5094   5088     1  0.0000000  1.6024720  3
   3256   3262   5080   5074     1  180.0000771  0.4184000  2
   3256   3262   5080   5074     1  0.0000000  1.6024720  3
   3262   5080   5074   5071     1  180.0000771  0.4184000  2
   3262   5080   5074   5071     1  0.0000000  1.6024720  3
   3265   5094   5088   5085     1  180.0000771  0.4184000  2
   3265   5094   5088   5085     1  0.0000000  1.6024720  3
   3270   3271   3283   3295     1  0.0000000  0.6508444  3
   3270   3274   3286   3292     1  0.0000000  0.6508444  3
   3270   3277   3280   3289     1  0.0000000  0.6508444  3
   3271   3270   3274   3286     1  0.0000000  0.6508444  3
   3271   3270   3277   3280     1  0.0000000  0.6508444  3
   3271   3283   3295   5122     1  0.0000000  0.6508444  3
   3274   3270   3271   3283     1  0.0000000  0.6508444  3
   3274   3270   3277   3280     1  0.0000000  0.6508444  3
   3274   3286   3292   5108     1  0.0000000  0.6508444  3
   3277   3270   3271   3283     1  0.0000000  0.6508444  3
   3277   3270   3274   3286     1  0.0000000  0.6508444  3
   3277   3280   3289   3298     1  0.0000000  0.6508444  3
   3283   3295   5122   5116     1  180.0000771  0.4184000  2
   3283   3295   5122   5116     1  0.0000000  1.6024720  3
   3286   3292   5108   5102     1  180.0000771  0.4184000  2
   3286   3292   5108   5102     1  0.0000000  1.6024720  3
   3292   5108   5102   5099     1  180.0000771  0.4184000  2
   3292   5108   5102   5099     1  0.0000000  1.6024720  3
   3295   5122   5116   5113     1  180.0000771  0.4184000  2
   3295   5122   5116   5113     1  0.0000000  1.6024720  3
   3300   3301   3313   3325     1  0.0000000  0.6508444  3
   3300   3304   3316   3322     1  0.0000000  0.6508444  3
   3300   3307   3310   3319     1  0.0000000  0.6508444  3
   3301   3300   3304   3316     1  0.0000000  0.6508444  3
   3301   3300   3307   3310     1  0.0000000  0.6508444  3
   3301   3313   3325   5150     1  0.0000000  0.6508444  3
   3304   3300   3301   3313     1  0.0000000  0.6508444  3
   3304   3300   3307   3310     1  0.0000000  0.6508444  3
   3304   3316   3322   5136     1  0.0000000  0.6508444  3
   3307   3300   3301   3313     1  0.0000000  0.6508444  3
   3307   3300   3304   3316     1  0.0000000  0.6508444  3
   3307   3310   3319   3328     1  0.0000000  0.6508444  3
   3313   3325   5150   5144     1  180.0000771  0.4184000  2
   3313   3325   5150   5144     1  0.0000000  1.6024720  3
   3316   3322   5136   5130     1  180.0000771  0.4184000  2
   3316   3322   5136   5130     1  0.0000000  1.6024720  3
   3322   5136   5130   5127     1  180.0000771  0.4184000  2
   3322   5136   5130   5127     1  0.0000000  1.6024720  3
   3325   5150   5144   5141     1  180.0000771  0.4184000  2
   3325   5150   5144   5141     1  0.0000000  1.6024720  3
   3330   3331   3343   3355     1  0.0000000  0.6508444  3
   3330   3334   3346   3352     1  0.0000000  0.6508444  3
   3330   3337   3340   3349     1  0.0000000  0.6508444  3
   3331   3330   3334   3346     1  0.0000000  0.6508444  3
   3331   3330   3337   3340     1  0.0000000  0.6508444  3
   3331   3343   3355   5178     1  0.0000000  0.6508444  3
   3334   3330   3331   3343     1  0.0000000  0.6508444  3
   3334   3330   3337   3340     1  0.0000000  0.6508444  3
   3334   3346   3352   5164     1  0.0000000  0.6508444  3
   3337   3330   3331   3343     1  0.0000000  0.6508444  3
   3337   3330   3334   3346     1  0.0000000  0.6508444  3
   3337   3340   3349   3358     1  0.0000000  0.6508444  3
   3343   3355   5178   5172     1  180.0000771  0.4184000  2
   3343   3355   5178   5172     1  0.0000000  1.6024720  3
   3346   3352   5164   5158     1  180.0000771  0.4184000  2
   3346   3352   5164   5158     1  0.0000000  1.6024720  3
   3352   5164   5158   5155     1  180.0000771  0.4184000  2
   3352   5164   5158   5155     1  0.0000000  1.6024720  3
   3355   5178   5172   5169     1  180.0000771  0.4184000  2
   3355   5178   5172   5169     1  0.0000000  1.6024720  3
   3360   3361   3373   3385     1  0.0000000  0.6508444  3
   3360   3364   3376   3382     1  0.0000000  0.6508444  3
   3360   3367   3370   3379     1  0.0000000  0.6508444  3
   3361   3360   3364   3376     1  0.0000000  0.6508444  3
   3361   3360   3367   3370     1  0.0000000  0.6508444  3
   3361   3373   3385   5206     1  0.0000000  0.6508444  3
   3364   3360   3361   3373     1  0.0000000  0.6508444  3
   3364   3360   3367   3370     1  0.0000000  0.6508444  3
   3364   3376   3382   5192     1  0.0000000  0.6508444  3
   3367   3360   3361   3373     1  0.0000000  0.6508444  3
   3367   3360   3364   3376     1  0.0000000  0.6508444  3
   3367   3370   3379   3388     1  0.0000000  0.6508444  3
   3373   3385   5206   5200     1  180.0000771  0.4184000  2
   3373   3385   5206   5200     1  0.0000000  1.6024720  3
   3376   3382   5192   5186     1  180.0000771  0.4184000  2
   3376   3382   5192   5186     1  0.0000000  1.6024720  3
   3382   5192   5186   5183     1  180.0000771  0.4184000  2
   3382   5192   5186   5183     1  0.0000000  1.6024720  3
   3385   5206   5200   5197     1  180.0000771  0.4184000  2
   3385   5206   5200   5197     1  0.0000000  1.6024720  3
   3390   3391   3403   3415     1  0.0000000  0.6508444  3
   3390   3394   3406   3412     1  0.0000000  0.6508444  3
   3390   3397   3400   3409     1  0.0000000  0.6508444  3
   3391   3390   3394   3406     1  0.0000000  0.6508444  3
   3391   3390   3397   3400     1  0.0000000  0.6508444  3
   3391   3403   3415   5234     1  0.0000000  0.6508444  3
   3394   3390   3391   3403     1  0.0000000  0.6508444  3
   3394   3390   3397   3400     1  0.0000000  0.6508444  3
   3394   3406   3412   5220     1  0.0000000  0.6508444  3
   3397   3390   3391   3403     1  0.0000000  0.6508444  3
   3397   3390   3394   3406     1  0.0000000  0.6508444  3
   3397   3400   3409   3418     1  0.0000000  0.6508444  3
   3403   3415   5234   5228     1  180.0000771  0.4184000  2
   3403   3415   5234   5228     1  0.0000000  1.6024720  3
   3406   3412   5220   5214     1  180.0000771  0.4184000  2
   3406   3412   5220   5214     1  0.0000000  1.6024720  3
   3412   5220   5214   5211     1  180.0000771  0.4184000  2
   3412   5220   5214   5211     1  0.0000000  1.6024720  3
   3415   5234   5228   5225     1  180.0000771  0.4184000  2
   3415   5234   5228   5225     1  0.0000000  1.6024720  3
   3420   3421   3433   3445     1  0.0000000  0.6508444  3
   3420   3424   3436   3442     1  0.0000000  0.6508444  3
   3420   3427   3430   3439     1  0.0000000  0.6508444  3
   3421   3420   3424   3436     1  0.0000000  0.6508444  3
   3421   3420   3427   3430     1  0.0000000  0.6508444  3
   3421   3433   3445   5262     1  0.0000000  0.6508444  3
   3424   3420   3421   3433     1  0.0000000  0.6508444  3
   3424   3420   3427   3430     1  0.0000000  0.6508444  3
   3424   3436   3442   5248     1  0.0000000  0.6508444  3
   3427   3420   3421   3433     1  0.0000000  0.6508444  3
   3427   3420   3424   3436     1  0.0000000  0.6508444  3
   3427   3430   3439   3448     1  0.0000000  0.6508444  3
   3433   3445   5262   5256     1  180.0000771  0.4184000  2
   3433   3445   5262   5256     1  0.0000000  1.6024720  3
   3436   3442   5248   5242     1  180.0000771  0.4184000  2
   3436   3442   5248   5242     1  0.0000000  1.6024720  3
   3442   5248   5242   5239     1  180.0000771  0.4184000  2
   3442   5248   5242   5239     1  0.0000000  1.6024720  3
   3445   5262   5256   5253     1  180.0000771  0.4184000  2
   3445   5262   5256   5253     1  0.0000000  1.6024720  3
   3450   3451   3463   3475     1  0.0000000  0.6508444  3
   3450   3454   3466   3472     1  0.0000000  0.6508444  3
   3450   3457   3460   3469     1  0.0000000  0.6508444  3
   3451   3450   3454   3466     1  0.0000000  0.6508444  3
   3451   3450   3457   3460     1  0.0000000  0.6508444  3
   3451   3463   3475   5290     1  0.0000000  0.6508444  3
   3454   3450   3451   3463     1  0.0000000  0.6508444  3
   3454   3450   3457   3460     1  0.0000000  0.6508444  3
   3454   3466   3472   5276     1  0.0000000  0.6508444  3
   3457   3450   3451   3463     1  0.0000000  0.6508444  3
   3457   3450   3454   3466     1  0.0000000  0.6508444  3
   3457   3460   3469   3478     1  0.0000000  0.6508444  3
   3463   3475   5290   5284     1  180.0000771  0.4184000  2
   3463   3475   5290   5284     1  0.0000000  1.6024720  3
   3466   3472   5276   5270     1  180.0000771  0.4184000  2
   3466   3472   5276   5270     1  0.0000000  1.6024720  3
   3472   5276   5270   5267     1  180.0000771  0.4184000  2
   3472   5276   5270   5267     1  0.0000000  1.6024720  3
   3475   5290   5284   5281     1  180.0000771  0.4184000  2
   3475   5290   5284   5281     1  0.0000000  1.6024720  3
   3480   3481   3493   3505     1  0.0000000  0.6508444  3
   3480   3484   3496   3502     1  0.0000000  0.6508444  3
   3480   3487   3490   3499     1  0.0000000  0.6508444  3
   3481   3480   3484   3496     1  0.0000000  0.6508444  3
   3481   3480   3487   3490     1  0.0000000  0.6508444  3
   3481   3493   3505   5318     1  0.0000000  0.6508444  3
   3484   3480   3481   3493     1  0.0000000  0.6508444  3
   3484   3480   3487   3490     1  0.0000000  0.6508444  3
   3484   3496   3502   5304     1  0.0000000  0.6508444  3
   3487   3480   3481   3493     1  0.0000000  0.6508444  3
   3487   3480   3484   3496     1  0.0000000  0.6508444  3
   3487   3490   3499   3508     1  0.0000000  0.6508444  3
   3493   3505   5318   5312     1  180.0000771  0.4184000  2
   3493   3505   5318   5312     1  0.0000000  1.6024720  3
   3496   3502   5304   5298     1  180.0000771  0.4184000  2
   3496   3502   5304   5298     1  0.0000000  1.6024720  3
   3502   5304   5298   5295     1  180.0000771  0.4184000  2
   3502   5304   5298   5295     1  0.0000000  1.6024720  3
   3505   5318   5312   5309     1  180.0000771  0.4184000  2
   3505   5318   5312   5309     1  0.0000000  1.6024720  3
   3510   3511   3523   3535     1  0.0000000  0.6508444  3
   3510   3514   3526   3532     1  0.0000000  0.6508444  3
   3510   3517   3520   3529     1  0.0000000  0.6508444  3
   3511   3510   3514   3526     1  0.0000000  0.6508444  3
   3511   3510   3517   3520     1  0.0000000  0.6508444  3
   3511   3523   3535   5346     1  0.0000000  0.6508444  3
   3514   3510   3511   3523     1  0.0000000  0.6508444  3
   3514   3510   3517   3520     1  0.0000000  0.6508444  3
   3514   3526   3532   5332     1  0.0000000  0.6508444  3
   3517   3510   3511   3523     1  0.0000000  0.6508444  3
   3517   3510   3514   3526     1  0.0000000  0.6508444  3
   3517   3520   3529   3538     1  0.0000000  0.6508444  3
   3523   3535   5346   5340     1  180.0000771  0.4184000  2
   3523   3535   5346   5340     1  0.0000000  1.6024720  3
   3526   3532   5332   5326     1  180.0000771  0.4184000  2
   3526   3532   5332   5326     1  0.0000000  1.6024720  3
   3532   5332   5326   5323     1  180.0000771  0.4184000  2
   3532   5332   5326   5323     1  0.0000000  1.6024720  3
   3535   5346   5340   5337     1  180.0000771  0.4184000  2
   3535   5346   5340   5337     1  0.0000000  1.6024720  3
   3540   3541   3553   3565     1  0.0000000  0.6508444  3
   3540   3544   3556   3562     1  0.0000000  0.6508444  3
   3540   3547   3550   3559     1  0.0000000  0.6508444  3
   3541   3540   3544   3556     1  0.0000000  0.6508444  3
   3541   3540   3547   3550     1  0.0000000  0.6508444  3
   3541   3553   3565   5374     1  0.0000000  0.6508444  3
   3544   3540   3541   3553     1  0.0000000  0.6508444  3
   3544   3540   3547   3550     1  0.0000000  0.6508444  3
   3544   3556   3562   5360     1  0.0000000  0.6508444  3
   3547   3540   3541   3553     1  0.0000000  0.6508444  3
   3547   3540   3544   3556     1  0.0000000  0.6508444  3
   3547   3550   3559   3568     1  0.0000000  0.6508444  3
   3553   3565   5374   5368     1  180.0000771  0.4184000  2
   3553   3565   5374   5368     1  0.0000000  1.6024720  3
   3556   3562   5360   5354     1  180.0000771  0.4184000  2
   3556   3562   5360   5354     1  0.0000000  1.6024720  3
   3562   5360   5354   5351     1  180.0000771  0.4184000  2
   3562   5360   5354   5351     1  0.0000000  1.6024720  3
   3565   5374   5368   5365     1  180.0000771  0.4184000  2
   3565   5374   5368   5365     1  0.0000000  1.6024720  3
   3570   3571   3583   3595     1  0.0000000  0.6508444  3
   3570   3574   3586   3592     1  0.0000000  0.6508444  3
   3570   3577   3580   3589     1  0.0000000  0.6508444  3
   3571   3570   3574   3586     1  0.0000000  0.6508444  3
   3571   3570   3577   3580     1  0.0000000  0.6508444  3
   3571   3583   3595   5402     1  0.0000000  0.6508444  3
   3574   3570   3571   3583     1  0.0000000  0.6508444  3
   3574   3570   3577   3580     1  0.0000000  0.6508444  3
   3574   3586   3592   5388     1  0.0000000  0.6508444  3
   3577   3570   3571   3583     1  0.0000000  0.6508444  3
   3577   3570   3574   3586     1  0.0000000  0.6508444  3
   3577   3580   3589   3598     1  0.0000000  0.6508444  3
   3583   3595   5402   5396     1  180.0000771  0.4184000  2
   3583   3595   5402   5396     1  0.0000000  1.6024720  3
   3586   3592   5388   5382     1  180.0000771  0.4184000  2
   3586   3592   5388   5382     1  0.0000000  1.6024720  3
   3592   5388   5382   5379     1  180.0000771  0.4184000  2
   3592   5388   5382   5379     1  0.0000000  1.6024720  3
   3595   5402   5396   5393     1  180.0000771  0.4184000  2
   3595   5402   5396   5393     1  0.0000000  1.6024720  3
   3600   3601   3613   3625     1  0.0000000  0.6508444  3
   3600   3604   3616   3622     1  0.0000000  0.6508444  3
   3600   3607   3610   3619     1  0.0000000  0.6508444  3
   3601   3600   3604   3616     1  0.0000000  0.6508444  3
   3601   3600   3607   3610     1  0.0000000  0.6508444  3
   3601   3613   3625   5430     1  0.0000000  0.6508444  3
   3604   3600   3601   3613     1  0.0000000  0.6508444  3
   3604   3600   3607   3610     1  0.0000000  0.6508444  3
   3604   3616   3622   5416     1  0.0000000  0.6508444  3
   3607   3600   3601   3613     1  0.0000000  0.6508444  3
   3607   3600   3604   3616     1  0.0000000  0.6508444  3
   3607   3610   3619   3628     1  0.0000000  0.6508444  3
   3613   3625   5430   5424     1  180.0000771  0.4184000  2
   3613   3625   5430   5424     1  0.0000000  1.6024720  3
   3616   3622   5416   5410     1  180.0000771  0.4184000  2
   3616   3622   5416   5410     1  0.0000000  1.6024720  3
   3622   5416   5410   5407     1  180.0000771  0.4184000  2
   3622   5416   5410   5407     1  0.0000000  1.6024720  3
   3625   5430   5424   5421     1  180.0000771  0.4184000  2
   3625   5430   5424   5421     1  0.0000000  1.6024720  3
   3630   3631   3643   3655     1  0.0000000  0.6508444  3
   3630   3634   3646   3652     1  0.0000000  0.6508444  3
   3630   3637   3640   3649     1  0.0000000  0.6508444  3
   3631   3630   3634   3646     1  0.0000000  0.6508444  3
   3631   3630   3637   3640     1  0.0000000  0.6508444  3
   3631   3643   3655   5458     1  0.0000000  0.6508444  3
   3634   3630   3631   3643     1  0.0000000  0.6508444  3
   3634   3630   3637   3640     1  0.0000000  0.6508444  3
   3634   3646   3652   5444     1  0.0000000  0.6508444  3
   3637   3630   3631   3643     1  0.0000000  0.6508444  3
   3637   3630   3634   3646     1  0.0000000  0.6508444  3
   3637   3640   3649   3658     1  0.0000000  0.6508444  3
   3643   3655   5458   5452     1  180.0000771  0.4184000  2
   3643   3655   5458   5452     1  0.0000000  1.6024720  3
   3646   3652   5444   5438     1  180.0000771  0.4184000  2
   3646   3652   5444   5438     1  0.0000000  1.6024720  3
   3652   5444   5438   5435     1  180.0000771  0.4184000  2
   3652   5444   5438   5435     1  0.0000000  1.6024720  3
   3655   5458   5452   5449     1  180.0000771  0.4184000  2
   3655   5458   5452   5449     1  0.0000000  1.6024720  3
   3660   3661   3673   3685     1  0.0000000  0.6508444  3
   3660   3664   3676   3682     1  0.0000000  0.6508444  3
   3660   3667   3670   3679     1  0.0000000  0.6508444  3
   3661   3660   3664   3676     1  0.0000000  0.6508444  3
   3661   3660   3667   3670     1  0.0000000  0.6508444  3
   3661   3673   3685   5486     1  0.0000000  0.6508444  3
   3664   3660   3661   3673     1  0.0000000  0.6508444  3
   3664   3660   3667   3670     1  0.0000000  0.6508444  3
   3664   3676   3682   5472     1  0.0000000  0.6508444  3
   3667   3660   3661   3673     1  0.0000000  0.6508444  3
   3667   3660   3664   3676     1  0.0000000  0.6508444  3
   3667   3670   3679   3688     1  0.0000000  0.6508444  3
   3673   3685   5486   5480     1  180.0000771  0.4184000  2
   3673   3685   5486   5480     1  0.0000000  1.6024720  3
   3676   3682   5472   5466     1  180.0000771  0.4184000  2
   3676   3682   5472   5466     1  0.0000000  1.6024720  3
   3682   5472   5466   5463     1  180.0000771  0.4184000  2
   3682   5472   5466   5463     1  0.0000000  1.6024720  3
   3685   5486   5480   5477     1  180.0000771  0.4184000  2
   3685   5486   5480   5477     1  0.0000000  1.6024720  3
   3690   3691   3703   3715     1  0.0000000  0.6508444  3
   3690   3694   3706   3712     1  0.0000000  0.6508444  3
   3690   3697   3700   3709     1  0.0000000  0.6508444  3
   3691   3690   3694   3706     1  0.0000000  0.6508444  3
   3691   3690   3697   3700     1  0.0000000  0.6508444  3
   3691   3703   3715   5514     1  0.0000000  0.6508444  3
   3694   3690   3691   3703     1  0.0000000  0.6508444  3
   3694   3690   3697   3700     1  0.0000000  0.6508444  3
   3694   3706   3712   5500     1  0.0000000  0.6508444  3
   3697   3690   3691   3703     1  0.0000000  0.6508444  3
   3697   3690   3694   3706     1  0.0000000  0.6508444  3
   3697   3700   3709   3718     1  0.0000000  0.6508444  3
   3703   3715   5514   5508     1  180.0000771  0.4184000  2
   3703   3715   5514   5508     1  0.0000000  1.6024720  3
   3706   3712   5500   5494     1  180.0000771  0.4184000  2
   3706   3712   5500   5494     1  0.0000000  1.6024720  3
   3712   5500   5494   5491     1  180.0000771  0.4184000  2
   3712   5500   5494   5491     1  0.0000000  1.6024720  3
   3715   5514   5508   5505     1  180.0000771  0.4184000  2
   3715   5514   5508   5505     1  0.0000000  1.6024720  3
   3720   3721   3733   3745     1  0.0000000  0.6508444  3
   3720   3724   3736   3742     1  0.0000000  0.6508444  3
   3720   3727   3730   3739     1  0.0000000  0.6508444  3
   3721   3720   3724   3736     1  0.0000000  0.6508444  3
   3721   3720   3727   3730     1  0.0000000  0.6508444  3
   3721   3733   3745   5542     1  0.0000000  0.6508444  3
   3724   3720   3721   3733     1  0.0000000  0.6508444  3
   3724   3720   3727   3730     1  0.0000000  0.6508444  3
   3724   3736   3742   5528     1  0.0000000  0.6508444  3
   3727   3720   3721   3733     1  0.0000000  0.6508444  3
   3727   3720   3724   3736     1  0.0000000  0.6508444  3
   3727   3730   3739   3748     1  0.0000000  0.6508444  3
   3733   3745   5542   5536     1  180.0000771  0.4184000  2
   3733   3745   5542   5536     1  0.0000000  1.6024720  3
   3736   3742   5528   5522     1  180.0000771  0.4184000  2
   3736   3742   5528   5522     1  0.0000000  1.6024720  3
   3742   5528   5522   5519     1  180.0000771  0.4184000  2
   3742   5528   5522   5519     1  0.0000000  1.6024720  3
   3745   5542   5536   5533     1  180.0000771  0.4184000  2
   3745   5542   5536   5533     1  0.0000000  1.6024720  3
   3750   3751   3763   3775     1  0.0000000  0.6508444  3
   3750   3754   3766   3772     1  0.0000000  0.6508444  3
   3750   3757   3760   3769     1  0.0000000  0.6508444  3
   3751   3750   3754   3766     1  0.0000000  0.6508444  3
   3751   3750   3757   3760     1  0.0000000  0.6508444  3
   3751   3763   3775   5570     1  0.0000000  0.6508444  3
   3754   3750   3751   3763     1  0.0000000  0.6508444  3
   3754   3750   3757   3760     1  0.0000000  0.6508444  3
   3754   3766   3772   5556     1  0.0000000  0.6508444  3
   3757   3750   3751   3763     1  0.0000000  0.6508444  3
   3757   3750   3754   3766     1  0.0000000  0.6508444  3
   3757   3760   3769   3778     1  0.0000000  0.6508444  3
   3763   3775   5570   5564     1  180.0000771  0.4184000  2
   3763   3775   5570   5564     1  0.0000000  1.6024720  3
   3766   3772   5556   5550     1  180.0000771  0.4184000  2
   3766   3772   5556   5550     1  0.0000000  1.6024720  3
   3772   5556   5550   5547     1  180.0000771  0.4184000  2
   3772   5556   5550   5547     1  0.0000000  1.6024720  3
   3775   5570   5564   5561     1  180.0000771  0.4184000  2
   3775   5570   5564   5561     1  0.0000000  1.6024720  3
   3780   3783   3786   3792     1  0.0000000  0.6508444  3
   3786   3783   3780   3789     1  0.0000000  0.6508444  3
   3794   3797   3800   3806     1  0.0000000  0.6508444  3
   3800   3797   3794   3803     1  0.0000000  0.6508444  3
   3808   3811   3814   3820     1  0.0000000  0.6508444  3
   3814   3811   3808   3817     1  0.0000000  0.6508444  3
   3822   3825   3828   3834     1  0.0000000  0.6508444  3
   3828   3825   3822   3831     1  0.0000000  0.6508444  3
   3836   3839   3842   3848     1  0.0000000  0.6508444  3
   3842   3839   3836   3845     1  0.0000000  0.6508444  3
   3850   3853   3856   3862     1  0.0000000  0.6508444  3
   3856   3853   3850   3859     1  0.0000000  0.6508444  3
   3864   3867   3870   3876     1  0.0000000  0.6508444  3
   3870   3867   3864   3873     1  0.0000000  0.6508444  3
   3878   3881   3884   3890     1  0.0000000  0.6508444  3
   3884   3881   3878   3887     1  0.0000000  0.6508444  3
   3892   3895   3898   3904     1  0.0000000  0.6508444  3
   3898   3895   3892   3901     1  0.0000000  0.6508444  3
   3906   3909   3912   3918     1  0.0000000  0.6508444  3
   3912   3909   3906   3915     1  0.0000000  0.6508444  3
   3920   3923   3926   3932     1  0.0000000  0.6508444  3
   3926   3923   3920   3929     1  0.0000000  0.6508444  3
   3934   3937   3940   3946     1  0.0000000  0.6508444  3
   3940   3937   3934   3943     1  0.0000000  0.6508444  3
   3948   3951   3954   3960     1  0.0000000  0.6508444  3
   3954   3951   3948   3957     1  0.0000000  0.6508444  3
   3962   3965   3968   3974     1  0.0000000  0.6508444  3
   3968   3965   3962   3971     1  0.0000000  0.6508444  3
   3976   3979   3982   3988     1  0.0000000  0.6508444  3
   3982   3979   3976   3985     1  0.0000000  0.6508444  3
   3990   3993   3996   4002     1  0.0000000  0.6508444  3
   3996   3993   3990   3999     1  0.0000000  0.6508444  3
   4004   4007   4010   4016     1  0.0000000  0.6508444  3
   4010   4007   4004   4013     1  0.0000000  0.6508444  3
   4018   4021   4024   4030     1  0.0000000  0.6508444  3
   4024   4021   4018   4027     1  0.0000000  0.6508444  3
   4032   4035   4038   4044     1  0.0000000  0.6508444  3
   4038   4035   4032   4041     1  0.0000000  0.6508444  3
   4046   4049   4052   4058     1  0.0000000  0.6508444  3
   4052   4049   4046   4055     1  0.0000000  0.6508444  3
   4060   4063   4066   4072     1  0.0000000  0.6508444  3
   4066   4063   4060   4069     1  0.0000000  0.6508444  3
   4074   4077   4080   4086     1  0.0000000  0.6508444  3
   4080   4077   4074   4083     1  0.0000000  0.6508444  3
   4088   4091   4094   4100     1  0.0000000  0.6508444  3
   4094   4091   4088   4097     1  0.0000000  0.6508444  3
   4102   4105   4108   4114     1  0.0000000  0.6508444  3
   4108   4105   4102   4111     1  0.0000000  0.6508444  3
   4116   4119   4122   4128     1  0.0000000  0.6508444  3
   4122   4119   4116   4125     1  0.0000000  0.6508444  3
   4130   4133   4136   4142     1  0.0000000  0.6508444  3
   4136   4133   4130   4139     1  0.0000000  0.6508444  3
   4144   4147   4150   4156     1  0.0000000  0.6508444  3
   4150   4147   4144   4153     1  0.0000000  0.6508444  3
   4158   4161   4164   4170     1  0.0000000  0.6508444  3
   4164   4161   4158   4167     1  0.0000000  0.6508444  3
   4172   4175   4178   4184     1  0.0000000  0.6508444  3
   4178   4175   4172   4181     1  0.0000000  0.6508444  3
   4186   4189   4192   4198     1  0.0000000  0.6508444  3
   4192   4189   4186   4195     1  0.0000000  0.6508444  3
   4200   4203   4206   4212     1  0.0000000  0.6508444  3
   4206   4203   4200   4209     1  0.0000000  0.6508444  3
   4214   4217   4220   4226     1  0.0000000  0.6508444  3
   4220   4217   4214   4223     1  0.0000000  0.6508444  3
   4228   4231   4234   4240     1  0.0000000  0.6508444  3
   4234   4231   4228   4237     1  0.0000000  0.6508444  3
   4242   4245   4248   4254     1  0.0000000  0.6508444  3
   4248   4245   4242   4251     1  0.0000000  0.6508444  3
   4256   4259   4262   4268     1  0.0000000  0.6508444  3
   4262   4259   4256   4265     1  0.0000000  0.6508444  3
   4270   4273   4276   4282     1  0.0000000  0.6508444  3
   4276   4273   4270   4279     1  0.0000000  0.6508444  3
   4284   4287   4290   4296     1  0.0000000  0.6508444  3
   4290   4287   4284   4293     1  0.0000000  0.6508444  3
   4298   4301   4304   4310     1  0.0000000  0.6508444  3
   4304   4301   4298   4307     1  0.0000000  0.6508444  3
   4312   4315   4318   4324     1  0.0000000  0.6508444  3
   4318   4315   4312   4321     1  0.0000000  0.6508444  3
   4326   4329   4332   4338     1  0.0000000  0.6508444  3
   4332   4329   4326   4335     1  0.0000000  0.6508444  3
   4340   4343   4346   4352     1  0.0000000  0.6508444  3
   4346   4343   4340   4349     1  0.0000000  0.6508444  3
   4354   4357   4360   4366     1  0.0000000  0.6508444  3
   4360   4357   4354   4363     1  0.0000000  0.6508444  3
   4368   4371   4374   4380     1  0.0000000  0.6508444  3
   4374   4371   4368   4377     1  0.0000000  0.6508444  3
   4382   4385   4388   4394     1  0.0000000  0.6508444  3
   4388   4385   4382   4391     1  0.0000000  0.6508444  3
   4396   4399   4402   4408     1  0.0000000  0.6508444  3
   4402   4399   4396   4405     1  0.0000000  0.6508444  3
   4410   4413   4416   4422     1  0.0000000  0.6508444  3
   4416   4413   4410   4419     1  0.0000000  0.6508444  3
   4424   4427   4430   4436     1  0.0000000  0.6508444  3
   4430   4427   4424   4433     1  0.0000000  0.6508444  3
   4438   4441   4444   4450     1  0.0000000  0.6508444  3
   4444   4441   4438   4447     1  0.0000000  0.6508444  3
   4452   4455   4458   4464     1  0.0000000  0.6508444  3
   4458   4455   4452   4461     1  0.0000000  0.6508444  3
   4466   4469   4472   4478     1  0.0000000  0.6508444  3
   4472   4469   4466   4475     1  0.0000000  0.6508444  3
   4480   4483   4486   4492     1  0.0000000  0.6508444  3
   4486   4483   4480   4489     1  0.0000000  0.6508444  3
   4494   4497   4500   4506     1  0.0000000  0.6508444  3
   4500   4497   4494   4503     1  0.0000000  0.6508444  3
   4508   4511   4514   4520     1  0.0000000  0.6508444  3
   4514   4511   4508   4517     1  0.0000000  0.6508444  3
   4522   4525   4528   4534     1  0.0000000  0.6508444  3
   4528   4525   4522   4531     1  0.0000000  0.6508444  3
   4536   4539   4542   4548     1  0.0000000  0.6508444  3
   4542   4539   4536   4545     1  0.0000000  0.6508444  3
   4550   4553   4556   4562     1  0.0000000  0.6508444  3
   4556   4553   4550   4559     1  0.0000000  0.6508444  3
   4564   4567   4570   4576     1  0.0000000  0.6508444  3
   4570   4567   4564   4573     1  0.0000000  0.6508444  3
   4578   4581   4584   4590     1  0.0000000  0.6508444  3
   4584   4581   4578   4587     1  0.0000000  0.6508444  3
   4592   4595   4598   4604     1  0.0000000  0.6508444  3
   4598   4595   4592   4601     1  0.0000000  0.6508444  3
   4606   4609   4612   4618     1  0.0000000  0.6508444  3
   4612   4609   4606   4615     1  0.0000000  0.6508444  3
   4620   4623   4626   4632     1  0.0000000  0.6508444  3
   4626   4623   4620   4629     1  0.0000000  0.6508444  3
   4634   4637   4640   4646     1  0.0000000  0.6508444  3
   4640   4637   4634   4643     1  0.0000000  0.6508444  3
   4648   4651   4654   4660     1  0.0000000  0.6508444  3
   4654   4651   4648   4657     1  0.0000000  0.6508444  3
   4662   4665   4668   4674     1  0.0000000  0.6508444  3
   4668   4665   4662   4671     1  0.0000000  0.6508444  3
   4676   4679   4682   4688     1  0.0000000  0.6508444  3
   4682   4679   4676   4685     1  0.0000000  0.6508444  3
   4690   4693   4696   4702     1  0.0000000  0.6508444  3
   4696   4693   4690   4699     1  0.0000000  0.6508444  3
   4704   4707   4710   4716     1  0.0000000  0.6508444  3
   4710   4707   4704   4713     1  0.0000000  0.6508444  3
   4718   4721   4724   4730     1  0.0000000  0.6508444  3
   4724   4721   4718   4727     1  0.0000000  0.6508444  3
   4732   4735   4738   4744     1  0.0000000  0.6508444  3
   4738   4735   4732   4741     1  0.0000000  0.6508444  3
   4746   4749   4752   4758     1  0.0000000  0.6508444  3
   4752   4749   4746   4755     1  0.0000000  0.6508444  3
   4760   4763   4766   4772     1  0.0000000  0.6508444  3
   4766   4763   4760   4769     1  0.0000000  0.6508444  3
   4774   4777   4780   4786     1  0.0000000  0.6508444  3
   4780   4777   4774   4783     1  0.0000000  0.6508444  3
   4788   4791   4794   4800     1  0.0000000  0.6508444  3
   4794   4791   4788   4797     1  0.0000000  0.6508444  3
   4802   4805   4808   4814     1  0.0000000  0.6508444  3
   4808   4805   4802   4811     1  0.0000000  0.6508444  3
   4816   4819   4822   4828     1  0.0000000  0.6508444  3
   4822   4819   4816   4825     1  0.0000000  0.6508444  3
   4830   4833   4836   4842     1  0.0000000  0.6508444  3
   4836   4833   4830   4839     1  0.0000000  0.6508444  3
   4844   4847   4850   4856     1  0.0000000  0.6508444  3
   4850   4847   4844   4853     1  0.0000000  0.6508444  3
   4858   4861   4864   4870     1  0.0000000  0.6508444  3
   4864   4861   4858   4867     1  0.0000000  0.6508444  3
   4872   4875   4878   4884     1  0.0000000  0.6508444  3
   4878   4875   4872   4881     1  0.0000000  0.6508444  3
   4886   4889   4892   4898     1  0.0000000  0.6508444  3
   4892   4889   4886   4895     1  0.0000000  0.6508444  3
   4900   4903   4906   4912     1  0.0000000  0.6508444  3
   4906   4903   4900   4909     1  0.0000000  0.6508444  3
   4914   4917   4920   4926     1  0.0000000  0.6508444  3
   4920   4917   4914   4923     1  0.0000000  0.6508444  3
   4928   4931   4934   4940     1  0.0000000  0.6508444  3
   4934   4931   4928   4937     1  0.0000000  0.6508444  3
   4942   4945   4948   4954     1  0.0000000  0.6508444  3
   4948   4945   4942   4951     1  0.0000000  0.6508444  3
   4956   4959   4962   4968     1  0.0000000  0.6508444  3
   4962   4959   4956   4965     1  0.0000000  0.6508444  3
   4970   4973   4976   4982     1  0.0000000  0.6508444  3
   4976   4973   4970   4979     1  0.0000000  0.6508444  3
   4984   4987   4990   4996     1  0.0000000  0.6508444  3
   4990   4987   4984   4993     1  0.0000000  0.6508444  3
   4998   5001   5004   5010     1  0.0000000  0.6508444  3
   5004   5001   4998   5007     1  0.0000000  0.6508444  3
   5012   5015   5018   5024     1  0.0000000  0.6508444  3
   5018   5015   5012   5021     1  0.0000000  0.6508444  3
   5026   5029   5032   5038     1  0.0000000  0.6508444  3
   5032   5029   5026   5035     1  0.0000000  0.6508444  3
   5040   5043   5046   5052     1  0.0000000  0.6508444  3
   5046   5043   5040   5049     1  0.0000000  0.6508444  3
   5054   5057   5060   5066     1  0.0000000  0.6508444  3
   5060   5057   5054   5063     1  0.0000000  0.6508444  3
   5068   5071   5074   5080     1  0.0000000  0.6508444  3
   5074   5071   5068   5077     1  0.0000000  0.6508444  3
   5082   5085   5088   5094     1  0.0000000  0.6508444  3
   5088   5085   5082   5091     1  0.0000000  0.6508444  3
   5096   5099   5102   5108     1  0.0000000  0.6508444  3
   5102   5099   5096   5105     1  0.0000000  0.6508444  3
   5110   5113   5116   5122     1  0.0000000  0.6508444  3
   5116   5113   5110   5119     1  0.0000000  0.6508444  3
   5124   5127   5130   5136     1  0.0000000  0.6508444  3
   5130   5127   5124   5133     1  0.0000000  0.6508444  3
   5138   5141   5144   5150     1  0.0000000  0.6508444  3
   5144   5141   5138   5147     1  0.0000000  0.6508444  3
   5152   5155   5158   5164     1  0.0000000  0.6508444  3
   5158   5155   5152   5161     1  0.0000000  0.6508444  3
   5166   5169   5172   5178     1  0.0000000  0.6508444  3
   5172   5169   5166   5175     1  0.0000000  0.6508444  3
   5180   5183   5186   5192     1  0.0000000  0.6508444  3
   5186   5183   5180   5189     1  0.0000000  0.6508444  3
   5194   5197   5200   5206     1  0.0000000  0.6508444  3
   5200   5197   5194   5203     1  0.0000000  0.6508444  3
   5208   5211   5214   5220     1  0.0000000  0.6508444  3
   5214   5211   5208   5217     1  0.0000000  0.6508444  3
   5222   5225   5228   5234     1  0.0000000  0.6508444  3
   5228   5225   5222   5231     1  0.0000000  0.6508444  3
   5236   5239   5242   5248     1  0.0000000  0.6508444  3
   5242   5239   5236   5245     1  0.0000000  0.6508444  3
   5250   5253   5256   5262     1  0.0000000  0.6508444  3
   5256   5253   5250   5259     1  0.0000000  0.6508444  3
   5264   5267   5270   5276     1  0.0000000  0.6508444  3
   5270   5267   5264   5273     1  0.0000000  0.6508444  3
   5278   5281   5284   5290     1  0.0000000  0.6508444  3
   5284   5281   5278   5287     1  0.0000000  0.6508444  3
   5292   5295   5298   5304     1  0.0000000  0.6508444  3
   5298   5295   5292   5301     1  0.0000000  0.6508444  3
   5306   5309   5312   5318     1  0.0000000  0.6508444  3
   5312   5309   5306   5315     1  0.0000000  0.6508444  3
   5320   5323   5326   5332     1  0.0000000  0.6508444  3
   5326   5323   5320   5329     1  0.0000000  0.6508444  3
   5334   5337   5340   5346     1  0.0000000  0.6508444  3
   5340   5337   5334   5343     1  0.0000000  0.6508444  3
   5348   5351   5354   5360     1  0.0000000  0.6508444  3
   5354   5351   5348   5357     1  0.0000000  0.6508444  3
   5362   5365   5368   5374     1  0.0000000  0.6508444  3
   5368   5365   5362   5371     1  0.0000000  0.6508444  3
   5376   5379   5382   5388     1  0.0000000  0.6508444  3
   5382   5379   5376   5385     1  0.0000000  0.6508444  3
   5390   5393   5396   5402     1  0.0000000  0.6508444  3
   5396   5393   5390   5399     1  0.0000000  0.6508444  3
   5404   5407   5410   5416     1  0.0000000  0.6508444  3
   5410   5407   5404   5413     1  0.0000000  0.6508444  3
   5418   5421   5424   5430     1  0.0000000  0.6508444  3
   5424   5421   5418   5427     1  0.0000000  0.6508444  3
   5432   5435   5438   5444     1  0.0000000  0.6508444  3
   5438   5435   5432   5441     1  0.0000000  0.6508444  3
   5446   5449   5452   5458     1  0.0000000  0.6508444  3
   5452   5449   5446   5455     1  0.0000000  0.6508444  3
   5460   5463   5466   5472     1  0.0000000  0.6508444  3
   5466   5463   5460   5469     1  0.0000000  0.6508444  3
   5474   5477   5480   5486     1  0.0000000  0.6508444  3
   5480   5477   5474   5483     1  0.0000000  0.6508444  3
   5488   5491   5494   5500     1  0.0000000  0.6508444  3
   5494   5491   5488   5497     1  0.0000000  0.6508444  3
   5502   5505   5508   5514     1  0.0000000  0.6508444  3
   5508   5505   5502   5511     1  0.0000000  0.6508444  3
   5516   5519   5522   5528     1  0.0000000  0.6508444  3
   5522   5519   5516   5525     1  0.0000000  0.6508444  3
   5530   5533   5536   5542     1  0.0000000  0.6508444  3
   5536   5533   5530   5539     1  0.0000000  0.6508444  3
   5544   5547   5550   5556     1  0.0000000  0.6508444  3
   5550   5547   5544   5553     1  0.0000000  0.6508444  3
   5558   5561   5564   5570     1  0.0000000  0.6508444  3
   5564   5561   5558   5567     1  0.0000000  0.6508444  3
      1      2      8      9     1  0.0000000  1.0460000  1
      1      2      8      9     1  0.0000000  0.0000000  3
      1      2      8     10     1  0.0000000  1.0460000  1
      1      2      8     10     1  0.0000000  0.0000000  3
      1      5     11     12     1  0.0000000  1.0460000  1
      1      5     11     12     1  0.0000000  0.0000000  3
      1      5     11     13     1  0.0000000  1.0460000  1
      1      5     11     13     1  0.0000000  0.0000000  3
      2      1      5      6     1  0.0000000  1.6038667  3
      2      1      5      7     1  0.0000000  1.6038667  3
      2      8     14     15     1  0.0000000  0.6508444  3
      2      8     14     16     1  0.0000000  0.6508444  3
      5      1      2      3     1  0.0000000  1.6038667  3
      3      2      8     14     1  0.0000000  0.6508444  3
      3      2      8      9     1  0.0000000  0.6508444  3
      3      2      8     10     1  0.0000000  0.6508444  3
      5      1      2      4     1  0.0000000  1.6038667  3
      4      2      8     14     1  0.0000000  0.6508444  3
      4      2      8      9     1  0.0000000  0.6508444  3
      4      2      8     10     1  0.0000000  0.6508444  3
      5     11     17     18     1  0.0000000  0.6508444  3
      5     11     17     19     1  0.0000000  0.6508444  3
      6      5     11     17     1  0.0000000  0.6508444  3
      6      5     11     12     1  0.0000000  0.6508444  3
      6      5     11     13     1  0.0000000  0.6508444  3
      7      5     11     17     1  0.0000000  0.6508444  3
      7      5     11     12     1  0.0000000  0.6508444  3
      7      5     11     13     1  0.0000000  0.6508444  3
      8     14     20     58     1  0.0000000  0.6508444  3
      9      8     14     20     1  0.0000000  0.6508444  3
      9      8     14     15     1  0.0000000  0.6508444  3
      9      8     14     16     1  0.0000000  0.6508444  3
     10      8     14     20     1  0.0000000  0.6508444  3
     10      8     14     15     1  0.0000000  0.6508444  3
     10      8     14     16     1  0.0000000  0.6508444  3
     11     17     21     59     1  0.0000000  0.6508444  3
     12     11     17     21     1  0.0000000  0.6508444  3
     12     11     17     18     1  0.0000000  0.6508444  3
     12     11     17     19     1  0.0000000  0.6508444  3
     13     11     17     21     1  0.0000000  0.6508444  3
     13     11     17     18     1  0.0000000  0.6508444  3
     13     11     17     19     1  0.0000000  0.6508444  3
     14     20     28     29     1  0.0000000  0.6508444  3
     14     20     28     30     1  0.0000000  0.6508444  3
     14     20     31     32     1  0.0000000  0.6508444  3
     14     20     31     33     1  0.0000000  0.6508444  3
     15     14     20     28     1  0.0000000  0.6508444  3
     15     14     20     31     1  0.0000000  0.6508444  3
     15     14     20     58     1  0.0000000  0.6508444  3
     16     14     20     28     1  0.0000000  0.6508444  3
     16     14     20     31     1  0.0000000  0.6508444  3
     16     14     20     58     1  0.0000000  0.6508444  3
     17     21     22     23     1  0.0000000  0.6508444  3
     17     21     22     24     1  0.0000000  0.6508444  3
     17     21     25     26     1  0.0000000  0.6508444  3
     17     21     25     27     1  0.0000000  0.6508444  3
     18     17     21     22     1  0.0000000  0.6508444  3
     18     17     21     25     1  0.0000000  0.6508444  3
     18     17     21     59     1  0.0000000  0.6508444  3
     19     17     21     22     1  0.0000000  0.6508444  3
     19     17     21     25     1  0.0000000  0.6508444  3
     19     17     21     59     1  0.0000000  0.6508444  3
     20     28     40     41     1  0.0000000  0.6508444  3
     20     28     40     42     1  0.0000000  0.6508444  3
     20     31     43     44     1  0.0000000  0.6508444  3
     20     31     43     45     1  0.0000000  0.6508444  3
     21     22     34     35     1  0.0000000  0.6508444  3
     21     22     34     36     1  0.0000000  0.6508444  3
     21     25     37     38     1  0.0000000  0.6508444  3
     21     25     37     39     1  0.0000000  0.6508444  3
     22     21     25     26     1  0.0000000  0.6508444  3
     22     21     25     27     1  0.0000000  0.6508444  3
     22     34     55     56     1  0.0000000  0.6694400  3
     22     34     55     57     1  0.0000000  0.6694400  3
     23     22     21     25     1  0.0000000  0.6508444  3
     23     22     21     59     1  0.0000000  0.6508444  3
     23     22     34     55     1  0.0000000  0.6508444  3
     23     22     34     35     1  0.0000000  0.6508444  3
     23     22     34     36     1  0.0000000  0.6508444  3
     24     22     21     25     1  0.0000000  0.6508444  3
     24     22     21     59     1  0.0000000  0.6508444  3
     24     22     34     55     1  0.0000000  0.6508444  3
     24     22     34     35     1  0.0000000  0.6508444  3
     24     22     34     36     1  0.0000000  0.6508444  3
     25     37     52     53     1  0.0000000  0.6694400  3
     25     37     52     54     1  0.0000000  0.6694400  3
     26     25     21     59     1  0.0000000  0.6508444  3
     26     25     37     52     1  0.0000000  0.6508444  3
     26     25     37     38     1  0.0000000  0.6508444  3
     26     25     37     39     1  0.0000000  0.6508444  3
     27     25     21     59     1  0.0000000  0.6508444  3
     27     25     37     52     1  0.0000000  0.6508444  3
     27     25     37     38     1  0.0000000  0.6508444  3
     27     25     37     39     1  0.0000000  0.6508444  3
     28     20     31     32     1  0.0000000  0.6508444  3
     28     20     31     33     1  0.0000000  0.6508444  3
     28     40     49     50     1  0.0000000  0.6694400  3
     28     40     49     51     1  0.0000000  0.6694400  3
     29     28     20     31     1  0.0000000  0.6508444  3
     29     28     20     58     1  0.0000000  0.6508444  3
     29     28     40     49     1  0.0000000  0.6508444  3
     29     28     40     41     1  0.0000000  0.6508444  3
     29     28     40     42     1  0.0000000  0.6508444  3
     30     28     20     31     1  0.0000000  0.6508444  3
     30     28     20     58     1  0.0000000  0.6508444  3
     30     28     40     49     1  0.0000000  0.6508444  3
     30     28     40     41     1  0.0000000  0.6508444  3
     30     28     40     42     1  0.0000000  0.6508444  3
     31     43     46     47     1  0.0000000  0.6694400  3
     31     43     46     48     1  0.0000000  0.6694400  3
     32     31     20     58     1  0.0000000  0.6508444  3
     32     31     43     46     1  0.0000000  0.6508444  3
     32     31     43     44     1  0.0000000  0.6508444  3
     32     31     43     45     1  0.0000000  0.6508444  3
     33     31     20     58     1  0.0000000  0.6508444  3
     33     31     43     46     1  0.0000000  0.6508444  3
     33     31     43     44     1  0.0000000  0.6508444  3
     33     31     43     45     1  0.0000000  0.6508444  3
     34     22     21     59     1  0.0000000  0.6508444  3
     35     34     55    178     1  0.0000000  1.0460000  1
     35     34     55    178     1  0.0000000  0.0000000  3
     35     34     55     56     1  0.0000000  0.6276000  3
     35     34     55     57     1  0.0000000  0.6276000  3
     36     34     55    178     1  0.0000000  1.0460000  1
     36     34     55    178     1  0.0000000  0.0000000  3
     36     34     55     56     1  0.0000000  0.6276000  3
     36     34     55     57     1  0.0000000  0.6276000  3
     37     25     21     59     1  0.0000000  0.6508444  3
     38     37     52    148     1  0.0000000  1.0460000  1
     38     37     52    148     1  0.0000000  0.0000000  3
     38     37     52     53     1  0.0000000  0.6276000  3
     38     37     52     54     1  0.0000000  0.6276000  3
     39     37     52    148     1  0.0000000  1.0460000  1
     39     37     52    148     1  0.0000000  0.0000000  3
     39     37     52     53     1  0.0000000  0.6276000  3
     39     37     52     54     1  0.0000000  0.6276000  3
     40     28     20     58     1  0.0000000  0.6508444  3
     41     40     49    118     1  0.0000000  1.0460000  1
     41     40     49    118     1  0.0000000  0.0000000  3
     41     40     49     50     1  0.0000000  0.6276000  3
     41     40     49     51     1  0.0000000  0.6276000  3
     42     40     49    118     1  0.0000000  1.0460000  1
     42     40     49    118     1  0.0000000  0.0000000  3
     42     40     49     50     1  0.0000000  0.6276000  3
     42     40     49     51     1  0.0000000  0.6276000  3
     43     31     20     58     1  0.0000000  0.6508444  3
     44     43     46     88     1  0.0000000  1.0460000  1
     44     43     46     88     1  0.0000000  0.0000000  3
     44     43     46     47     1  0.0000000  0.6276000  3
     44     43     46     48     1  0.0000000  0.6276000  3
     45     43     46     88     1  0.0000000  1.0460000  1
     45     43     46     88     1  0.0000000  0.0000000  3
     45     43     46     47     1  0.0000000  0.6276000  3
     45     43     46     48     1  0.0000000  0.6276000  3
     46     88     79     80     1  0.0000000  1.6038667  3
     46     88     79     81     1  0.0000000  1.6038667  3
     47     46     88     79     1  0.0000000  1.6038667  3
     48     46     88     79     1  0.0000000  1.6038667  3
     49    118    109    110     1  0.0000000  1.6038667  3
     49    118    109    111     1  0.0000000  1.6038667  3
     50     49    118    109     1  0.0000000  1.6038667  3
     51     49    118    109     1  0.0000000  1.6038667  3
     52    148    139    140     1  0.0000000  1.6038667  3
     52    148    139    141     1  0.0000000  1.6038667  3
     53     52    148    139     1  0.0000000  1.6038667  3
     54     52    148    139     1  0.0000000  1.6038667  3
     55    178    169    170     1  0.0000000  1.6038667  3
     55    178    169    171     1  0.0000000  1.6038667  3
     56     55    178    169     1  0.0000000  1.6038667  3
     57     55    178    169     1  0.0000000  1.6038667  3
     60     61     73     74     1  0.0000000  0.6508444  3
     60     61     73     75     1  0.0000000  0.6508444  3
     60     64     76     77     1  0.0000000  0.6508444  3
     60     64     76     78     1  0.0000000  0.6508444  3
     60     67     70     71     1  0.0000000  0.6508444  3
     60     67     70     72     1  0.0000000  0.6508444  3
     61     60     64     65     1  0.0000000  0.6508444  3
     61     60     64     66     1  0.0000000  0.6508444  3
     61     60     67     68     1  0.0000000  0.6508444  3
     61     60     67     69     1  0.0000000  0.6508444  3
     61     73     85     86     1  0.0000000  0.6508444  3
     61     73     85     87     1  0.0000000  0.6508444  3
     62     61     60     64     1  0.0000000  0.6508444  3
     62     61     60     67     1  0.0000000  0.6508444  3
     62     61     60     89     1  0.0000000  0.6508444  3
     62     61     73     85     1  0.0000000  0.6508444  3
     62     61     73     74     1  0.0000000  0.6508444  3
     62     61     73     75     1  0.0000000  0.6508444  3
     63     61     60     64     1  0.0000000  0.6508444  3
     63     61     60     67     1  0.0000000  0.6508444  3
     63     61     60     89     1  0.0000000  0.6508444  3
     63     61     73     85     1  0.0000000  0.6508444  3
     63     61     73     74     1  0.0000000  0.6508444  3
     63     61     73     75     1  0.0000000  0.6508444  3
     64     60     67     68     1  0.0000000  0.6508444  3
     64     60     67     69     1  0.0000000  0.6508444  3
     64     76     82     83     1  0.0000000  0.6508444  3
     64     76     82     84     1  0.0000000  0.6508444  3
     65     64     60     67     1  0.0000000  0.6508444  3
     65     64     60     89     1  0.0000000  0.6508444  3
     65     64     76     82     1  0.0000000  0.6508444  3
     65     64     76     77     1  0.0000000  0.6508444  3
     65     64     76     78     1  0.0000000  0.6508444  3
     66     64     60     67     1  0.0000000  0.6508444  3
     66     64     60     89     1  0.0000000  0.6508444  3
     66     64     76     82     1  0.0000000  0.6508444  3
     66     64     76     77     1  0.0000000  0.6508444  3
     66     64     76     78     1  0.0000000  0.6508444  3
     67     70     79     80     1  0.0000000  0.6508444  3
     67     70     79     81     1  0.0000000  0.6508444  3
     68     67     60     89     1  0.0000000  0.6508444  3
     68     67     70     79     1  0.0000000  0.6508444  3
     68     67     70     71     1  0.0000000  0.6508444  3
     68     67     70     72     1  0.0000000  0.6508444  3
     69     67     60     89     1  0.0000000  0.6508444  3
     69     67     70     79     1  0.0000000  0.6508444  3
     69     67     70     71     1  0.0000000  0.6508444  3
     69     67     70     72     1  0.0000000  0.6508444  3
     70     67     60     89     1  0.0000000  0.6508444  3
     71     70     79     88     1  0.0000000  1.0460000  1
     71     70     79     88     1  0.0000000  0.0000000  3
     71     70     79     80     1  0.0000000  0.6508444  3
     71     70     79     81     1  0.0000000  0.6508444  3
     72     70     79     88     1  0.0000000  1.0460000  1
     72     70     79     88     1  0.0000000  0.0000000  3
     72     70     79     80     1  0.0000000  0.6508444  3
     72     70     79     81     1  0.0000000  0.6508444  3
     73     61     60     89     1  0.0000000  0.6508444  3
     74     73     85    238     1  0.0000000  1.0460000  1
     74     73     85    238     1  0.0000000  0.0000000  3
     74     73     85     86     1  0.0000000  0.6508444  3
     74     73     85     87     1  0.0000000  0.6508444  3
     75     73     85    238     1  0.0000000  1.0460000  1
     75     73     85    238     1  0.0000000  0.0000000  3
     75     73     85     86     1  0.0000000  0.6508444  3
     75     73     85     87     1  0.0000000  0.6508444  3
     76     64     60     89     1  0.0000000  0.6508444  3
     77     76     82    208     1  0.0000000  1.0460000  1
     77     76     82    208     1  0.0000000  0.0000000  3
     77     76     82     83     1  0.0000000  0.6508444  3
     77     76     82     84     1  0.0000000  0.6508444  3
     78     76     82    208     1  0.0000000  1.0460000  1
     78     76     82    208     1  0.0000000  0.0000000  3
     78     76     82     83     1  0.0000000  0.6508444  3
     78     76     82     84     1  0.0000000  0.6508444  3
     82    208    199    200     1  0.0000000  1.6038667  3
     82    208    199    201     1  0.0000000  1.6038667  3
     83     82    208    199     1  0.0000000  1.6038667  3
     84     82    208    199     1  0.0000000  1.6038667  3
     85    238    229    230     1  0.0000000  1.6038667  3
     85    238    229    231     1  0.0000000  1.6038667  3
     86     85    238    229     1  0.0000000  1.6038667  3
     87     85    238    229     1  0.0000000  1.6038667  3
     90     91    103    104     1  0.0000000  0.6508444  3
     90     91    103    105     1  0.0000000  0.6508444  3
     90     94    106    107     1  0.0000000  0.6508444  3
     90     94    106    108     1  0.0000000  0.6508444  3
     90     97    100    101     1  0.0000000  0.6508444  3
     90     97    100    102     1  0.0000000  0.6508444  3
     91     90     94     95     1  0.0000000  0.6508444  3
     91     90     94     96     1  0.0000000  0.6508444  3
     91     90     97     98     1  0.0000000  0.6508444  3
     91     90     97     99     1  0.0000000  0.6508444  3
     91    103    115    116     1  0.0000000  0.6508444  3
     91    103    115    117     1  0.0000000  0.6508444  3
     92     91     90     94     1  0.0000000  0.6508444  3
     92     91     90     97     1  0.0000000  0.6508444  3
     92     91     90    119     1  0.0000000  0.6508444  3
     92     91    103    115     1  0.0000000  0.6508444  3
     92     91    103    104     1  0.0000000  0.6508444  3
     92     91    103    105     1  0.0000000  0.6508444  3
     93     91     90     94     1  0.0000000  0.6508444  3
     93     91     90     97     1  0.0000000  0.6508444  3
     93     91     90    119     1  0.0000000  0.6508444  3
     93     91    103    115     1  0.0000000  0.6508444  3
     93     91    103    104     1  0.0000000  0.6508444  3
     93     91    103    105     1  0.0000000  0.6508444  3
     94     90     97     98     1  0.0000000  0.6508444  3
     94     90     97     99     1  0.0000000  0.6508444  3
     94    106    112    113     1  0.0000000  0.6508444  3
     94    106    112    114     1  0.0000000  0.6508444  3
     95     94     90     97     1  0.0000000  0.6508444  3
     95     94     90    119     1  0.0000000  0.6508444  3
     95     94    106    112     1  0.0000000  0.6508444  3
     95     94    106    107     1  0.0000000  0.6508444  3
     95     94    106    108     1  0.0000000  0.6508444  3
     96     94     90     97     1  0.0000000  0.6508444  3
     96     94     90    119     1  0.0000000  0.6508444  3
     96     94    106    112     1  0.0000000  0.6508444  3
     96     94    106    107     1  0.0000000  0.6508444  3
     96     94    106    108     1  0.0000000  0.6508444  3
     97    100    109    110     1  0.0000000  0.6508444  3
     97    100    109    111     1  0.0000000  0.6508444  3
     98     97     90    119     1  0.0000000  0.6508444  3
     98     97    100    109     1  0.0000000  0.6508444  3
     98     97    100    101     1  0.0000000  0.6508444  3
     98     97    100    102     1  0.0000000  0.6508444  3
     99     97     90    119     1  0.0000000  0.6508444  3
     99     97    100    109     1  0.0000000  0.6508444  3
     99     97    100    101     1  0.0000000  0.6508444  3
     99     97    100    102     1  0.0000000  0.6508444  3
    100     97     90    119     1  0.0000000  0.6508444  3
    101    100    109    118     1  0.0000000  1.0460000  1
    101    100    109    118     1  0.0000000  0.0000000  3
    101    100    109    110     1  0.0000000  0.6508444  3
    101    100    109    111     1  0.0000000  0.6508444  3
    102    100    109    118     1  0.0000000  1.0460000  1
    102    100    109    118     1  0.0000000  0.0000000  3
    102    100    109    110     1  0.0000000  0.6508444  3
    102    100    109    111     1  0.0000000  0.6508444  3
    103     91     90    119     1  0.0000000  0.6508444  3
    104    103    115    298     1  0.0000000  1.0460000  1
    104    103    115    298     1  0.0000000  0.0000000  3
    104    103    115    116     1  0.0000000  0.6508444  3
    104    103    115    117     1  0.0000000  0.6508444  3
    105    103    115    298     1  0.0000000  1.0460000  1
    105    103    115    298     1  0.0000000  0.0000000  3
    105    103    115    116     1  0.0000000  0.6508444  3
    105    103    115    117     1  0.0000000  0.6508444  3
    106     94     90    119     1  0.0000000  0.6508444  3
    107    106    112    268     1  0.0000000  1.0460000  1
    107    106    112    268     1  0.0000000  0.0000000  3
    107    106    112    113     1  0.0000000  0.6508444  3
    107    106    112    114     1  0.0000000  0.6508444  3
    108    106    112    268     1  0.0000000  1.0460000  1
    108    106    112    268     1  0.0000000  0.0000000  3
    108    106    112    113     1  0.0000000  0.6508444  3
    108    106    112    114     1  0.0000000  0.6508444  3
    112    268    259    260     1  0.0000000  1.6038667  3
    112    268    259    261     1  0.0000000  1.6038667  3
    113    112    268    259     1  0.0000000  1.6038667  3
    114    112    268    259     1  0.0000000  1.6038667  3
    115    298    289    290     1  0.0000000  1.6038667  3
    115    298    289    291     1  0.0000000  1.6038667  3
    116    115    298    289     1  0.0000000  1.6038667  3
    117    115    298    289     1  0.0000000  1.6038667  3
    120    121    133    134     1  0.0000000  0.6508444  3
    120    121    133    135     1  0.0000000  0.6508444  3
    120    124    136    137     1  0.0000000  0.6508444  3
    120    124    136    138     1  0.0000000  0.6508444  3
    120    127    130    131     1  0.0000000  0.6508444  3
    120    127    130    132     1  0.0000000  0.6508444  3
    121    120    124    125     1  0.0000000  0.6508444  3
    121    120    124    126     1  0.0000000  0.6508444  3
    121    120    127    128     1  0.0000000  0.6508444  3
    121    120    127    129     1  0.0000000  0.6508444  3
    121    133    145    146     1  0.0000000  0.6508444  3
    121    133    145    147     1  0.0000000  0.6508444  3
    122    121    120    124     1  0.0000000  0.6508444  3
    122    121    120    127     1  0.0000000  0.6508444  3
    122    121    120    149     1  0.0000000  0.6508444  3
    122    121    133    145     1  0.0000000  0.6508444  3
    122    121    133    134     1  0.0000000  0.6508444  3
    122    121    133    135     1  0.0000000  0.6508444  3
    123    121    120    124     1  0.0000000  0.6508444  3
    123    121    120    127     1  0.0000000  0.6508444  3
    123    121    120    149     1  0.0000000  0.6508444  3
    123    121    133    145     1  0.0000000  0.6508444  3
    123    121    133    134     1  0.0000000  0.6508444  3
    123    121    133    135     1  0.0000000  0.6508444  3
    124    120    127    128     1  0.0000000  0.6508444  3
    124    120    127    129     1  0.0000000  0.6508444  3
    124    136    142    143     1  0.0000000  0.6508444  3
    124    136    142    144     1  0.0000000  0.6508444  3
    125    124    120    127     1  0.0000000  0.6508444  3
    125    124    120    149     1  0.0000000  0.6508444  3
    125    124    136    142     1  0.0000000  0.6508444  3
    125    124    136    137     1  0.0000000  0.6508444  3
    125    124    136    138     1  0.0000000  0.6508444  3
    126    124    120    127     1  0.0000000  0.6508444  3
    126    124    120    149     1  0.0000000  0.6508444  3
    126    124    136    142     1  0.0000000  0.6508444  3
    126    124    136    137     1  0.0000000  0.6508444  3
    126    124    136    138     1  0.0000000  0.6508444  3
    127    130    139    140     1  0.0000000  0.6508444  3
    127    130    139    141     1  0.0000000  0.6508444  3
    128    127    120    149     1  0.0000000  0.6508444  3
    128    127    130    139     1  0.0000000  0.6508444  3
    128    127    130    131     1  0.0000000  0.6508444  3
    128    127    130    132     1  0.0000000  0.6508444  3
    129    127    120    149     1  0.0000000  0.6508444  3
    129    127    130    139     1  0.0000000  0.6508444  3
    129    127    130    131     1  0.0000000  0.6508444  3
    129    127    130    132     1  0.0000000  0.6508444  3
    130    127    120    149     1  0.0000000  0.6508444  3
    131    130    139    148     1  0.0000000  1.0460000  1
    131    130    139    148     1  0.0000000  0.0000000  3
    131    130    139    140     1  0.0000000  0.6508444  3
    131    130    139    141     1  0.0000000  0.6508444  3
    132    130    139    148     1  0.0000000  1.0460000  1
    132    130    139    148     1  0.0000000  0.0000000  3
    132    130    139    140     1  0.0000000  0.6508444  3
    132    130    139    141     1  0.0000000  0.6508444  3
    133    121    120    149     1  0.0000000  0.6508444  3
    134    133    145    358     1  0.0000000  1.0460000  1
    134    133    145    358     1  0.0000000  0.0000000  3
    134    133    145    146     1  0.0000000  0.6508444  3
    134    133    145    147     1  0.0000000  0.6508444  3
    135    133    145    358     1  0.0000000  1.0460000  1
    135    133    145    358     1  0.0000000  0.0000000  3
    135    133    145    146     1  0.0000000  0.6508444  3
    135    133    145    147     1  0.0000000  0.6508444  3
    136    124    120    149     1  0.0000000  0.6508444  3
    137    136    142    328     1  0.0000000  1.0460000  1
    137    136    142    328     1  0.0000000  0.0000000  3
    137    136    142    143     1  0.0000000  0.6508444  3
    137    136    142    144     1  0.0000000  0.6508444  3
    138    136    142    328     1  0.0000000  1.0460000  1
    138    136    142    328     1  0.0000000  0.0000000  3
    138    136    142    143     1  0.0000000  0.6508444  3
    138    136    142    144     1  0.0000000  0.6508444  3
    142    328    319    320     1  0.0000000  1.6038667  3
    142    328    319    321     1  0.0000000  1.6038667  3
    143    142    328    319     1  0.0000000  1.6038667  3
    144    142    328    319     1  0.0000000  1.6038667  3
    145    358    349    350     1  0.0000000  1.6038667  3
    145    358    349    351     1  0.0000000  1.6038667  3
    146    145    358    349     1  0.0000000  1.6038667  3
    147    145    358    349     1  0.0000000  1.6038667  3
    150    151    163    164     1  0.0000000  0.6508444  3
    150    151    163    165     1  0.0000000  0.6508444  3
    150    154    166    167     1  0.0000000  0.6508444  3
    150    154    166    168     1  0.0000000  0.6508444  3
    150    157    160    161     1  0.0000000  0.6508444  3
    150    157    160    162     1  0.0000000  0.6508444  3
    151    150    154    155     1  0.0000000  0.6508444  3
    151    150    154    156     1  0.0000000  0.6508444  3
    151    150    157    158     1  0.0000000  0.6508444  3
    151    150    157    159     1  0.0000000  0.6508444  3
    151    163    175    176     1  0.0000000  0.6508444  3
    151    163    175    177     1  0.0000000  0.6508444  3
    152    151    150    154     1  0.0000000  0.6508444  3
    152    151    150    157     1  0.0000000  0.6508444  3
    152    151    150    179     1  0.0000000  0.6508444  3
    152    151    163    175     1  0.0000000  0.6508444  3
    152    151    163    164     1  0.0000000  0.6508444  3
    152    151    163    165     1  0.0000000  0.6508444  3
    153    151    150    154     1  0.0000000  0.6508444  3
    153    151    150    157     1  0.0000000  0.6508444  3
    153    151    150    179     1  0.0000000  0.6508444  3
    153    151    163    175     1  0.0000000  0.6508444  3
    153    151    163    164     1  0.0000000  0.6508444  3
    153    151    163    165     1  0.0000000  0.6508444  3
    154    150    157    158     1  0.0000000  0.6508444  3
    154    150    157    159     1  0.0000000  0.6508444  3
    154    166    172    173     1  0.0000000  0.6508444  3
    154    166    172    174     1  0.0000000  0.6508444  3
    155    154    150    157     1  0.0000000  0.6508444  3
    155    154    150    179     1  0.0000000  0.6508444  3
    155    154    166    172     1  0.0000000  0.6508444  3
    155    154    166    167     1  0.0000000  0.6508444  3
    155    154    166    168     1  0.0000000  0.6508444  3
    156    154    150    157     1  0.0000000  0.6508444  3
    156    154    150    179     1  0.0000000  0.6508444  3
    156    154    166    172     1  0.0000000  0.6508444  3
    156    154    166    167     1  0.0000000  0.6508444  3
    156    154    166    168     1  0.0000000  0.6508444  3
    157    160    169    170     1  0.0000000  0.6508444  3
    157    160    169    171     1  0.0000000  0.6508444  3
    158    157    150    179     1  0.0000000  0.6508444  3
    158    157    160    169     1  0.0000000  0.6508444  3
    158    157    160    161     1  0.0000000  0.6508444  3
    158    157    160    162     1  0.0000000  0.6508444  3
    159    157    150    179     1  0.0000000  0.6508444  3
    159    157    160    169     1  0.0000000  0.6508444  3
    159    157    160    161     1  0.0000000  0.6508444  3
    159    157    160    162     1  0.0000000  0.6508444  3
    160    157    150    179     1  0.0000000  0.6508444  3
    161    160    169    178     1  0.0000000  1.0460000  1
    161    160    169    178     1  0.0000000  0.0000000  3
    161    160    169    170     1  0.0000000  0.6508444  3
    161    160    169    171     1  0.0000000  0.6508444  3
    162    160    169    178     1  0.0000000  1.0460000  1
    162    160    169    178     1  0.0000000  0.0000000  3
    162    160    169    170     1  0.0000000  0.6508444  3
    162    160    169    171     1  0.0000000  0.6508444  3
    163    151    150    179     1  0.0000000  0.6508444  3
    164    163    175    418     1  0.0000000  1.0460000  1
    164    163    175    418     1  0.0000000  0.0000000  3
    164    163    175    176     1  0.0000000  0.6508444  3
    164    163    175    177     1  0.0000000  0.6508444  3
    165    163    175    418     1  0.0000000  1.0460000  1
    165    163    175    418     1  0.0000000  0.0000000  3
    165    163    175    176     1  0.0000000  0.6508444  3
    165    163    175    177     1  0.0000000  0.6508444  3
    166    154    150    179     1  0.0000000  0.6508444  3
    167    166    172    388     1  0.0000000  1.0460000  1
    167    166    172    388     1  0.0000000  0.0000000  3
    167    166    172    173     1  0.0000000  0.6508444  3
    167    166    172    174     1  0.0000000  0.6508444  3
    168    166    172    388     1  0.0000000  1.0460000  1
    168    166    172    388     1  0.0000000  0.0000000  3
    168    166    172    173     1  0.0000000  0.6508444  3
    168    166    172    174     1  0.0000000  0.6508444  3
    172    388    379    380     1  0.0000000  1.6038667  3
    172    388    379    381     1  0.0000000  1.6038667  3
    173    172    388    379     1  0.0000000  1.6038667  3
    174    172    388    379     1  0.0000000  1.6038667  3
    175    418    409    410     1  0.0000000  1.6038667  3
    175    418    409    411     1  0.0000000  1.6038667  3
    176    175    418    409     1  0.0000000  1.6038667  3
    177    175    418    409     1  0.0000000  1.6038667  3
    180    181    193    194     1  0.0000000  0.6508444  3
    180    181    193    195     1  0.0000000  0.6508444  3
    180    184    196    197     1  0.0000000  0.6508444  3
    180    184    196    198     1  0.0000000  0.6508444  3
    180    187    190    191     1  0.0000000  0.6508444  3
    180    187    190    192     1  0.0000000  0.6508444  3
    181    180    184    185     1  0.0000000  0.6508444  3
    181    180    184    186     1  0.0000000  0.6508444  3
    181    180    187    188     1  0.0000000  0.6508444  3
    181    180    187    189     1  0.0000000  0.6508444  3
    181    193    205    206     1  0.0000000  0.6508444  3
    181    193    205    207     1  0.0000000  0.6508444  3
    182    181    180    184     1  0.0000000  0.6508444  3
    182    181    180    187     1  0.0000000  0.6508444  3
    182    181    180    209     1  0.0000000  0.6508444  3
    182    181    193    205     1  0.0000000  0.6508444  3
    182    181    193    194     1  0.0000000  0.6508444  3
    182    181    193    195     1  0.0000000  0.6508444  3
    183    181    180    184     1  0.0000000  0.6508444  3
    183    181    180    187     1  0.0000000  0.6508444  3
    183    181    180    209     1  0.0000000  0.6508444  3
    183    181    193    205     1  0.0000000  0.6508444  3
    183    181    193    194     1  0.0000000  0.6508444  3
    183    181    193    195     1  0.0000000  0.6508444  3
    184    180    187    188     1  0.0000000  0.6508444  3
    184    180    187    189     1  0.0000000  0.6508444  3
    184    196    202    203     1  0.0000000  0.6508444  3
    184    196    202    204     1  0.0000000  0.6508444  3
    185    184    180    187     1  0.0000000  0.6508444  3
    185    184    180    209     1  0.0000000  0.6508444  3
    185    184    196    202     1  0.0000000  0.6508444  3
    185    184    196    197     1  0.0000000  0.6508444  3
    185    184    196    198     1  0.0000000  0.6508444  3
    186    184    180    187     1  0.0000000  0.6508444  3
    186    184    180    209     1  0.0000000  0.6508444  3
    186    184    196    202     1  0.0000000  0.6508444  3
    186    184    196    197     1  0.0000000  0.6508444  3
    186    184    196    198     1  0.0000000  0.6508444  3
    187    190    199    200     1  0.0000000  0.6508444  3
    187    190    199    201     1  0.0000000  0.6508444  3
    188    187    180    209     1  0.0000000  0.6508444  3
    188    187    190    199     1  0.0000000  0.6508444  3
    188    187    190    191     1  0.0000000  0.6508444  3
    188    187    190    192     1  0.0000000  0.6508444  3
    189    187    180    209     1  0.0000000  0.6508444  3
    189    187    190    199     1  0.0000000  0.6508444  3
    189    187    190    191     1  0.0000000  0.6508444  3
    189    187    190    192     1  0.0000000  0.6508444  3
    190    187    180    209     1  0.0000000  0.6508444  3
    191    190    199    208     1  0.0000000  1.0460000  1
    191    190    199    208     1  0.0000000  0.0000000  3
    191    190    199    200     1  0.0000000  0.6508444  3
    191    190    199    201     1  0.0000000  0.6508444  3
    192    190    199    208     1  0.0000000  1.0460000  1
    192    190    199    208     1  0.0000000  0.0000000  3
    192    190    199    200     1  0.0000000  0.6508444  3
    192    190    199    201     1  0.0000000  0.6508444  3
    193    181    180    209     1  0.0000000  0.6508444  3
    194    193    205    478     1  0.0000000  1.0460000  1
    194    193    205    478     1  0.0000000  0.0000000  3
    194    193    205    206     1  0.0000000  0.6508444  3
    194    193    205    207     1  0.0000000  0.6508444  3
    195    193    205    478     1  0.0000000  1.0460000  1
    195    193    205    478     1  0.0000000  0.0000000  3
    195    193    205    206     1  0.0000000  0.6508444  3
    195    193    205    207     1  0.0000000  0.6508444  3
    196    184    180    209     1  0.0000000  0.6508444  3
    197    196    202    448     1  0.0000000  1.0460000  1
    197    196    202    448     1  0.0000000  0.0000000  3
    197    196    202    203     1  0.0000000  0.6508444  3
    197    196    202    204     1  0.0000000  0.6508444  3
    198    196    202    448     1  0.0000000  1.0460000  1
    198    196    202    448     1  0.0000000  0.0000000  3
    198    196    202    203     1  0.0000000  0.6508444  3
    198    196    202    204     1  0.0000000  0.6508444  3
    202    448    439    440     1  0.0000000  1.6038667  3
    202    448    439    441     1  0.0000000  1.6038667  3
    203    202    448    439     1  0.0000000  1.6038667  3
    204    202    448    439     1  0.0000000  1.6038667  3
    205    478    469    470     1  0.0000000  1.6038667  3
    205    478    469    471     1  0.0000000  1.6038667  3
    206    205    478    469     1  0.0000000  1.6038667  3
    207    205    478    469     1  0.0000000  1.6038667  3
    210    211    223    224     1  0.0000000  0.6508444  3
    210    211    223    225     1  0.0000000  0.6508444  3
    210    214    226    227     1  0.0000000  0.6508444  3
    210    214    226    228     1  0.0000000  0.6508444  3
    210    217    220    221     1  0.0000000  0.6508444  3
    210    217    220    222     1  0.0000000  0.6508444  3
    211    210    214    215     1  0.0000000  0.6508444  3
    211    210    214    216     1  0.0000000  0.6508444  3
    211    210    217    218     1  0.0000000  0.6508444  3
    211    210    217    219     1  0.0000000  0.6508444  3
    211    223    235    236     1  0.0000000  0.6508444  3
    211    223    235    237     1  0.0000000  0.6508444  3
    212    211    210    214     1  0.0000000  0.6508444  3
    212    211    210    217     1  0.0000000  0.6508444  3
    212    211    210    239     1  0.0000000  0.6508444  3
    212    211    223    235     1  0.0000000  0.6508444  3
    212    211    223    224     1  0.0000000  0.6508444  3
    212    211    223    225     1  0.0000000  0.6508444  3
    213    211    210    214     1  0.0000000  0.6508444  3
    213    211    210    217     1  0.0000000  0.6508444  3
    213    211    210    239     1  0.0000000  0.6508444  3
    213    211    223    235     1  0.0000000  0.6508444  3
    213    211    223    224     1  0.0000000  0.6508444  3
    213    211    223    225     1  0.0000000  0.6508444  3
    214    210    217    218     1  0.0000000  0.6508444  3
    214    210    217    219     1  0.0000000  0.6508444  3
    214    226    232    233     1  0.0000000  0.6508444  3
    214    226    232    234     1  0.0000000  0.6508444  3
    215    214    210    217     1  0.0000000  0.6508444  3
    215    214    210    239     1  0.0000000  0.6508444  3
    215    214    226    232     1  0.0000000  0.6508444  3
    215    214    226    227     1  0.0000000  0.6508444  3
    215    214    226    228     1  0.0000000  0.6508444  3
    216    214    210    217     1  0.0000000  0.6508444  3
    216    214    210    239     1  0.0000000  0.6508444  3
    216    214    226    232     1  0.0000000  0.6508444  3
    216    214    226    227     1  0.0000000  0.6508444  3
    216    214    226    228     1  0.0000000  0.6508444  3
    217    220    229    230     1  0.0000000  0.6508444  3
    217    220    229    231     1  0.0000000  0.6508444  3
    218    217    210    239     1  0.0000000  0.6508444  3
    218    217    220    229     1  0.0000000  0.6508444  3
    218    217    220    221     1  0.0000000  0.6508444  3
    218    217    220    222     1  0.0000000  0.6508444  3
    219    217    210    239     1  0.0000000  0.6508444  3
    219    217    220    229     1  0.0000000  0.6508444  3
    219    217    220    221     1  0.0000000  0.6508444  3
    219    217    220    222     1  0.0000000  0.6508444  3
    220    217    210    239     1  0.0000000  0.6508444  3
    221    220    229    238     1  0.0000000  1.0460000  1
    221    220    229    238     1  0.0000000  0.0000000  3
    221    220    229    230     1  0.0000000  0.6508444  3
    221    220    229    231     1  0.0000000  0.6508444  3
    222    220    229    238     1  0.0000000  1.0460000  1
    222    220    229    238     1  0.0000000  0.0000000  3
    222    220    229    230     1  0.0000000  0.6508444  3
    222    220    229    231     1  0.0000000  0.6508444  3
    223    211    210    239     1  0.0000000  0.6508444  3
    224    223    235    538     1  0.0000000  1.0460000  1
    224    223    235    538     1  0.0000000  0.0000000  3
    224    223    235    236     1  0.0000000  0.6508444  3
    224    223    235    237     1  0.0000000  0.6508444  3
    225    223    235    538     1  0.0000000  1.0460000  1
    225    223    235    538     1  0.0000000  0.0000000  3
    225    223    235    236     1  0.0000000  0.6508444  3
    225    223    235    237     1  0.0000000  0.6508444  3
    226    214    210    239     1  0.0000000  0.6508444  3
    227    226    232    508     1  0.0000000  1.0460000  1
    227    226    232    508     1  0.0000000  0.0000000  3
    227    226    232    233     1  0.0000000  0.6508444  3
    227    226    232    234     1  0.0000000  0.6508444  3
    228    226    232    508     1  0.0000000  1.0460000  1
    228    226    232    508     1  0.0000000  0.0000000  3
    228    226    232    233     1  0.0000000  0.6508444  3
    228    226    232    234     1  0.0000000  0.6508444  3
    232    508    499    500     1  0.0000000  1.6038667  3
    232    508    499    501     1  0.0000000  1.6038667  3
    233    232    508    499     1  0.0000000  1.6038667  3
    234    232    508    499     1  0.0000000  1.6038667  3
    235    538    529    530     1  0.0000000  1.6038667  3
    235    538    529    531     1  0.0000000  1.6038667  3
    236    235    538    529     1  0.0000000  1.6038667  3
    237    235    538    529     1  0.0000000  1.6038667  3
    240    241    253    254     1  0.0000000  0.6508444  3
    240    241    253    255     1  0.0000000  0.6508444  3
    240    244    256    257     1  0.0000000  0.6508444  3
    240    244    256    258     1  0.0000000  0.6508444  3
    240    247    250    251     1  0.0000000  0.6508444  3
    240    247    250    252     1  0.0000000  0.6508444  3
    241    240    244    245     1  0.0000000  0.6508444  3
    241    240    244    246     1  0.0000000  0.6508444  3
    241    240    247    248     1  0.0000000  0.6508444  3
    241    240    247    249     1  0.0000000  0.6508444  3
    241    253    265    266     1  0.0000000  0.6508444  3
    241    253    265    267     1  0.0000000  0.6508444  3
    242    241    240    244     1  0.0000000  0.6508444  3
    242    241    240    247     1  0.0000000  0.6508444  3
    242    241    240    269     1  0.0000000  0.6508444  3
    242    241    253    265     1  0.0000000  0.6508444  3
    242    241    253    254     1  0.0000000  0.6508444  3
    242    241    253    255     1  0.0000000  0.6508444  3
    243    241    240    244     1  0.0000000  0.6508444  3
    243    241    240    247     1  0.0000000  0.6508444  3
    243    241    240    269     1  0.0000000  0.6508444  3
    243    241    253    265     1  0.0000000  0.6508444  3
    243    241    253    254     1  0.0000000  0.6508444  3
    243    241    253    255     1  0.0000000  0.6508444  3
    244    240    247    248     1  0.0000000  0.6508444  3
    244    240    247    249     1  0.0000000  0.6508444  3
    244    256    262    263     1  0.0000000  0.6508444  3
    244    256    262    264     1  0.0000000  0.6508444  3
    245    244    240    247     1  0.0000000  0.6508444  3
    245    244    240    269     1  0.0000000  0.6508444  3
    245    244    256    262     1  0.0000000  0.6508444  3
    245    244    256    257     1  0.0000000  0.6508444  3
    245    244    256    258     1  0.0000000  0.6508444  3
    246    244    240    247     1  0.0000000  0.6508444  3
    246    244    240    269     1  0.0000000  0.6508444  3
    246    244    256    262     1  0.0000000  0.6508444  3
    246    244    256    257     1  0.0000000  0.6508444  3
    246    244    256    258     1  0.0000000  0.6508444  3
    247    250    259    260     1  0.0000000  0.6508444  3
    247    250    259    261     1  0.0000000  0.6508444  3
    248    247    240    269     1  0.0000000  0.6508444  3
    248    247    250    259     1  0.0000000  0.6508444  3
    248    247    250    251     1  0.0000000  0.6508444  3
    248    247    250    252     1  0.0000000  0.6508444  3
    249    247    240    269     1  0.0000000  0.6508444  3
    249    247    250    259     1  0.0000000  0.6508444  3
    249    247    250    251     1  0.0000000  0.6508444  3
    249    247    250    252     1  0.0000000  0.6508444  3
    250    247    240    269     1  0.0000000  0.6508444  3
    251    250    259    268     1  0.0000000  1.0460000  1
    251    250    259    268     1  0.0000000  0.0000000  3
    251    250    259    260     1  0.0000000  0.6508444  3
    251    250    259    261     1  0.0000000  0.6508444  3
    252    250    259    268     1  0.0000000  1.0460000  1
    252    250    259    268     1  0.0000000  0.0000000  3
    252    250    259    260     1  0.0000000  0.6508444  3
    252    250    259    261     1  0.0000000  0.6508444  3
    253    241    240    269     1  0.0000000  0.6508444  3
    254    253    265    598     1  0.0000000  1.0460000  1
    254    253    265    598     1  0.0000000  0.0000000  3
    254    253    265    266     1  0.0000000  0.6508444  3
    254    253    265    267     1  0.0000000  0.6508444  3
    255    253    265    598     1  0.0000000  1.0460000  1
    255    253    265    598     1  0.0000000  0.0000000  3
    255    253    265    266     1  0.0000000  0.6508444  3
    255    253    265    267     1  0.0000000  0.6508444  3
    256    244    240    269     1  0.0000000  0.6508444  3
    257    256    262    568     1  0.0000000  1.0460000  1
    257    256    262    568     1  0.0000000  0.0000000  3
    257    256    262    263     1  0.0000000  0.6508444  3
    257    256    262    264     1  0.0000000  0.6508444  3
    258    256    262    568     1  0.0000000  1.0460000  1
    258    256    262    568     1  0.0000000  0.0000000  3
    258    256    262    263     1  0.0000000  0.6508444  3
    258    256    262    264     1  0.0000000  0.6508444  3
    262    568    559    560     1  0.0000000  1.6038667  3
    262    568    559    561     1  0.0000000  1.6038667  3
    263    262    568    559     1  0.0000000  1.6038667  3
    264    262    568    559     1  0.0000000  1.6038667  3
    265    598    589    590     1  0.0000000  1.6038667  3
    265    598    589    591     1  0.0000000  1.6038667  3
    266    265    598    589     1  0.0000000  1.6038667  3
    267    265    598    589     1  0.0000000  1.6038667  3
    270    271    283    284     1  0.0000000  0.6508444  3
    270    271    283    285     1  0.0000000  0.6508444  3
    270    274    286    287     1  0.0000000  0.6508444  3
    270    274    286    288     1  0.0000000  0.6508444  3
    270    277    280    281     1  0.0000000  0.6508444  3
    270    277    280    282     1  0.0000000  0.6508444  3
    271    270    274    275     1  0.0000000  0.6508444  3
    271    270    274    276     1  0.0000000  0.6508444  3
    271    270    277    278     1  0.0000000  0.6508444  3
    271    270    277    279     1  0.0000000  0.6508444  3
    271    283    295    296     1  0.0000000  0.6508444  3
    271    283    295    297     1  0.0000000  0.6508444  3
    272    271    270    274     1  0.0000000  0.6508444  3
    272    271    270    277     1  0.0000000  0.6508444  3
    272    271    270    299     1  0.0000000  0.6508444  3
    272    271    283    295     1  0.0000000  0.6508444  3
    272    271    283    284     1  0.0000000  0.6508444  3
    272    271    283    285     1  0.0000000  0.6508444  3
    273    271    270    274     1  0.0000000  0.6508444  3
    273    271    270    277     1  0.0000000  0.6508444  3
    273    271    270    299     1  0.0000000  0.6508444  3
    273    271    283    295     1  0.0000000  0.6508444  3
    273    271    283    284     1  0.0000000  0.6508444  3
    273    271    283    285     1  0.0000000  0.6508444  3
    274    270    277    278     1  0.0000000  0.6508444  3
    274    270    277    279     1  0.0000000  0.6508444  3
    274    286    292    293     1  0.0000000  0.6508444  3
    274    286    292    294     1  0.0000000  0.6508444  3
    275    274    270    277     1  0.0000000  0.6508444  3
    275    274    270    299     1  0.0000000  0.6508444  3
    275    274    286    292     1  0.0000000  0.6508444  3
    275    274    286    287     1  0.0000000  0.6508444  3
    275    274    286    288     1  0.0000000  0.6508444  3
    276    274    270    277     1  0.0000000  0.6508444  3
    276    274    270    299     1  0.0000000  0.6508444  3
    276    274    286    292     1  0.0000000  0.6508444  3
    276    274    286    287     1  0.0000000  0.6508444  3
    276    274    286    288     1  0.0000000  0.6508444  3
    277    280    289    290     1  0.0000000  0.6508444  3
    277    280    289    291     1  0.0000000  0.6508444  3
    278    277    270    299     1  0.0000000  0.6508444  3
    278    277    280    289     1  0.0000000  0.6508444  3
    278    277    280    281     1  0.0000000  0.6508444  3
    278    277    280    282     1  0.0000000  0.6508444  3
    279    277    270    299     1  0.0000000  0.6508444  3
    279    277    280    289     1  0.0000000  0.6508444  3
    279    277    280    281     1  0.0000000  0.6508444  3
    279    277    280    282     1  0.0000000  0.6508444  3
    280    277    270    299     1  0.0000000  0.6508444  3
    281    280    289    298     1  0.0000000  1.0460000  1
    281    280    289    298     1  0.0000000  0.0000000  3
    281    280    289    290     1  0.0000000  0.6508444  3
    281    280    289    291     1  0.0000000  0.6508444  3
    282    280    289    298     1  0.0000000  1.0460000  1
    282    280    289    298     1  0.0000000  0.0000000  3
    282    280    289    290     1  0.0000000  0.6508444  3
    282    280    289    291     1  0.0000000  0.6508444  3
    283    271    270    299     1  0.0000000  0.6508444  3
    284    283    295    658     1  0.0000000  1.0460000  1
    284    283    295    658     1  0.0000000  0.0000000  3
    284    283    295    296     1  0.0000000  0.6508444  3
    284    283    295    297     1  0.0000000  0.6508444  3
    285    283    295    658     1  0.0000000  1.0460000  1
    285    283    295    658     1  0.0000000  0.0000000  3
    285    283    295    296     1  0.0000000  0.6508444  3
    285    283    295    297     1  0.0000000  0.6508444  3
    286    274    270    299     1  0.0000000  0.6508444  3
    287    286    292    628     1  0.0000000  1.0460000  1
    287    286    292    628     1  0.0000000  0.0000000  3
    287    286    292    293     1  0.0000000  0.6508444  3
    287    286    292    294     1  0.0000000  0.6508444  3
    288    286    292    628     1  0.0000000  1.0460000  1
    288    286    292    628     1  0.0000000  0.0000000  3
    288    286    292    293     1  0.0000000  0.6508444  3
    288    286    292    294     1  0.0000000  0.6508444  3
    292    628    619    620     1  0.0000000  1.6038667  3
    292    628    619    621     1  0.0000000  1.6038667  3
    293    292    628    619     1  0.0000000  1.6038667  3
    294    292    628    619     1  0.0000000  1.6038667  3
    295    658    649    650     1  0.0000000  1.6038667  3
    295    658    649    651     1  0.0000000  1.6038667  3
    296    295    658    649     1  0.0000000  1.6038667  3
    297    295    658    649     1  0.0000000  1.6038667  3
    300    301    313    314     1  0.0000000  0.6508444  3
    300    301    313    315     1  0.0000000  0.6508444  3
    300    304    316    317     1  0.0000000  0.6508444  3
    300    304    316    318     1  0.0000000  0.6508444  3
    300    307    310    311     1  0.0000000  0.6508444  3
    300    307    310    312     1  0.0000000  0.6508444  3
    301    300    304    305     1  0.0000000  0.6508444  3
    301    300    304    306     1  0.0000000  0.6508444  3
    301    300    307    308     1  0.0000000  0.6508444  3
    301    300    307    309     1  0.0000000  0.6508444  3
    301    313    325    326     1  0.0000000  0.6508444  3
    301    313    325    327     1  0.0000000  0.6508444  3
    302    301    300    304     1  0.0000000  0.6508444  3
    302    301    300    307     1  0.0000000  0.6508444  3
    302    301    300    329     1  0.0000000  0.6508444  3
    302    301    313    325     1  0.0000000  0.6508444  3
    302    301    313    314     1  0.0000000  0.6508444  3
    302    301    313    315     1  0.0000000  0.6508444  3
    303    301    300    304     1  0.0000000  0.6508444  3
    303    301    300    307     1  0.0000000  0.6508444  3
    303    301    300    329     1  0.0000000  0.6508444  3
    303    301    313    325     1  0.0000000  0.6508444  3
    303    301    313    314     1  0.0000000  0.6508444  3
    303    301    313    315     1  0.0000000  0.6508444  3
    304    300    307    308     1  0.0000000  0.6508444  3
    304    300    307    309     1  0.0000000  0.6508444  3
    304    316    322    323     1  0.0000000  0.6508444  3
    304    316    322    324     1  0.0000000  0.6508444  3
    305    304    300    307     1  0.0000000  0.6508444  3
    305    304    300    329     1  0.0000000  0.6508444  3
    305    304    316    322     1  0.0000000  0.6508444  3
    305    304    316    317     1  0.0000000  0.6508444  3
    305    304    316    318     1  0.0000000  0.6508444  3
    306    304    300    307     1  0.0000000  0.6508444  3
    306    304    300    329     1  0.0000000  0.6508444  3
    306    304    316    322     1  0.0000000  0.6508444  3
    306    304    316    317     1  0.0000000  0.6508444  3
    306    304    316    318     1  0.0000000  0.6508444  3
    307    310    319    320     1  0.0000000  0.6508444  3
    307    310    319    321     1  0.0000000  0.6508444  3
    308    307    300    329     1  0.0000000  0.6508444  3
    308    307    310    319     1  0.0000000  0.6508444  3
    308    307    310    311     1  0.0000000  0.6508444  3
    308    307    310    312     1  0.0000000  0.6508444  3
    309    307    300    329     1  0.0000000  0.6508444  3
    309    307    310    319     1  0.0000000  0.6508444  3
    309    307    310    311     1  0.0000000  0.6508444  3
    309    307    310    312     1  0.0000000  0.6508444  3
    310    307    300    329     1  0.0000000  0.6508444  3
    311    310    319    328     1  0.0000000  1.0460000  1
    311    310    319    328     1  0.0000000  0.0000000  3
    311    310    319    320     1  0.0000000  0.6508444  3
    311    310    319    321     1  0.0000000  0.6508444  3
    312    310    319    328     1  0.0000000  1.0460000  1
    312    310    319    328     1  0.0000000  0.0000000  3
    312    310    319    320     1  0.0000000  0.6508444  3
    312    310    319    321     1  0.0000000  0.6508444  3
    313    301    300    329     1  0.0000000  0.6508444  3
    314    313    325    718     1  0.0000000  1.0460000  1
    314    313    325    718     1  0.0000000  0.0000000  3
    314    313    325    326     1  0.0000000  0.6508444  3
    314    313    325    327     1  0.0000000  0.6508444  3
    315    313    325    718     1  0.0000000  1.0460000  1
    315    313    325    718     1  0.0000000  0.0000000  3
    315    313    325    326     1  0.0000000  0.6508444  3
    315    313    325    327     1  0.0000000  0.6508444  3
    316    304    300    329     1  0.0000000  0.6508444  3
    317    316    322    688     1  0.0000000  1.0460000  1
    317    316    322    688     1  0.0000000  0.0000000  3
    317    316    322    323     1  0.0000000  0.6508444  3
    317    316    322    324     1  0.0000000  0.6508444  3
    318    316    322    688     1  0.0000000  1.0460000  1
    318    316    322    688     1  0.0000000  0.0000000  3
    318    316    322    323     1  0.0000000  0.6508444  3
    318    316    322    324     1  0.0000000  0.6508444  3
    322    688    679    680     1  0.0000000  1.6038667  3
    322    688    679    681     1  0.0000000  1.6038667  3
    323    322    688    679     1  0.0000000  1.6038667  3
    324    322    688    679     1  0.0000000  1.6038667  3
    325    718    709    710     1  0.0000000  1.6038667  3
    325    718    709    711     1  0.0000000  1.6038667  3
    326    325    718    709     1  0.0000000  1.6038667  3
    327    325    718    709     1  0.0000000  1.6038667  3
    330    331    343    344     1  0.0000000  0.6508444  3
    330    331    343    345     1  0.0000000  0.6508444  3
    330    334    346    347     1  0.0000000  0.6508444  3
    330    334    346    348     1  0.0000000  0.6508444  3
    330    337    340    341     1  0.0000000  0.6508444  3
    330    337    340    342     1  0.0000000  0.6508444  3
    331    330    334    335     1  0.0000000  0.6508444  3
    331    330    334    336     1  0.0000000  0.6508444  3
    331    330    337    338     1  0.0000000  0.6508444  3
    331    330    337    339     1  0.0000000  0.6508444  3
    331    343    355    356     1  0.0000000  0.6508444  3
    331    343    355    357     1  0.0000000  0.6508444  3
    332    331    330    334     1  0.0000000  0.6508444  3
    332    331    330    337     1  0.0000000  0.6508444  3
    332    331    330    359     1  0.0000000  0.6508444  3
    332    331    343    355     1  0.0000000  0.6508444  3
    332    331    343    344     1  0.0000000  0.6508444  3
    332    331    343    345     1  0.0000000  0.6508444  3
    333    331    330    334     1  0.0000000  0.6508444  3
    333    331    330    337     1  0.0000000  0.6508444  3
    333    331    330    359     1  0.0000000  0.6508444  3
    333    331    343    355     1  0.0000000  0.6508444  3
    333    331    343    344     1  0.0000000  0.6508444  3
    333    331    343    345     1  0.0000000  0.6508444  3
    334    330    337    338     1  0.0000000  0.6508444  3
    334    330    337    339     1  0.0000000  0.6508444  3
    334    346    352    353     1  0.0000000  0.6508444  3
    334    346    352    354     1  0.0000000  0.6508444  3
    335    334    330    337     1  0.0000000  0.6508444  3
    335    334    330    359     1  0.0000000  0.6508444  3
    335    334    346    352     1  0.0000000  0.6508444  3
    335    334    346    347     1  0.0000000  0.6508444  3
    335    334    346    348     1  0.0000000  0.6508444  3
    336    334    330    337     1  0.0000000  0.6508444  3
    336    334    330    359     1  0.0000000  0.6508444  3
    336    334    346    352     1  0.0000000  0.6508444  3
    336    334    346    347     1  0.0000000  0.6508444  3
    336    334    346    348     1  0.0000000  0.6508444  3
    337    340    349    350     1  0.0000000  0.6508444  3
    337    340    349    351     1  0.0000000  0.6508444  3
    338    337    330    359     1  0.0000000  0.6508444  3
    338    337    340    349     1  0.0000000  0.6508444  3
    338    337    340    341     1  0.0000000  0.6508444  3
    338    337    340    342     1  0.0000000  0.6508444  3
    339    337    330    359     1  0.0000000  0.6508444  3
    339    337    340    349     1  0.0000000  0.6508444  3
    339    337    340    341     1  0.0000000  0.6508444  3
    339    337    340    342     1  0.0000000  0.6508444  3
    340    337    330    359     1  0.0000000  0.6508444  3
    341    340    349    358     1  0.0000000  1.0460000  1
    341    340    349    358     1  0.0000000  0.0000000  3
    341    340    349    350     1  0.0000000  0.6508444  3
    341    340    349    351     1  0.0000000  0.6508444  3
    342    340    349    358     1  0.0000000  1.0460000  1
    342    340    349    358     1  0.0000000  0.0000000  3
    342    340    349    350     1  0.0000000  0.6508444  3
    342    340    349    351     1  0.0000000  0.6508444  3
    343    331    330    359     1  0.0000000  0.6508444  3
    344    343    355    778     1  0.0000000  1.0460000  1
    344    343    355    778     1  0.0000000  0.0000000  3
    344    343    355    356     1  0.0000000  0.6508444  3
    344    343    355    357     1  0.0000000  0.6508444  3
    345    343    355    778     1  0.0000000  1.0460000  1
    345    343    355    778     1  0.0000000  0.0000000  3
    345    343    355    356     1  0.0000000  0.6508444  3
    345    343    355    357     1  0.0000000  0.6508444  3
    346    334    330    359     1  0.0000000  0.6508444  3
    347    346    352    748     1  0.0000000  1.0460000  1
    347    346    352    748     1  0.0000000  0.0000000  3
    347    346    352    353     1  0.0000000  0.6508444  3
    347    346    352    354     1  0.0000000  0.6508444  3
    348    346    352    748     1  0.0000000  1.0460000  1
    348    346    352    748     1  0.0000000  0.0000000  3
    348    346    352    353     1  0.0000000  0.6508444  3
    348    346    352    354     1  0.0000000  0.6508444  3
    352    748    739    740     1  0.0000000  1.6038667  3
    352    748    739    741     1  0.0000000  1.6038667  3
    353    352    748    739     1  0.0000000  1.6038667  3
    354    352    748    739     1  0.0000000  1.6038667  3
    355    778    769    770     1  0.0000000  1.6038667  3
    355    778    769    771     1  0.0000000  1.6038667  3
    356    355    778    769     1  0.0000000  1.6038667  3
    357    355    778    769     1  0.0000000  1.6038667  3
    360    361    373    374     1  0.0000000  0.6508444  3
    360    361    373    375     1  0.0000000  0.6508444  3
    360    364    376    377     1  0.0000000  0.6508444  3
    360    364    376    378     1  0.0000000  0.6508444  3
    360    367    370    371     1  0.0000000  0.6508444  3
    360    367    370    372     1  0.0000000  0.6508444  3
    361    360    364    365     1  0.0000000  0.6508444  3
    361    360    364    366     1  0.0000000  0.6508444  3
    361    360    367    368     1  0.0000000  0.6508444  3
    361    360    367    369     1  0.0000000  0.6508444  3
    361    373    385    386     1  0.0000000  0.6508444  3
    361    373    385    387     1  0.0000000  0.6508444  3
    362    361    360    364     1  0.0000000  0.6508444  3
    362    361    360    367     1  0.0000000  0.6508444  3
    362    361    360    389     1  0.0000000  0.6508444  3
    362    361    373    385     1  0.0000000  0.6508444  3
    362    361    373    374     1  0.0000000  0.6508444  3
    362    361    373    375     1  0.0000000  0.6508444  3
    363    361    360    364     1  0.0000000  0.6508444  3
    363    361    360    367     1  0.0000000  0.6508444  3
    363    361    360    389     1  0.0000000  0.6508444  3
    363    361    373    385     1  0.0000000  0.6508444  3
    363    361    373    374     1  0.0000000  0.6508444  3
    363    361    373    375     1  0.0000000  0.6508444  3
    364    360    367    368     1  0.0000000  0.6508444  3
    364    360    367    369     1  0.0000000  0.6508444  3
    364    376    382    383     1  0.0000000  0.6508444  3
    364    376    382    384     1  0.0000000  0.6508444  3
    365    364    360    367     1  0.0000000  0.6508444  3
    365    364    360    389     1  0.0000000  0.6508444  3
    365    364    376    382     1  0.0000000  0.6508444  3
    365    364    376    377     1  0.0000000  0.6508444  3
    365    364    376    378     1  0.0000000  0.6508444  3
    366    364    360    367     1  0.0000000  0.6508444  3
    366    364    360    389     1  0.0000000  0.6508444  3
    366    364    376    382     1  0.0000000  0.6508444  3
    366    364    376    377     1  0.0000000  0.6508444  3
    366    364    376    378     1  0.0000000  0.6508444  3
    367    370    379    380     1  0.0000000  0.6508444  3
    367    370    379    381     1  0.0000000  0.6508444  3
    368    367    360    389     1  0.0000000  0.6508444  3
    368    367    370    379     1  0.0000000  0.6508444  3
    368    367    370    371     1  0.0000000  0.6508444  3
    368    367    370    372     1  0.0000000  0.6508444  3
    369    367    360    389     1  0.0000000  0.6508444  3
    369    367    370    379     1  0.0000000  0.6508444  3
    369    367    370    371     1  0.0000000  0.6508444  3
    369    367    370    372     1  0.0000000  0.6508444  3
    370    367    360    389     1  0.0000000  0.6508444  3
    371    370    379    388     1  0.0000000  1.0460000  1
    371    370    379    388     1  0.0000000  0.0000000  3
    371    370    379    380     1  0.0000000  0.6508444  3
    371    370    379    381     1  0.0000000  0.6508444  3
    372    370    379    388     1  0.0000000  1.0460000  1
    372    370    379    388     1  0.0000000  0.0000000  3
    372    370    379    380     1  0.0000000  0.6508444  3
    372    370    379    381     1  0.0000000  0.6508444  3
    373    361    360    389     1  0.0000000  0.6508444  3
    374    373    385    838     1  0.0000000  1.0460000  1
    374    373    385    838     1  0.0000000  0.0000000  3
    374    373    385    386     1  0.0000000  0.6508444  3
    374    373    385    387     1  0.0000000  0.6508444  3
    375    373    385    838     1  0.0000000  1.0460000  1
    375    373    385    838     1  0.0000000  0.0000000  3
    375    373    385    386     1  0.0000000  0.6508444  3
    375    373    385    387     1  0.0000000  0.6508444  3
    376    364    360    389     1  0.0000000  0.6508444  3
    377    376    382    808     1  0.0000000  1.0460000  1
    377    376    382    808     1  0.0000000  0.0000000  3
    377    376    382    383     1  0.0000000  0.6508444  3
    377    376    382    384     1  0.0000000  0.6508444  3
    378    376    382    808     1  0.0000000  1.0460000  1
    378    376    382    808     1  0.0000000  0.0000000  3
    378    376    382    383     1  0.0000000  0.6508444  3
    378    376    382    384     1  0.0000000  0.6508444  3
    382    808    799    800     1  0.0000000  1.6038667  3
    382    808    799    801     1  0.0000000  1.6038667  3
    383    382    808    799     1  0.0000000  1.6038667  3
    384    382    808    799     1  0.0000000  1.6038667  3
    385    838    829    830     1  0.0000000  1.6038667  3
    385    838    829    831     1  0.0000000  1.6038667  3
    386    385    838    829     1  0.0000000  1.6038667  3
    387    385    838    829     1  0.0000000  1.6038667  3
    390    391    403    404     1  0.0000000  0.6508444  3
    390    391    403    405     1  0.0000000  0.6508444  3
    390    394    406    407     1  0.0000000  0.6508444  3
    390    394    406    408     1  0.0000000  0.6508444  3
    390    397    400    401     1  0.0000000  0.6508444  3
    390    397    400    402     1  0.0000000  0.6508444  3
    391    390    394    395     1  0.0000000  0.6508444  3
    391    390    394    396     1  0.0000000  0.6508444  3
    391    390    397    398     1  0.0000000  0.6508444  3
    391    390    397    399     1  0.0000000  0.6508444  3
    391    403    415    416     1  0.0000000  0.6508444  3
    391    403    415    417     1  0.0000000  0.6508444  3
    392    391    390    394     1  0.0000000  0.6508444  3
    392    391    390    397     1  0.0000000  0.6508444  3
    392    391    390    419     1  0.0000000  0.6508444  3
    392    391    403    415     1  0.0000000  0.6508444  3
    392    391    403    404     1  0.0000000  0.6508444  3
    392    391    403    405     1  0.0000000  0.6508444  3
    393    391    390    394     1  0.0000000  0.6508444  3
    393    391    390    397     1  0.0000000  0.6508444  3
    393    391    390    419     1  0.0000000  0.6508444  3
    393    391    403    415     1  0.0000000  0.6508444  3
    393    391    403    404     1  0.0000000  0.6508444  3
    393    391    403    405     1  0.0000000  0.6508444  3
    394    390    397    398     1  0.0000000  0.6508444  3
    394    390    397    399     1  0.0000000  0.6508444  3
    394    406    412    413     1  0.0000000  0.6508444  3
    394    406    412    414     1  0.0000000  0.6508444  3
    395    394    390    397     1  0.0000000  0.6508444  3
    395    394    390    419     1  0.0000000  0.6508444  3
    395    394    406    412     1  0.0000000  0.6508444  3
    395    394    406    407     1  0.0000000  0.6508444  3
    395    394    406    408     1  0.0000000  0.6508444  3
    396    394    390    397     1  0.0000000  0.6508444  3
    396    394    390    419     1  0.0000000  0.6508444  3
    396    394    406    412     1  0.0000000  0.6508444  3
    396    394    406    407     1  0.0000000  0.6508444  3
    396    394    406    408     1  0.0000000  0.6508444  3
    397    400    409    410     1  0.0000000  0.6508444  3
    397    400    409    411     1  0.0000000  0.6508444  3
    398    397    390    419     1  0.0000000  0.6508444  3
    398    397    400    409     1  0.0000000  0.6508444  3
    398    397    400    401     1  0.0000000  0.6508444  3
    398    397    400    402     1  0.0000000  0.6508444  3
    399    397    390    419     1  0.0000000  0.6508444  3
    399    397    400    409     1  0.0000000  0.6508444  3
    399    397    400    401     1  0.0000000  0.6508444  3
    399    397    400    402     1  0.0000000  0.6508444  3
    400    397    390    419     1  0.0000000  0.6508444  3
    401    400    409    418     1  0.0000000  1.0460000  1
    401    400    409    418     1  0.0000000  0.0000000  3
    401    400    409    410     1  0.0000000  0.6508444  3
    401    400    409    411     1  0.0000000  0.6508444  3
    402    400    409    418     1  0.0000000  1.0460000  1
    402    400    409    418     1  0.0000000  0.0000000  3
    402    400    409    410     1  0.0000000  0.6508444  3
    402    400    409    411     1  0.0000000  0.6508444  3
    403    391    390    419     1  0.0000000  0.6508444  3
    404    403    415    898     1  0.0000000  1.0460000  1
    404    403    415    898     1  0.0000000  0.0000000  3
    404    403    415    416     1  0.0000000  0.6508444  3
    404    403    415    417     1  0.0000000  0.6508444  3
    405    403    415    898     1  0.0000000  1.0460000  1
    405    403    415    898     1  0.0000000  0.0000000  3
    405    403    415    416     1  0.0000000  0.6508444  3
    405    403    415    417     1  0.0000000  0.6508444  3
    406    394    390    419     1  0.0000000  0.6508444  3
    407    406    412    868     1  0.0000000  1.0460000  1
    407    406    412    868     1  0.0000000  0.0000000  3
    407    406    412    413     1  0.0000000  0.6508444  3
    407    406    412    414     1  0.0000000  0.6508444  3
    408    406    412    868     1  0.0000000  1.0460000  1
    408    406    412    868     1  0.0000000  0.0000000  3
    408    406    412    413     1  0.0000000  0.6508444  3
    408    406    412    414     1  0.0000000  0.6508444  3
    412    868    859    860     1  0.0000000  1.6038667  3
    412    868    859    861     1  0.0000000  1.6038667  3
    413    412    868    859     1  0.0000000  1.6038667  3
    414    412    868    859     1  0.0000000  1.6038667  3
    415    898    889    890     1  0.0000000  1.6038667  3
    415    898    889    891     1  0.0000000  1.6038667  3
    416    415    898    889     1  0.0000000  1.6038667  3
    417    415    898    889     1  0.0000000  1.6038667  3
    420    421    433    434     1  0.0000000  0.6508444  3
    420    421    433    435     1  0.0000000  0.6508444  3
    420    424    436    437     1  0.0000000  0.6508444  3
    420    424    436    438     1  0.0000000  0.6508444  3
    420    427    430    431     1  0.0000000  0.6508444  3
    420    427    430    432     1  0.0000000  0.6508444  3
    421    420    424    425     1  0.0000000  0.6508444  3
    421    420    424    426     1  0.0000000  0.6508444  3
    421    420    427    428     1  0.0000000  0.6508444  3
    421    420    427    429     1  0.0000000  0.6508444  3
    421    433    445    446     1  0.0000000  0.6508444  3
    421    433    445    447     1  0.0000000  0.6508444  3
    422    421    420    424     1  0.0000000  0.6508444  3
    422    421    420    427     1  0.0000000  0.6508444  3
    422    421    420    449     1  0.0000000  0.6508444  3
    422    421    433    445     1  0.0000000  0.6508444  3
    422    421    433    434     1  0.0000000  0.6508444  3
    422    421    433    435     1  0.0000000  0.6508444  3
    423    421    420    424     1  0.0000000  0.6508444  3
    423    421    420    427     1  0.0000000  0.6508444  3
    423    421    420    449     1  0.0000000  0.6508444  3
    423    421    433    445     1  0.0000000  0.6508444  3
    423    421    433    434     1  0.0000000  0.6508444  3
    423    421    433    435     1  0.0000000  0.6508444  3
    424    420    427    428     1  0.0000000  0.6508444  3
    424    420    427    429     1  0.0000000  0.6508444  3
    424    436    442    443     1  0.0000000  0.6508444  3
    424    436    442    444     1  0.0000000  0.6508444  3
    425    424    420    427     1  0.0000000  0.6508444  3
    425    424    420    449     1  0.0000000  0.6508444  3
    425    424    436    442     1  0.0000000  0.6508444  3
    425    424    436    437     1  0.0000000  0.6508444  3
    425    424    436    438     1  0.0000000  0.6508444  3
    426    424    420    427     1  0.0000000  0.6508444  3
    426    424    420    449     1  0.0000000  0.6508444  3
    426    424    436    442     1  0.0000000  0.6508444  3
    426    424    436    437     1  0.0000000  0.6508444  3
    426    424    436    438     1  0.0000000  0.6508444  3
    427    430    439    440     1  0.0000000  0.6508444  3
    427    430    439    441     1  0.0000000  0.6508444  3
    428    427    420    449     1  0.0000000  0.6508444  3
    428    427    430    439     1  0.0000000  0.6508444  3
    428    427    430    431     1  0.0000000  0.6508444  3
    428    427    430    432     1  0.0000000  0.6508444  3
    429    427    420    449     1  0.0000000  0.6508444  3
    429    427    430    439     1  0.0000000  0.6508444  3
    429    427    430    431     1  0.0000000  0.6508444  3
    429    427    430    432     1  0.0000000  0.6508444  3
    430    427    420    449     1  0.0000000  0.6508444  3
    431    430    439    448     1  0.0000000  1.0460000  1
    431    430    439    448     1  0.0000000  0.0000000  3
    431    430    439    440     1  0.0000000  0.6508444  3
    431    430    439    441     1  0.0000000  0.6508444  3
    432    430    439    448     1  0.0000000  1.0460000  1
    432    430    439    448     1  0.0000000  0.0000000  3
    432    430    439    440     1  0.0000000  0.6508444  3
    432    430    439    441     1  0.0000000  0.6508444  3
    433    421    420    449     1  0.0000000  0.6508444  3
    434    433    445    958     1  0.0000000  1.0460000  1
    434    433    445    958     1  0.0000000  0.0000000  3
    434    433    445    446     1  0.0000000  0.6508444  3
    434    433    445    447     1  0.0000000  0.6508444  3
    435    433    445    958     1  0.0000000  1.0460000  1
    435    433    445    958     1  0.0000000  0.0000000  3
    435    433    445    446     1  0.0000000  0.6508444  3
    435    433    445    447     1  0.0000000  0.6508444  3
    436    424    420    449     1  0.0000000  0.6508444  3
    437    436    442    928     1  0.0000000  1.0460000  1
    437    436    442    928     1  0.0000000  0.0000000  3
    437    436    442    443     1  0.0000000  0.6508444  3
    437    436    442    444     1  0.0000000  0.6508444  3
    438    436    442    928     1  0.0000000  1.0460000  1
    438    436    442    928     1  0.0000000  0.0000000  3
    438    436    442    443     1  0.0000000  0.6508444  3
    438    436    442    444     1  0.0000000  0.6508444  3
    442    928    919    920     1  0.0000000  1.6038667  3
    442    928    919    921     1  0.0000000  1.6038667  3
    443    442    928    919     1  0.0000000  1.6038667  3
    444    442    928    919     1  0.0000000  1.6038667  3
    445    958    949    950     1  0.0000000  1.6038667  3
    445    958    949    951     1  0.0000000  1.6038667  3
    446    445    958    949     1  0.0000000  1.6038667  3
    447    445    958    949     1  0.0000000  1.6038667  3
    450    451    463    464     1  0.0000000  0.6508444  3
    450    451    463    465     1  0.0000000  0.6508444  3
    450    454    466    467     1  0.0000000  0.6508444  3
    450    454    466    468     1  0.0000000  0.6508444  3
    450    457    460    461     1  0.0000000  0.6508444  3
    450    457    460    462     1  0.0000000  0.6508444  3
    451    450    454    455     1  0.0000000  0.6508444  3
    451    450    454    456     1  0.0000000  0.6508444  3
    451    450    457    458     1  0.0000000  0.6508444  3
    451    450    457    459     1  0.0000000  0.6508444  3
    451    463    475    476     1  0.0000000  0.6508444  3
    451    463    475    477     1  0.0000000  0.6508444  3
    452    451    450    454     1  0.0000000  0.6508444  3
    452    451    450    457     1  0.0000000  0.6508444  3
    452    451    450    479     1  0.0000000  0.6508444  3
    452    451    463    475     1  0.0000000  0.6508444  3
    452    451    463    464     1  0.0000000  0.6508444  3
    452    451    463    465     1  0.0000000  0.6508444  3
    453    451    450    454     1  0.0000000  0.6508444  3
    453    451    450    457     1  0.0000000  0.6508444  3
    453    451    450    479     1  0.0000000  0.6508444  3
    453    451    463    475     1  0.0000000  0.6508444  3
    453    451    463    464     1  0.0000000  0.6508444  3
    453    451    463    465     1  0.0000000  0.6508444  3
    454    450    457    458     1  0.0000000  0.6508444  3
    454    450    457    459     1  0.0000000  0.6508444  3
    454    466    472    473     1  0.0000000  0.6508444  3
    454    466    472    474     1  0.0000000  0.6508444  3
    455    454    450    457     1  0.0000000  0.6508444  3
    455    454    450    479     1  0.0000000  0.6508444  3
    455    454    466    472     1  0.0000000  0.6508444  3
    455    454    466    467     1  0.0000000  0.6508444  3
    455    454    466    468     1  0.0000000  0.6508444  3
    456    454    450    457     1  0.0000000  0.6508444  3
    456    454    450    479     1  0.0000000  0.6508444  3
    456    454    466    472     1  0.0000000  0.6508444  3
    456    454    466    467     1  0.0000000  0.6508444  3
    456    454    466    468     1  0.0000000  0.6508444  3
    457    460    469    470     1  0.0000000  0.6508444  3
    457    460    469    471     1  0.0000000  0.6508444  3
    458    457    450    479     1  0.0000000  0.6508444  3
    458    457    460    469     1  0.0000000  0.6508444  3
    458    457    460    461     1  0.0000000  0.6508444  3
    458    457    460    462     1  0.0000000  0.6508444  3
    459    457    450    479     1  0.0000000  0.6508444  3
    459    457    460    469     1  0.0000000  0.6508444  3
    459    457    460    461     1  0.0000000  0.6508444  3
    459    457    460    462     1  0.0000000  0.6508444  3
    460    457    450    479     1  0.0000000  0.6508444  3
    461    460    469    478     1  0.0000000  1.0460000  1
    461    460    469    478     1  0.0000000  0.0000000  3
    461    460    469    470     1  0.0000000  0.6508444  3
    461    460    469    471     1  0.0000000  0.6508444  3
    462    460    469    478     1  0.0000000  1.0460000  1
    462    460    469    478     1  0.0000000  0.0000000  3
    462    460    469    470     1  0.0000000  0.6508444  3
    462    460    469    471     1  0.0000000  0.6508444  3
    463    451    450    479     1  0.0000000  0.6508444  3
    464    463    475   1018     1  0.0000000  1.0460000  1
    464    463    475   1018     1  0.0000000  0.0000000  3
    464    463    475    476     1  0.0000000  0.6508444  3
    464    463    475    477     1  0.0000000  0.6508444  3
    465    463    475   1018     1  0.0000000  1.0460000  1
    465    463    475   1018     1  0.0000000  0.0000000  3
    465    463    475    476     1  0.0000000  0.6508444  3
    465    463    475    477     1  0.0000000  0.6508444  3
    466    454    450    479     1  0.0000000  0.6508444  3
    467    466    472    988     1  0.0000000  1.0460000  1
    467    466    472    988     1  0.0000000  0.0000000  3
    467    466    472    473     1  0.0000000  0.6508444  3
    467    466    472    474     1  0.0000000  0.6508444  3
    468    466    472    988     1  0.0000000  1.0460000  1
    468    466    472    988     1  0.0000000  0.0000000  3
    468    466    472    473     1  0.0000000  0.6508444  3
    468    466    472    474     1  0.0000000  0.6508444  3
    472    988    979    980     1  0.0000000  1.6038667  3
    472    988    979    981     1  0.0000000  1.6038667  3
    473    472    988    979     1  0.0000000  1.6038667  3
    474    472    988    979     1  0.0000000  1.6038667  3
    475   1018   1009   1010     1  0.0000000  1.6038667  3
    475   1018   1009   1011     1  0.0000000  1.6038667  3
    476    475   1018   1009     1  0.0000000  1.6038667  3
    477    475   1018   1009     1  0.0000000  1.6038667  3
    480    481    493    494     1  0.0000000  0.6508444  3
    480    481    493    495     1  0.0000000  0.6508444  3
    480    484    496    497     1  0.0000000  0.6508444  3
    480    484    496    498     1  0.0000000  0.6508444  3
    480    487    490    491     1  0.0000000  0.6508444  3
    480    487    490    492     1  0.0000000  0.6508444  3
    481    480    484    485     1  0.0000000  0.6508444  3
    481    480    484    486     1  0.0000000  0.6508444  3
    481    480    487    488     1  0.0000000  0.6508444  3
    481    480    487    489     1  0.0000000  0.6508444  3
    481    493    505    506     1  0.0000000  0.6508444  3
    481    493    505    507     1  0.0000000  0.6508444  3
    482    481    480    484     1  0.0000000  0.6508444  3
    482    481    480    487     1  0.0000000  0.6508444  3
    482    481    480    509     1  0.0000000  0.6508444  3
    482    481    493    505     1  0.0000000  0.6508444  3
    482    481    493    494     1  0.0000000  0.6508444  3
    482    481    493    495     1  0.0000000  0.6508444  3
    483    481    480    484     1  0.0000000  0.6508444  3
    483    481    480    487     1  0.0000000  0.6508444  3
    483    481    480    509     1  0.0000000  0.6508444  3
    483    481    493    505     1  0.0000000  0.6508444  3
    483    481    493    494     1  0.0000000  0.6508444  3
    483    481    493    495     1  0.0000000  0.6508444  3
    484    480    487    488     1  0.0000000  0.6508444  3
    484    480    487    489     1  0.0000000  0.6508444  3
    484    496    502    503     1  0.0000000  0.6508444  3
    484    496    502    504     1  0.0000000  0.6508444  3
    485    484    480    487     1  0.0000000  0.6508444  3
    485    484    480    509     1  0.0000000  0.6508444  3
    485    484    496    502     1  0.0000000  0.6508444  3
    485    484    496    497     1  0.0000000  0.6508444  3
    485    484    496    498     1  0.0000000  0.6508444  3
    486    484    480    487     1  0.0000000  0.6508444  3
    486    484    480    509     1  0.0000000  0.6508444  3
    486    484    496    502     1  0.0000000  0.6508444  3
    486    484    496    497     1  0.0000000  0.6508444  3
    486    484    496    498     1  0.0000000  0.6508444  3
    487    490    499    500     1  0.0000000  0.6508444  3
    487    490    499    501     1  0.0000000  0.6508444  3
    488    487    480    509     1  0.0000000  0.6508444  3
    488    487    490    499     1  0.0000000  0.6508444  3
    488    487    490    491     1  0.0000000  0.6508444  3
    488    487    490    492     1  0.0000000  0.6508444  3
    489    487    480    509     1  0.0000000  0.6508444  3
    489    487    490    499     1  0.0000000  0.6508444  3
    489    487    490    491     1  0.0000000  0.6508444  3
    489    487    490    492     1  0.0000000  0.6508444  3
    490    487    480    509     1  0.0000000  0.6508444  3
    491    490    499    508     1  0.0000000  1.0460000  1
    491    490    499    508     1  0.0000000  0.0000000  3
    491    490    499    500     1  0.0000000  0.6508444  3
    491    490    499    501     1  0.0000000  0.6508444  3
    492    490    499    508     1  0.0000000  1.0460000  1
    492    490    499    508     1  0.0000000  0.0000000  3
    492    490    499    500     1  0.0000000  0.6508444  3
    492    490    499    501     1  0.0000000  0.6508444  3
    493    481    480    509     1  0.0000000  0.6508444  3
    494    493    505   1078     1  0.0000000  1.0460000  1
    494    493    505   1078     1  0.0000000  0.0000000  3
    494    493    505    506     1  0.0000000  0.6508444  3
    494    493    505    507     1  0.0000000  0.6508444  3
    495    493    505   1078     1  0.0000000  1.0460000  1
    495    493    505   1078     1  0.0000000  0.0000000  3
    495    493    505    506     1  0.0000000  0.6508444  3
    495    493    505    507     1  0.0000000  0.6508444  3
    496    484    480    509     1  0.0000000  0.6508444  3
    497    496    502   1048     1  0.0000000  1.0460000  1
    497    496    502   1048     1  0.0000000  0.0000000  3
    497    496    502    503     1  0.0000000  0.6508444  3
    497    496    502    504     1  0.0000000  0.6508444  3
    498    496    502   1048     1  0.0000000  1.0460000  1
    498    496    502   1048     1  0.0000000  0.0000000  3
    498    496    502    503     1  0.0000000  0.6508444  3
    498    496    502    504     1  0.0000000  0.6508444  3
    502   1048   1039   1040     1  0.0000000  1.6038667  3
    502   1048   1039   1041     1  0.0000000  1.6038667  3
    503    502   1048   1039     1  0.0000000  1.6038667  3
    504    502   1048   1039     1  0.0000000  1.6038667  3
    505   1078   1069   1070     1  0.0000000  1.6038667  3
    505   1078   1069   1071     1  0.0000000  1.6038667  3
    506    505   1078   1069     1  0.0000000  1.6038667  3
    507    505   1078   1069     1  0.0000000  1.6038667  3
    510    511    523    524     1  0.0000000  0.6508444  3
    510    511    523    525     1  0.0000000  0.6508444  3
    510    514    526    527     1  0.0000000  0.6508444  3
    510    514    526    528     1  0.0000000  0.6508444  3
    510    517    520    521     1  0.0000000  0.6508444  3
    510    517    520    522     1  0.0000000  0.6508444  3
    511    510    514    515     1  0.0000000  0.6508444  3
    511    510    514    516     1  0.0000000  0.6508444  3
    511    510    517    518     1  0.0000000  0.6508444  3
    511    510    517    519     1  0.0000000  0.6508444  3
    511    523    535    536     1  0.0000000  0.6508444  3
    511    523    535    537     1  0.0000000  0.6508444  3
    512    511    510    514     1  0.0000000  0.6508444  3
    512    511    510    517     1  0.0000000  0.6508444  3
    512    511    510    539     1  0.0000000  0.6508444  3
    512    511    523    535     1  0.0000000  0.6508444  3
    512    511    523    524     1  0.0000000  0.6508444  3
    512    511    523    525     1  0.0000000  0.6508444  3
    513    511    510    514     1  0.0000000  0.6508444  3
    513    511    510    517     1  0.0000000  0.6508444  3
    513    511    510    539     1  0.0000000  0.6508444  3
    513    511    523    535     1  0.0000000  0.6508444  3
    513    511    523    524     1  0.0000000  0.6508444  3
    513    511    523    525     1  0.0000000  0.6508444  3
    514    510    517    518     1  0.0000000  0.6508444  3
    514    510    517    519     1  0.0000000  0.6508444  3
    514    526    532    533     1  0.0000000  0.6508444  3
    514    526    532    534     1  0.0000000  0.6508444  3
    515    514    510    517     1  0.0000000  0.6508444  3
    515    514    510    539     1  0.0000000  0.6508444  3
    515    514    526    532     1  0.0000000  0.6508444  3
    515    514    526    527     1  0.0000000  0.6508444  3
    515    514    526    528     1  0.0000000  0.6508444  3
    516    514    510    517     1  0.0000000  0.6508444  3
    516    514    510    539     1  0.0000000  0.6508444  3
    516    514    526    532     1  0.0000000  0.6508444  3
    516    514    526    527     1  0.0000000  0.6508444  3
    516    514    526    528     1  0.0000000  0.6508444  3
    517    520    529    530     1  0.0000000  0.6508444  3
    517    520    529    531     1  0.0000000  0.6508444  3
    518    517    510    539     1  0.0000000  0.6508444  3
    518    517    520    529     1  0.0000000  0.6508444  3
    518    517    520    521     1  0.0000000  0.6508444  3
    518    517    520    522     1  0.0000000  0.6508444  3
    519    517    510    539     1  0.0000000  0.6508444  3
    519    517    520    529     1  0.0000000  0.6508444  3
    519    517    520    521     1  0.0000000  0.6508444  3
    519    517    520    522     1  0.0000000  0.6508444  3
    520    517    510    539     1  0.0000000  0.6508444  3
    521    520    529    538     1  0.0000000  1.0460000  1
    521    520    529    538     1  0.0000000  0.0000000  3
    521    520    529    530     1  0.0000000  0.6508444  3
    521    520    529    531     1  0.0000000  0.6508444  3
    522    520    529    538     1  0.0000000  1.0460000  1
    522    520    529    538     1  0.0000000  0.0000000  3
    522    520    529    530     1  0.0000000  0.6508444  3
    522    520    529    531     1  0.0000000  0.6508444  3
    523    511    510    539     1  0.0000000  0.6508444  3
    524    523    535   1138     1  0.0000000  1.0460000  1
    524    523    535   1138     1  0.0000000  0.0000000  3
    524    523    535    536     1  0.0000000  0.6508444  3
    524    523    535    537     1  0.0000000  0.6508444  3
    525    523    535   1138     1  0.0000000  1.0460000  1
    525    523    535   1138     1  0.0000000  0.0000000  3
    525    523    535    536     1  0.0000000  0.6508444  3
    525    523    535    537     1  0.0000000  0.6508444  3
    526    514    510    539     1  0.0000000  0.6508444  3
    527    526    532   1108     1  0.0000000  1.0460000  1
    527    526    532   1108     1  0.0000000  0.0000000  3
    527    526    532    533     1  0.0000000  0.6508444  3
    527    526    532    534     1  0.0000000  0.6508444  3
    528    526    532   1108     1  0.0000000  1.0460000  1
    528    526    532   1108     1  0.0000000  0.0000000  3
    528    526    532    533     1  0.0000000  0.6508444  3
    528    526    532    534     1  0.0000000  0.6508444  3
    532   1108   1099   1100     1  0.0000000  1.6038667  3
    532   1108   1099   1101     1  0.0000000  1.6038667  3
    533    532   1108   1099     1  0.0000000  1.6038667  3
    534    532   1108   1099     1  0.0000000  1.6038667  3
    535   1138   1129   1130     1  0.0000000  1.6038667  3
    535   1138   1129   1131     1  0.0000000  1.6038667  3
    536    535   1138   1129     1  0.0000000  1.6038667  3
    537    535   1138   1129     1  0.0000000  1.6038667  3
    540    541    553    554     1  0.0000000  0.6508444  3
    540    541    553    555     1  0.0000000  0.6508444  3
    540    544    556    557     1  0.0000000  0.6508444  3
    540    544    556    558     1  0.0000000  0.6508444  3
    540    547    550    551     1  0.0000000  0.6508444  3
    540    547    550    552     1  0.0000000  0.6508444  3
    541    540    544    545     1  0.0000000  0.6508444  3
    541    540    544    546     1  0.0000000  0.6508444  3
    541    540    547    548     1  0.0000000  0.6508444  3
    541    540    547    549     1  0.0000000  0.6508444  3
    541    553    565    566     1  0.0000000  0.6508444  3
    541    553    565    567     1  0.0000000  0.6508444  3
    542    541    540    544     1  0.0000000  0.6508444  3
    542    541    540    547     1  0.0000000  0.6508444  3
    542    541    540    569     1  0.0000000  0.6508444  3
    542    541    553    565     1  0.0000000  0.6508444  3
    542    541    553    554     1  0.0000000  0.6508444  3
    542    541    553    555     1  0.0000000  0.6508444  3
    543    541    540    544     1  0.0000000  0.6508444  3
    543    541    540    547     1  0.0000000  0.6508444  3
    543    541    540    569     1  0.0000000  0.6508444  3
    543    541    553    565     1  0.0000000  0.6508444  3
    543    541    553    554     1  0.0000000  0.6508444  3
    543    541    553    555     1  0.0000000  0.6508444  3
    544    540    547    548     1  0.0000000  0.6508444  3
    544    540    547    549     1  0.0000000  0.6508444  3
    544    556    562    563     1  0.0000000  0.6508444  3
    544    556    562    564     1  0.0000000  0.6508444  3
    545    544    540    547     1  0.0000000  0.6508444  3
    545    544    540    569     1  0.0000000  0.6508444  3
    545    544    556    562     1  0.0000000  0.6508444  3
    545    544    556    557     1  0.0000000  0.6508444  3
    545    544    556    558     1  0.0000000  0.6508444  3
    546    544    540    547     1  0.0000000  0.6508444  3
    546    544    540    569     1  0.0000000  0.6508444  3
    546    544    556    562     1  0.0000000  0.6508444  3
    546    544    556    557     1  0.0000000  0.6508444  3
    546    544    556    558     1  0.0000000  0.6508444  3
    547    550    559    560     1  0.0000000  0.6508444  3
    547    550    559    561     1  0.0000000  0.6508444  3
    548    547    540    569     1  0.0000000  0.6508444  3
    548    547    550    559     1  0.0000000  0.6508444  3
    548    547    550    551     1  0.0000000  0.6508444  3
    548    547    550    552     1  0.0000000  0.6508444  3
    549    547    540    569     1  0.0000000  0.6508444  3
    549    547    550    559     1  0.0000000  0.6508444  3
    549    547    550    551     1  0.0000000  0.6508444  3
    549    547    550    552     1  0.0000000  0.6508444  3
    550    547    540    569     1  0.0000000  0.6508444  3
    551    550    559    568     1  0.0000000  1.0460000  1
    551    550    559    568     1  0.0000000  0.0000000  3
    551    550    559    560     1  0.0000000  0.6508444  3
    551    550    559    561     1  0.0000000  0.6508444  3
    552    550    559    568     1  0.0000000  1.0460000  1
    552    550    559    568     1  0.0000000  0.0000000  3
    552    550    559    560     1  0.0000000  0.6508444  3
    552    550    559    561     1  0.0000000  0.6508444  3
    553    541    540    569     1  0.0000000  0.6508444  3
    554    553    565   1198     1  0.0000000  1.0460000  1
    554    553    565   1198     1  0.0000000  0.0000000  3
    554    553    565    566     1  0.0000000  0.6508444  3
    554    553    565    567     1  0.0000000  0.6508444  3
    555    553    565   1198     1  0.0000000  1.0460000  1
    555    553    565   1198     1  0.0000000  0.0000000  3
    555    553    565    566     1  0.0000000  0.6508444  3
    555    553    565    567     1  0.0000000  0.6508444  3
    556    544    540    569     1  0.0000000  0.6508444  3
    557    556    562   1168     1  0.0000000  1.0460000  1
    557    556    562   1168     1  0.0000000  0.0000000  3
    557    556    562    563     1  0.0000000  0.6508444  3
    557    556    562    564     1  0.0000000  0.6508444  3
    558    556    562   1168     1  0.0000000  1.0460000  1
    558    556    562   1168     1  0.0000000  0.0000000  3
    558    556    562    563     1  0.0000000  0.6508444  3
    558    556    562    564     1  0.0000000  0.6508444  3
    562   1168   1159   1160     1  0.0000000  1.6038667  3
    562   1168   1159   1161     1  0.0000000  1.6038667  3
    563    562   1168   1159     1  0.0000000  1.6038667  3
    564    562   1168   1159     1  0.0000000  1.6038667  3
    565   1198   1189   1190     1  0.0000000  1.6038667  3
    565   1198   1189   1191     1  0.0000000  1.6038667  3
    566    565   1198   1189     1  0.0000000  1.6038667  3
    567    565   1198   1189     1  0.0000000  1.6038667  3
    570    571    583    584     1  0.0000000  0.6508444  3
    570    571    583    585     1  0.0000000  0.6508444  3
    570    574    586    587     1  0.0000000  0.6508444  3
    570    574    586    588     1  0.0000000  0.6508444  3
    570    577    580    581     1  0.0000000  0.6508444  3
    570    577    580    582     1  0.0000000  0.6508444  3
    571    570    574    575     1  0.0000000  0.6508444  3
    571    570    574    576     1  0.0000000  0.6508444  3
    571    570    577    578     1  0.0000000  0.6508444  3
    571    570    577    579     1  0.0000000  0.6508444  3
    571    583    595    596     1  0.0000000  0.6508444  3
    571    583    595    597     1  0.0000000  0.6508444  3
    572    571    570    574     1  0.0000000  0.6508444  3
    572    571    570    577     1  0.0000000  0.6508444  3
    572    571    570    599     1  0.0000000  0.6508444  3
    572    571    583    595     1  0.0000000  0.6508444  3
    572    571    583    584     1  0.0000000  0.6508444  3
    572    571    583    585     1  0.0000000  0.6508444  3
    573    571    570    574     1  0.0000000  0.6508444  3
    573    571    570    577     1  0.0000000  0.6508444  3
    573    571    570    599     1  0.0000000  0.6508444  3
    573    571    583    595     1  0.0000000  0.6508444  3
    573    571    583    584     1  0.0000000  0.6508444  3
    573    571    583    585     1  0.0000000  0.6508444  3
    574    570    577    578     1  0.0000000  0.6508444  3
    574    570    577    579     1  0.0000000  0.6508444  3
    574    586    592    593     1  0.0000000  0.6508444  3
    574    586    592    594     1  0.0000000  0.6508444  3
    575    574    570    577     1  0.0000000  0.6508444  3
    575    574    570    599     1  0.0000000  0.6508444  3
    575    574    586    592     1  0.0000000  0.6508444  3
    575    574    586    587     1  0.0000000  0.6508444  3
    575    574    586    588     1  0.0000000  0.6508444  3
    576    574    570    577     1  0.0000000  0.6508444  3
    576    574    570    599     1  0.0000000  0.6508444  3
    576    574    586    592     1  0.0000000  0.6508444  3
    576    574    586    587     1  0.0000000  0.6508444  3
    576    574    586    588     1  0.0000000  0.6508444  3
    577    580    589    590     1  0.0000000  0.6508444  3
    577    580    589    591     1  0.0000000  0.6508444  3
    578    577    570    599     1  0.0000000  0.6508444  3
    578    577    580    589     1  0.0000000  0.6508444  3
    578    577    580    581     1  0.0000000  0.6508444  3
    578    577    580    582     1  0.0000000  0.6508444  3
    579    577    570    599     1  0.0000000  0.6508444  3
    579    577    580    589     1  0.0000000  0.6508444  3
    579    577    580    581     1  0.0000000  0.6508444  3
    579    577    580    582     1  0.0000000  0.6508444  3
    580    577    570    599     1  0.0000000  0.6508444  3
    581    580    589    598     1  0.0000000  1.0460000  1
    581    580    589    598     1  0.0000000  0.0000000  3
    581    580    589    590     1  0.0000000  0.6508444  3
    581    580    589    591     1  0.0000000  0.6508444  3
    582    580    589    598     1  0.0000000  1.0460000  1
    582    580    589    598     1  0.0000000  0.0000000  3
    582    580    589    590     1  0.0000000  0.6508444  3
    582    580    589    591     1  0.0000000  0.6508444  3
    583    571    570    599     1  0.0000000  0.6508444  3
    584    583    595   1258     1  0.0000000  1.0460000  1
    584    583    595   1258     1  0.0000000  0.0000000  3
    584    583    595    596     1  0.0000000  0.6508444  3
    584    583    595    597     1  0.0000000  0.6508444  3
    585    583    595   1258     1  0.0000000  1.0460000  1
    585    583    595   1258     1  0.0000000  0.0000000  3
    585    583    595    596     1  0.0000000  0.6508444  3
    585    583    595    597     1  0.0000000  0.6508444  3
    586    574    570    599     1  0.0000000  0.6508444  3
    587    586    592   1228     1  0.0000000  1.0460000  1
    587    586    592   1228     1  0.0000000  0.0000000  3
    587    586    592    593     1  0.0000000  0.6508444  3
    587    586    592    594     1  0.0000000  0.6508444  3
    588    586    592   1228     1  0.0000000  1.0460000  1
    588    586    592   1228     1  0.0000000  0.0000000  3
    588    586    592    593     1  0.0000000  0.6508444  3
    588    586    592    594     1  0.0000000  0.6508444  3
    592   1228   1219   1220     1  0.0000000  1.6038667  3
    592   1228   1219   1221     1  0.0000000  1.6038667  3
    593    592   1228   1219     1  0.0000000  1.6038667  3
    594    592   1228   1219     1  0.0000000  1.6038667  3
    595   1258   1249   1250     1  0.0000000  1.6038667  3
    595   1258   1249   1251     1  0.0000000  1.6038667  3
    596    595   1258   1249     1  0.0000000  1.6038667  3
    597    595   1258   1249     1  0.0000000  1.6038667  3
    600    601    613    614     1  0.0000000  0.6508444  3
    600    601    613    615     1  0.0000000  0.6508444  3
    600    604    616    617     1  0.0000000  0.6508444  3
    600    604    616    618     1  0.0000000  0.6508444  3
    600    607    610    611     1  0.0000000  0.6508444  3
    600    607    610    612     1  0.0000000  0.6508444  3
    601    600    604    605     1  0.0000000  0.6508444  3
    601    600    604    606     1  0.0000000  0.6508444  3
    601    600    607    608     1  0.0000000  0.6508444  3
    601    600    607    609     1  0.0000000  0.6508444  3
    601    613    625    626     1  0.0000000  0.6508444  3
    601    613    625    627     1  0.0000000  0.6508444  3
    602    601    600    604     1  0.0000000  0.6508444  3
    602    601    600    607     1  0.0000000  0.6508444  3
    602    601    600    629     1  0.0000000  0.6508444  3
    602    601    613    625     1  0.0000000  0.6508444  3
    602    601    613    614     1  0.0000000  0.6508444  3
    602    601    613    615     1  0.0000000  0.6508444  3
    603    601    600    604     1  0.0000000  0.6508444  3
    603    601    600    607     1  0.0000000  0.6508444  3
    603    601    600    629     1  0.0000000  0.6508444  3
    603    601    613    625     1  0.0000000  0.6508444  3
    603    601    613    614     1  0.0000000  0.6508444  3
    603    601    613    615     1  0.0000000  0.6508444  3
    604    600    607    608     1  0.0000000  0.6508444  3
    604    600    607    609     1  0.0000000  0.6508444  3
    604    616    622    623     1  0.0000000  0.6508444  3
    604    616    622    624     1  0.0000000  0.6508444  3
    605    604    600    607     1  0.0000000  0.6508444  3
    605    604    600    629     1  0.0000000  0.6508444  3
    605    604    616    622     1  0.0000000  0.6508444  3
    605    604    616    617     1  0.0000000  0.6508444  3
    605    604    616    618     1  0.0000000  0.6508444  3
    606    604    600    607     1  0.0000000  0.6508444  3
    606    604    600    629     1  0.0000000  0.6508444  3
    606    604    616    622     1  0.0000000  0.6508444  3
    606    604    616    617     1  0.0000000  0.6508444  3
    606    604    616    618     1  0.0000000  0.6508444  3
    607    610    619    620     1  0.0000000  0.6508444  3
    607    610    619    621     1  0.0000000  0.6508444  3
    608    607    600    629     1  0.0000000  0.6508444  3
    608    607    610    619     1  0.0000000  0.6508444  3
    608    607    610    611     1  0.0000000  0.6508444  3
    608    607    610    612     1  0.0000000  0.6508444  3
    609    607    600    629     1  0.0000000  0.6508444  3
    609    607    610    619     1  0.0000000  0.6508444  3
    609    607    610    611     1  0.0000000  0.6508444  3
    609    607    610    612     1  0.0000000  0.6508444  3
    610    607    600    629     1  0.0000000  0.6508444  3
    611    610    619    628     1  0.0000000  1.0460000  1
    611    610    619    628     1  0.0000000  0.0000000  3
    611    610    619    620     1  0.0000000  0.6508444  3
    611    610    619    621     1  0.0000000  0.6508444  3
    612    610    619    628     1  0.0000000  1.0460000  1
    612    610    619    628     1  0.0000000  0.0000000  3
    612    610    619    620     1  0.0000000  0.6508444  3
    612    610    619    621     1  0.0000000  0.6508444  3
    613    601    600    629     1  0.0000000  0.6508444  3
    614    613    625   1318     1  0.0000000  1.0460000  1
    614    613    625   1318     1  0.0000000  0.0000000  3
    614    613    625    626     1  0.0000000  0.6508444  3
    614    613    625    627     1  0.0000000  0.6508444  3
    615    613    625   1318     1  0.0000000  1.0460000  1
    615    613    625   1318     1  0.0000000  0.0000000  3
    615    613    625    626     1  0.0000000  0.6508444  3
    615    613    625    627     1  0.0000000  0.6508444  3
    616    604    600    629     1  0.0000000  0.6508444  3
    617    616    622   1288     1  0.0000000  1.0460000  1
    617    616    622   1288     1  0.0000000  0.0000000  3
    617    616    622    623     1  0.0000000  0.6508444  3
    617    616    622    624     1  0.0000000  0.6508444  3
    618    616    622   1288     1  0.0000000  1.0460000  1
    618    616    622   1288     1  0.0000000  0.0000000  3
    618    616    622    623     1  0.0000000  0.6508444  3
    618    616    622    624     1  0.0000000  0.6508444  3
    622   1288   1279   1280     1  0.0000000  1.6038667  3
    622   1288   1279   1281     1  0.0000000  1.6038667  3
    623    622   1288   1279     1  0.0000000  1.6038667  3
    624    622   1288   1279     1  0.0000000  1.6038667  3
    625   1318   1309   1310     1  0.0000000  1.6038667  3
    625   1318   1309   1311     1  0.0000000  1.6038667  3
    626    625   1318   1309     1  0.0000000  1.6038667  3
    627    625   1318   1309     1  0.0000000  1.6038667  3
    630    631    643    644     1  0.0000000  0.6508444  3
    630    631    643    645     1  0.0000000  0.6508444  3
    630    634    646    647     1  0.0000000  0.6508444  3
    630    634    646    648     1  0.0000000  0.6508444  3
    630    637    640    641     1  0.0000000  0.6508444  3
    630    637    640    642     1  0.0000000  0.6508444  3
    631    630    634    635     1  0.0000000  0.6508444  3
    631    630    634    636     1  0.0000000  0.6508444  3
    631    630    637    638     1  0.0000000  0.6508444  3
    631    630    637    639     1  0.0000000  0.6508444  3
    631    643    655    656     1  0.0000000  0.6508444  3
    631    643    655    657     1  0.0000000  0.6508444  3
    632    631    630    634     1  0.0000000  0.6508444  3
    632    631    630    637     1  0.0000000  0.6508444  3
    632    631    630    659     1  0.0000000  0.6508444  3
    632    631    643    655     1  0.0000000  0.6508444  3
    632    631    643    644     1  0.0000000  0.6508444  3
    632    631    643    645     1  0.0000000  0.6508444  3
    633    631    630    634     1  0.0000000  0.6508444  3
    633    631    630    637     1  0.0000000  0.6508444  3
    633    631    630    659     1  0.0000000  0.6508444  3
    633    631    643    655     1  0.0000000  0.6508444  3
    633    631    643    644     1  0.0000000  0.6508444  3
    633    631    643    645     1  0.0000000  0.6508444  3
    634    630    637    638     1  0.0000000  0.6508444  3
    634    630    637    639     1  0.0000000  0.6508444  3
    634    646    652    653     1  0.0000000  0.6508444  3
    634    646    652    654     1  0.0000000  0.6508444  3
    635    634    630    637     1  0.0000000  0.6508444  3
    635    634    630    659     1  0.0000000  0.6508444  3
    635    634    646    652     1  0.0000000  0.6508444  3
    635    634    646    647     1  0.0000000  0.6508444  3
    635    634    646    648     1  0.0000000  0.6508444  3
    636    634    630    637     1  0.0000000  0.6508444  3
    636    634    630    659     1  0.0000000  0.6508444  3
    636    634    646    652     1  0.0000000  0.6508444  3
    636    634    646    647     1  0.0000000  0.6508444  3
    636    634    646    648     1  0.0000000  0.6508444  3
    637    640    649    650     1  0.0000000  0.6508444  3
    637    640    649    651     1  0.0000000  0.6508444  3
    638    637    630    659     1  0.0000000  0.6508444  3
    638    637    640    649     1  0.0000000  0.6508444  3
    638    637    640    641     1  0.0000000  0.6508444  3
    638    637    640    642     1  0.0000000  0.6508444  3
    639    637    630    659     1  0.0000000  0.6508444  3
    639    637    640    649     1  0.0000000  0.6508444  3
    639    637    640    641     1  0.0000000  0.6508444  3
    639    637    640    642     1  0.0000000  0.6508444  3
    640    637    630    659     1  0.0000000  0.6508444  3
    641    640    649    658     1  0.0000000  1.0460000  1
    641    640    649    658     1  0.0000000  0.0000000  3
    641    640    649    650     1  0.0000000  0.6508444  3
    641    640    649    651     1  0.0000000  0.6508444  3
    642    640    649    658     1  0.0000000  1.0460000  1
    642    640    649    658     1  0.0000000  0.0000000  3
    642    640    649    650     1  0.0000000  0.6508444  3
    642    640    649    651     1  0.0000000  0.6508444  3
    643    631    630    659     1  0.0000000  0.6508444  3
    644    643    655   1378     1  0.0000000  1.0460000  1
    644    643    655   1378     1  0.0000000  0.0000000  3
    644    643    655    656     1  0.0000000  0.6508444  3
    644    643    655    657     1  0.0000000  0.6508444  3
    645    643    655   1378     1  0.0000000  1.0460000  1
    645    643    655   1378     1  0.0000000  0.0000000  3
    645    643    655    656     1  0.0000000  0.6508444  3
    645    643    655    657     1  0.0000000  0.6508444  3
    646    634    630    659     1  0.0000000  0.6508444  3
    647    646    652   1348     1  0.0000000  1.0460000  1
    647    646    652   1348     1  0.0000000  0.0000000  3
    647    646    652    653     1  0.0000000  0.6508444  3
    647    646    652    654     1  0.0000000  0.6508444  3
    648    646    652   1348     1  0.0000000  1.0460000  1
    648    646    652   1348     1  0.0000000  0.0000000  3
    648    646    652    653     1  0.0000000  0.6508444  3
    648    646    652    654     1  0.0000000  0.6508444  3
    652   1348   1339   1340     1  0.0000000  1.6038667  3
    652   1348   1339   1341     1  0.0000000  1.6038667  3
    653    652   1348   1339     1  0.0000000  1.6038667  3
    654    652   1348   1339     1  0.0000000  1.6038667  3
    655   1378   1369   1370     1  0.0000000  1.6038667  3
    655   1378   1369   1371     1  0.0000000  1.6038667  3
    656    655   1378   1369     1  0.0000000  1.6038667  3
    657    655   1378   1369     1  0.0000000  1.6038667  3
    660    661    673    674     1  0.0000000  0.6508444  3
    660    661    673    675     1  0.0000000  0.6508444  3
    660    664    676    677     1  0.0000000  0.6508444  3
    660    664    676    678     1  0.0000000  0.6508444  3
    660    667    670    671     1  0.0000000  0.6508444  3
    660    667    670    672     1  0.0000000  0.6508444  3
    661    660    664    665     1  0.0000000  0.6508444  3
    661    660    664    666     1  0.0000000  0.6508444  3
    661    660    667    668     1  0.0000000  0.6508444  3
    661    660    667    669     1  0.0000000  0.6508444  3
    661    673    685    686     1  0.0000000  0.6508444  3
    661    673    685    687     1  0.0000000  0.6508444  3
    662    661    660    664     1  0.0000000  0.6508444  3
    662    661    660    667     1  0.0000000  0.6508444  3
    662    661    660    689     1  0.0000000  0.6508444  3
    662    661    673    685     1  0.0000000  0.6508444  3
    662    661    673    674     1  0.0000000  0.6508444  3
    662    661    673    675     1  0.0000000  0.6508444  3
    663    661    660    664     1  0.0000000  0.6508444  3
    663    661    660    667     1  0.0000000  0.6508444  3
    663    661    660    689     1  0.0000000  0.6508444  3
    663    661    673    685     1  0.0000000  0.6508444  3
    663    661    673    674     1  0.0000000  0.6508444  3
    663    661    673    675     1  0.0000000  0.6508444  3
    664    660    667    668     1  0.0000000  0.6508444  3
    664    660    667    669     1  0.0000000  0.6508444  3
    664    676    682    683     1  0.0000000  0.6508444  3
    664    676    682    684     1  0.0000000  0.6508444  3
    665    664    660    667     1  0.0000000  0.6508444  3
    665    664    660    689     1  0.0000000  0.6508444  3
    665    664    676    682     1  0.0000000  0.6508444  3
    665    664    676    677     1  0.0000000  0.6508444  3
    665    664    676    678     1  0.0000000  0.6508444  3
    666    664    660    667     1  0.0000000  0.6508444  3
    666    664    660    689     1  0.0000000  0.6508444  3
    666    664    676    682     1  0.0000000  0.6508444  3
    666    664    676    677     1  0.0000000  0.6508444  3
    666    664    676    678     1  0.0000000  0.6508444  3
    667    670    679    680     1  0.0000000  0.6508444  3
    667    670    679    681     1  0.0000000  0.6508444  3
    668    667    660    689     1  0.0000000  0.6508444  3
    668    667    670    679     1  0.0000000  0.6508444  3
    668    667    670    671     1  0.0000000  0.6508444  3
    668    667    670    672     1  0.0000000  0.6508444  3
    669    667    660    689     1  0.0000000  0.6508444  3
    669    667    670    679     1  0.0000000  0.6508444  3
    669    667    670    671     1  0.0000000  0.6508444  3
    669    667    670    672     1  0.0000000  0.6508444  3
    670    667    660    689     1  0.0000000  0.6508444  3
    671    670    679    688     1  0.0000000  1.0460000  1
    671    670    679    688     1  0.0000000  0.0000000  3
    671    670    679    680     1  0.0000000  0.6508444  3
    671    670    679    681     1  0.0000000  0.6508444  3
    672    670    679    688     1  0.0000000  1.0460000  1
    672    670    679    688     1  0.0000000  0.0000000  3
    672    670    679    680     1  0.0000000  0.6508444  3
    672    670    679    681     1  0.0000000  0.6508444  3
    673    661    660    689     1  0.0000000  0.6508444  3
    674    673    685   1438     1  0.0000000  1.0460000  1
    674    673    685   1438     1  0.0000000  0.0000000  3
    674    673    685    686     1  0.0000000  0.6508444  3
    674    673    685    687     1  0.0000000  0.6508444  3
    675    673    685   1438     1  0.0000000  1.0460000  1
    675    673    685   1438     1  0.0000000  0.0000000  3
    675    673    685    686     1  0.0000000  0.6508444  3
    675    673    685    687     1  0.0000000  0.6508444  3
    676    664    660    689     1  0.0000000  0.6508444  3
    677    676    682   1408     1  0.0000000  1.0460000  1
    677    676    682   1408     1  0.0000000  0.0000000  3
    677    676    682    683     1  0.0000000  0.6508444  3
    677    676    682    684     1  0.0000000  0.6508444  3
    678    676    682   1408     1  0.0000000  1.0460000  1
    678    676    682   1408     1  0.0000000  0.0000000  3
    678    676    682    683     1  0.0000000  0.6508444  3
    678    676    682    684     1  0.0000000  0.6508444  3
    682   1408   1399   1400     1  0.0000000  1.6038667  3
    682   1408   1399   1401     1  0.0000000  1.6038667  3
    683    682   1408   1399     1  0.0000000  1.6038667  3
    684    682   1408   1399     1  0.0000000  1.6038667  3
    685   1438   1429   1430     1  0.0000000  1.6038667  3
    685   1438   1429   1431     1  0.0000000  1.6038667  3
    686    685   1438   1429     1  0.0000000  1.6038667  3
    687    685   1438   1429     1  0.0000000  1.6038667  3
    690    691    703    704     1  0.0000000  0.6508444  3
    690    691    703    705     1  0.0000000  0.6508444  3
    690    694    706    707     1  0.0000000  0.6508444  3
    690    694    706    708     1  0.0000000  0.6508444  3
    690    697    700    701     1  0.0000000  0.6508444  3
    690    697    700    702     1  0.0000000  0.6508444  3
    691    690    694    695     1  0.0000000  0.6508444  3
    691    690    694    696     1  0.0000000  0.6508444  3
    691    690    697    698     1  0.0000000  0.6508444  3
    691    690    697    699     1  0.0000000  0.6508444  3
    691    703    715    716     1  0.0000000  0.6508444  3
    691    703    715    717     1  0.0000000  0.6508444  3
    692    691    690    694     1  0.0000000  0.6508444  3
    692    691    690    697     1  0.0000000  0.6508444  3
    692    691    690    719     1  0.0000000  0.6508444  3
    692    691    703    715     1  0.0000000  0.6508444  3
    692    691    703    704     1  0.0000000  0.6508444  3
    692    691    703    705     1  0.0000000  0.6508444  3
    693    691    690    694     1  0.0000000  0.6508444  3
    693    691    690    697     1  0.0000000  0.6508444  3
    693    691    690    719     1  0.0000000  0.6508444  3
    693    691    703    715     1  0.0000000  0.6508444  3
    693    691    703    704     1  0.0000000  0.6508444  3
    693    691    703    705     1  0.0000000  0.6508444  3
    694    690    697    698     1  0.0000000  0.6508444  3
    694    690    697    699     1  0.0000000  0.6508444  3
    694    706    712    713     1  0.0000000  0.6508444  3
    694    706    712    714     1  0.0000000  0.6508444  3
    695    694    690    697     1  0.0000000  0.6508444  3
    695    694    690    719     1  0.0000000  0.6508444  3
    695    694    706    712     1  0.0000000  0.6508444  3
    695    694    706    707     1  0.0000000  0.6508444  3
    695    694    706    708     1  0.0000000  0.6508444  3
    696    694    690    697     1  0.0000000  0.6508444  3
    696    694    690    719     1  0.0000000  0.6508444  3
    696    694    706    712     1  0.0000000  0.6508444  3
    696    694    706    707     1  0.0000000  0.6508444  3
    696    694    706    708     1  0.0000000  0.6508444  3
    697    700    709    710     1  0.0000000  0.6508444  3
    697    700    709    711     1  0.0000000  0.6508444  3
    698    697    690    719     1  0.0000000  0.6508444  3
    698    697    700    709     1  0.0000000  0.6508444  3
    698    697    700    701     1  0.0000000  0.6508444  3
    698    697    700    702     1  0.0000000  0.6508444  3
    699    697    690    719     1  0.0000000  0.6508444  3
    699    697    700    709     1  0.0000000  0.6508444  3
    699    697    700    701     1  0.0000000  0.6508444  3
    699    697    700    702     1  0.0000000  0.6508444  3
    700    697    690    719     1  0.0000000  0.6508444  3
    701    700    709    718     1  0.0000000  1.0460000  1
    701    700    709    718     1  0.0000000  0.0000000  3
    701    700    709    710     1  0.0000000  0.6508444  3
    701    700    709    711     1  0.0000000  0.6508444  3
    702    700    709    718     1  0.0000000  1.0460000  1
    702    700    709    718     1  0.0000000  0.0000000  3
    702    700    709    710     1  0.0000000  0.6508444  3
    702    700    709    711     1  0.0000000  0.6508444  3
    703    691    690    719     1  0.0000000  0.6508444  3
    704    703    715   1498     1  0.0000000  1.0460000  1
    704    703    715   1498     1  0.0000000  0.0000000  3
    704    703    715    716     1  0.0000000  0.6508444  3
    704    703    715    717     1  0.0000000  0.6508444  3
    705    703    715   1498     1  0.0000000  1.0460000  1
    705    703    715   1498     1  0.0000000  0.0000000  3
    705    703    715    716     1  0.0000000  0.6508444  3
    705    703    715    717     1  0.0000000  0.6508444  3
    706    694    690    719     1  0.0000000  0.6508444  3
    707    706    712   1468     1  0.0000000  1.0460000  1
    707    706    712   1468     1  0.0000000  0.0000000  3
    707    706    712    713     1  0.0000000  0.6508444  3
    707    706    712    714     1  0.0000000  0.6508444  3
    708    706    712   1468     1  0.0000000  1.0460000  1
    708    706    712   1468     1  0.0000000  0.0000000  3
    708    706    712    713     1  0.0000000  0.6508444  3
    708    706    712    714     1  0.0000000  0.6508444  3
    712   1468   1459   1460     1  0.0000000  1.6038667  3
    712   1468   1459   1461     1  0.0000000  1.6038667  3
    713    712   1468   1459     1  0.0000000  1.6038667  3
    714    712   1468   1459     1  0.0000000  1.6038667  3
    715   1498   1489   1490     1  0.0000000  1.6038667  3
    715   1498   1489   1491     1  0.0000000  1.6038667  3
    716    715   1498   1489     1  0.0000000  1.6038667  3
    717    715   1498   1489     1  0.0000000  1.6038667  3
    720    721    733    734     1  0.0000000  0.6508444  3
    720    721    733    735     1  0.0000000  0.6508444  3
    720    724    736    737     1  0.0000000  0.6508444  3
    720    724    736    738     1  0.0000000  0.6508444  3
    720    727    730    731     1  0.0000000  0.6508444  3
    720    727    730    732     1  0.0000000  0.6508444  3
    721    720    724    725     1  0.0000000  0.6508444  3
    721    720    724    726     1  0.0000000  0.6508444  3
    721    720    727    728     1  0.0000000  0.6508444  3
    721    720    727    729     1  0.0000000  0.6508444  3
    721    733    745    746     1  0.0000000  0.6508444  3
    721    733    745    747     1  0.0000000  0.6508444  3
    722    721    720    724     1  0.0000000  0.6508444  3
    722    721    720    727     1  0.0000000  0.6508444  3
    722    721    720    749     1  0.0000000  0.6508444  3
    722    721    733    745     1  0.0000000  0.6508444  3
    722    721    733    734     1  0.0000000  0.6508444  3
    722    721    733    735     1  0.0000000  0.6508444  3
    723    721    720    724     1  0.0000000  0.6508444  3
    723    721    720    727     1  0.0000000  0.6508444  3
    723    721    720    749     1  0.0000000  0.6508444  3
    723    721    733    745     1  0.0000000  0.6508444  3
    723    721    733    734     1  0.0000000  0.6508444  3
    723    721    733    735     1  0.0000000  0.6508444  3
    724    720    727    728     1  0.0000000  0.6508444  3
    724    720    727    729     1  0.0000000  0.6508444  3
    724    736    742    743     1  0.0000000  0.6508444  3
    724    736    742    744     1  0.0000000  0.6508444  3
    725    724    720    727     1  0.0000000  0.6508444  3
    725    724    720    749     1  0.0000000  0.6508444  3
    725    724    736    742     1  0.0000000  0.6508444  3
    725    724    736    737     1  0.0000000  0.6508444  3
    725    724    736    738     1  0.0000000  0.6508444  3
    726    724    720    727     1  0.0000000  0.6508444  3
    726    724    720    749     1  0.0000000  0.6508444  3
    726    724    736    742     1  0.0000000  0.6508444  3
    726    724    736    737     1  0.0000000  0.6508444  3
    726    724    736    738     1  0.0000000  0.6508444  3
    727    730    739    740     1  0.0000000  0.6508444  3
    727    730    739    741     1  0.0000000  0.6508444  3
    728    727    720    749     1  0.0000000  0.6508444  3
    728    727    730    739     1  0.0000000  0.6508444  3
    728    727    730    731     1  0.0000000  0.6508444  3
    728    727    730    732     1  0.0000000  0.6508444  3
    729    727    720    749     1  0.0000000  0.6508444  3
    729    727    730    739     1  0.0000000  0.6508444  3
    729    727    730    731     1  0.0000000  0.6508444  3
    729    727    730    732     1  0.0000000  0.6508444  3
    730    727    720    749     1  0.0000000  0.6508444  3
    731    730    739    748     1  0.0000000  1.0460000  1
    731    730    739    748     1  0.0000000  0.0000000  3
    731    730    739    740     1  0.0000000  0.6508444  3
    731    730    739    741     1  0.0000000  0.6508444  3
    732    730    739    748     1  0.0000000  1.0460000  1
    732    730    739    748     1  0.0000000  0.0000000  3
    732    730    739    740     1  0.0000000  0.6508444  3
    732    730    739    741     1  0.0000000  0.6508444  3
    733    721    720    749     1  0.0000000  0.6508444  3
    734    733    745   1558     1  0.0000000  1.0460000  1
    734    733    745   1558     1  0.0000000  0.0000000  3
    734    733    745    746     1  0.0000000  0.6508444  3
    734    733    745    747     1  0.0000000  0.6508444  3
    735    733    745   1558     1  0.0000000  1.0460000  1
    735    733    745   1558     1  0.0000000  0.0000000  3
    735    733    745    746     1  0.0000000  0.6508444  3
    735    733    745    747     1  0.0000000  0.6508444  3
    736    724    720    749     1  0.0000000  0.6508444  3
    737    736    742   1528     1  0.0000000  1.0460000  1
    737    736    742   1528     1  0.0000000  0.0000000  3
    737    736    742    743     1  0.0000000  0.6508444  3
    737    736    742    744     1  0.0000000  0.6508444  3
    738    736    742   1528     1  0.0000000  1.0460000  1
    738    736    742   1528     1  0.0000000  0.0000000  3
    738    736    742    743     1  0.0000000  0.6508444  3
    738    736    742    744     1  0.0000000  0.6508444  3
    742   1528   1519   1520     1  0.0000000  1.6038667  3
    742   1528   1519   1521     1  0.0000000  1.6038667  3
    743    742   1528   1519     1  0.0000000  1.6038667  3
    744    742   1528   1519     1  0.0000000  1.6038667  3
    745   1558   1549   1550     1  0.0000000  1.6038667  3
    745   1558   1549   1551     1  0.0000000  1.6038667  3
    746    745   1558   1549     1  0.0000000  1.6038667  3
    747    745   1558   1549     1  0.0000000  1.6038667  3
    750    751    763    764     1  0.0000000  0.6508444  3
    750    751    763    765     1  0.0000000  0.6508444  3
    750    754    766    767     1  0.0000000  0.6508444  3
    750    754    766    768     1  0.0000000  0.6508444  3
    750    757    760    761     1  0.0000000  0.6508444  3
    750    757    760    762     1  0.0000000  0.6508444  3
    751    750    754    755     1  0.0000000  0.6508444  3
    751    750    754    756     1  0.0000000  0.6508444  3
    751    750    757    758     1  0.0000000  0.6508444  3
    751    750    757    759     1  0.0000000  0.6508444  3
    751    763    775    776     1  0.0000000  0.6508444  3
    751    763    775    777     1  0.0000000  0.6508444  3
    752    751    750    754     1  0.0000000  0.6508444  3
    752    751    750    757     1  0.0000000  0.6508444  3
    752    751    750    779     1  0.0000000  0.6508444  3
    752    751    763    775     1  0.0000000  0.6508444  3
    752    751    763    764     1  0.0000000  0.6508444  3
    752    751    763    765     1  0.0000000  0.6508444  3
    753    751    750    754     1  0.0000000  0.6508444  3
    753    751    750    757     1  0.0000000  0.6508444  3
    753    751    750    779     1  0.0000000  0.6508444  3
    753    751    763    775     1  0.0000000  0.6508444  3
    753    751    763    764     1  0.0000000  0.6508444  3
    753    751    763    765     1  0.0000000  0.6508444  3
    754    750    757    758     1  0.0000000  0.6508444  3
    754    750    757    759     1  0.0000000  0.6508444  3
    754    766    772    773     1  0.0000000  0.6508444  3
    754    766    772    774     1  0.0000000  0.6508444  3
    755    754    750    757     1  0.0000000  0.6508444  3
    755    754    750    779     1  0.0000000  0.6508444  3
    755    754    766    772     1  0.0000000  0.6508444  3
    755    754    766    767     1  0.0000000  0.6508444  3
    755    754    766    768     1  0.0000000  0.6508444  3
    756    754    750    757     1  0.0000000  0.6508444  3
    756    754    750    779     1  0.0000000  0.6508444  3
    756    754    766    772     1  0.0000000  0.6508444  3
    756    754    766    767     1  0.0000000  0.6508444  3
    756    754    766    768     1  0.0000000  0.6508444  3
    757    760    769    770     1  0.0000000  0.6508444  3
    757    760    769    771     1  0.0000000  0.6508444  3
    758    757    750    779     1  0.0000000  0.6508444  3
    758    757    760    769     1  0.0000000  0.6508444  3
    758    757    760    761     1  0.0000000  0.6508444  3
    758    757    760    762     1  0.0000000  0.6508444  3
    759    757    750    779     1  0.0000000  0.6508444  3
    759    757    760    769     1  0.0000000  0.6508444  3
    759    757    760    761     1  0.0000000  0.6508444  3
    759    757    760    762     1  0.0000000  0.6508444  3
    760    757    750    779     1  0.0000000  0.6508444  3
    761    760    769    778     1  0.0000000  1.0460000  1
    761    760    769    778     1  0.0000000  0.0000000  3
    761    760    769    770     1  0.0000000  0.6508444  3
    761    760    769    771     1  0.0000000  0.6508444  3
    762    760    769    778     1  0.0000000  1.0460000  1
    762    760    769    778     1  0.0000000  0.0000000  3
    762    760    769    770     1  0.0000000  0.6508444  3
    762    760    769    771     1  0.0000000  0.6508444  3
    763    751    750    779     1  0.0000000  0.6508444  3
    764    763    775   1618     1  0.0000000  1.0460000  1
    764    763    775   1618     1  0.0000000  0.0000000  3
    764    763    775    776     1  0.0000000  0.6508444  3
    764    763    775    777     1  0.0000000  0.6508444  3
    765    763    775   1618     1  0.0000000  1.0460000  1
    765    763    775   1618     1  0.0000000  0.0000000  3
    765    763    775    776     1  0.0000000  0.6508444  3
    765    763    775    777     1  0.0000000  0.6508444  3
    766    754    750    779     1  0.0000000  0.6508444  3
    767    766    772   1588     1  0.0000000  1.0460000  1
    767    766    772   1588     1  0.0000000  0.0000000  3
    767    766    772    773     1  0.0000000  0.6508444  3
    767    766    772    774     1  0.0000000  0.6508444  3
    768    766    772   1588     1  0.0000000  1.0460000  1
    768    766    772   1588     1  0.0000000  0.0000000  3
    768    766    772    773     1  0.0000000  0.6508444  3
    768    766    772    774     1  0.0000000  0.6508444  3
    772   1588   1579   1580     1  0.0000000  1.6038667  3
    772   1588   1579   1581     1  0.0000000  1.6038667  3
    773    772   1588   1579     1  0.0000000  1.6038667  3
    774    772   1588   1579     1  0.0000000  1.6038667  3
    775   1618   1609   1610     1  0.0000000  1.6038667  3
    775   1618   1609   1611     1  0.0000000  1.6038667  3
    776    775   1618   1609     1  0.0000000  1.6038667  3
    777    775   1618   1609     1  0.0000000  1.6038667  3
    780    781    793    794     1  0.0000000  0.6508444  3
    780    781    793    795     1  0.0000000  0.6508444  3
    780    784    796    797     1  0.0000000  0.6508444  3
    780    784    796    798     1  0.0000000  0.6508444  3
    780    787    790    791     1  0.0000000  0.6508444  3
    780    787    790    792     1  0.0000000  0.6508444  3
    781    780    784    785     1  0.0000000  0.6508444  3
    781    780    784    786     1  0.0000000  0.6508444  3
    781    780    787    788     1  0.0000000  0.6508444  3
    781    780    787    789     1  0.0000000  0.6508444  3
    781    793    805    806     1  0.0000000  0.6508444  3
    781    793    805    807     1  0.0000000  0.6508444  3
    782    781    780    784     1  0.0000000  0.6508444  3
    782    781    780    787     1  0.0000000  0.6508444  3
    782    781    780    809     1  0.0000000  0.6508444  3
    782    781    793    805     1  0.0000000  0.6508444  3
    782    781    793    794     1  0.0000000  0.6508444  3
    782    781    793    795     1  0.0000000  0.6508444  3
    783    781    780    784     1  0.0000000  0.6508444  3
    783    781    780    787     1  0.0000000  0.6508444  3
    783    781    780    809     1  0.0000000  0.6508444  3
    783    781    793    805     1  0.0000000  0.6508444  3
    783    781    793    794     1  0.0000000  0.6508444  3
    783    781    793    795     1  0.0000000  0.6508444  3
    784    780    787    788     1  0.0000000  0.6508444  3
    784    780    787    789     1  0.0000000  0.6508444  3
    784    796    802    803     1  0.0000000  0.6508444  3
    784    796    802    804     1  0.0000000  0.6508444  3
    785    784    780    787     1  0.0000000  0.6508444  3
    785    784    780    809     1  0.0000000  0.6508444  3
    785    784    796    802     1  0.0000000  0.6508444  3
    785    784    796    797     1  0.0000000  0.6508444  3
    785    784    796    798     1  0.0000000  0.6508444  3
    786    784    780    787     1  0.0000000  0.6508444  3
    786    784    780    809     1  0.0000000  0.6508444  3
    786    784    796    802     1  0.0000000  0.6508444  3
    786    784    796    797     1  0.0000000  0.6508444  3
    786    784    796    798     1  0.0000000  0.6508444  3
    787    790    799    800     1  0.0000000  0.6508444  3
    787    790    799    801     1  0.0000000  0.6508444  3
    788    787    780    809     1  0.0000000  0.6508444  3
    788    787    790    799     1  0.0000000  0.6508444  3
    788    787    790    791     1  0.0000000  0.6508444  3
    788    787    790    792     1  0.0000000  0.6508444  3
    789    787    780    809     1  0.0000000  0.6508444  3
    789    787    790    799     1  0.0000000  0.6508444  3
    789    787    790    791     1  0.0000000  0.6508444  3
    789    787    790    792     1  0.0000000  0.6508444  3
    790    787    780    809     1  0.0000000  0.6508444  3
    791    790    799    808     1  0.0000000  1.0460000  1
    791    790    799    808     1  0.0000000  0.0000000  3
    791    790    799    800     1  0.0000000  0.6508444  3
    791    790    799    801     1  0.0000000  0.6508444  3
    792    790    799    808     1  0.0000000  1.0460000  1
    792    790    799    808     1  0.0000000  0.0000000  3
    792    790    799    800     1  0.0000000  0.6508444  3
    792    790    799    801     1  0.0000000  0.6508444  3
    793    781    780    809     1  0.0000000  0.6508444  3
    794    793    805   1678     1  0.0000000  1.0460000  1
    794    793    805   1678     1  0.0000000  0.0000000  3
    794    793    805    806     1  0.0000000  0.6508444  3
    794    793    805    807     1  0.0000000  0.6508444  3
    795    793    805   1678     1  0.0000000  1.0460000  1
    795    793    805   1678     1  0.0000000  0.0000000  3
    795    793    805    806     1  0.0000000  0.6508444  3
    795    793    805    807     1  0.0000000  0.6508444  3
    796    784    780    809     1  0.0000000  0.6508444  3
    797    796    802   1648     1  0.0000000  1.0460000  1
    797    796    802   1648     1  0.0000000  0.0000000  3
    797    796    802    803     1  0.0000000  0.6508444  3
    797    796    802    804     1  0.0000000  0.6508444  3
    798    796    802   1648     1  0.0000000  1.0460000  1
    798    796    802   1648     1  0.0000000  0.0000000  3
    798    796    802    803     1  0.0000000  0.6508444  3
    798    796    802    804     1  0.0000000  0.6508444  3
    802   1648   1639   1640     1  0.0000000  1.6038667  3
    802   1648   1639   1641     1  0.0000000  1.6038667  3
    803    802   1648   1639     1  0.0000000  1.6038667  3
    804    802   1648   1639     1  0.0000000  1.6038667  3
    805   1678   1669   1670     1  0.0000000  1.6038667  3
    805   1678   1669   1671     1  0.0000000  1.6038667  3
    806    805   1678   1669     1  0.0000000  1.6038667  3
    807    805   1678   1669     1  0.0000000  1.6038667  3
    810    811    823    824     1  0.0000000  0.6508444  3
    810    811    823    825     1  0.0000000  0.6508444  3
    810    814    826    827     1  0.0000000  0.6508444  3
    810    814    826    828     1  0.0000000  0.6508444  3
    810    817    820    821     1  0.0000000  0.6508444  3
    810    817    820    822     1  0.0000000  0.6508444  3
    811    810    814    815     1  0.0000000  0.6508444  3
    811    810    814    816     1  0.0000000  0.6508444  3
    811    810    817    818     1  0.0000000  0.6508444  3
    811    810    817    819     1  0.0000000  0.6508444  3
    811    823    835    836     1  0.0000000  0.6508444  3
    811    823    835    837     1  0.0000000  0.6508444  3
    812    811    810    814     1  0.0000000  0.6508444  3
    812    811    810    817     1  0.0000000  0.6508444  3
    812    811    810    839     1  0.0000000  0.6508444  3
    812    811    823    835     1  0.0000000  0.6508444  3
    812    811    823    824     1  0.0000000  0.6508444  3
    812    811    823    825     1  0.0000000  0.6508444  3
    813    811    810    814     1  0.0000000  0.6508444  3
    813    811    810    817     1  0.0000000  0.6508444  3
    813    811    810    839     1  0.0000000  0.6508444  3
    813    811    823    835     1  0.0000000  0.6508444  3
    813    811    823    824     1  0.0000000  0.6508444  3
    813    811    823    825     1  0.0000000  0.6508444  3
    814    810    817    818     1  0.0000000  0.6508444  3
    814    810    817    819     1  0.0000000  0.6508444  3
    814    826    832    833     1  0.0000000  0.6508444  3
    814    826    832    834     1  0.0000000  0.6508444  3
    815    814    810    817     1  0.0000000  0.6508444  3
    815    814    810    839     1  0.0000000  0.6508444  3
    815    814    826    832     1  0.0000000  0.6508444  3
    815    814    826    827     1  0.0000000  0.6508444  3
    815    814    826    828     1  0.0000000  0.6508444  3
    816    814    810    817     1  0.0000000  0.6508444  3
    816    814    810    839     1  0.0000000  0.6508444  3
    816    814    826    832     1  0.0000000  0.6508444  3
    816    814    826    827     1  0.0000000  0.6508444  3
    816    814    826    828     1  0.0000000  0.6508444  3
    817    820    829    830     1  0.0000000  0.6508444  3
    817    820    829    831     1  0.0000000  0.6508444  3
    818    817    810    839     1  0.0000000  0.6508444  3
    818    817    820    829     1  0.0000000  0.6508444  3
    818    817    820    821     1  0.0000000  0.6508444  3
    818    817    820    822     1  0.0000000  0.6508444  3
    819    817    810    839     1  0.0000000  0.6508444  3
    819    817    820    829     1  0.0000000  0.6508444  3
    819    817    820    821     1  0.0000000  0.6508444  3
    819    817    820    822     1  0.0000000  0.6508444  3
    820    817    810    839     1  0.0000000  0.6508444  3
    821    820    829    838     1  0.0000000  1.0460000  1
    821    820    829    838     1  0.0000000  0.0000000  3
    821    820    829    830     1  0.0000000  0.6508444  3
    821    820    829    831     1  0.0000000  0.6508444  3
    822    820    829    838     1  0.0000000  1.0460000  1
    822    820    829    838     1  0.0000000  0.0000000  3
    822    820    829    830     1  0.0000000  0.6508444  3
    822    820    829    831     1  0.0000000  0.6508444  3
    823    811    810    839     1  0.0000000  0.6508444  3
    824    823    835   1738     1  0.0000000  1.0460000  1
    824    823    835   1738     1  0.0000000  0.0000000  3
    824    823    835    836     1  0.0000000  0.6508444  3
    824    823    835    837     1  0.0000000  0.6508444  3
    825    823    835   1738     1  0.0000000  1.0460000  1
    825    823    835   1738     1  0.0000000  0.0000000  3
    825    823    835    836     1  0.0000000  0.6508444  3
    825    823    835    837     1  0.0000000  0.6508444  3
    826    814    810    839     1  0.0000000  0.6508444  3
    827    826    832   1708     1  0.0000000  1.0460000  1
    827    826    832   1708     1  0.0000000  0.0000000  3
    827    826    832    833     1  0.0000000  0.6508444  3
    827    826    832    834     1  0.0000000  0.6508444  3
    828    826    832   1708     1  0.0000000  1.0460000  1
    828    826    832   1708     1  0.0000000  0.0000000  3
    828    826    832    833     1  0.0000000  0.6508444  3
    828    826    832    834     1  0.0000000  0.6508444  3
    832   1708   1699   1700     1  0.0000000  1.6038667  3
    832   1708   1699   1701     1  0.0000000  1.6038667  3
    833    832   1708   1699     1  0.0000000  1.6038667  3
    834    832   1708   1699     1  0.0000000  1.6038667  3
    835   1738   1729   1730     1  0.0000000  1.6038667  3
    835   1738   1729   1731     1  0.0000000  1.6038667  3
    836    835   1738   1729     1  0.0000000  1.6038667  3
    837    835   1738   1729     1  0.0000000  1.6038667  3
    840    841    853    854     1  0.0000000  0.6508444  3
    840    841    853    855     1  0.0000000  0.6508444  3
    840    844    856    857     1  0.0000000  0.6508444  3
    840    844    856    858     1  0.0000000  0.6508444  3
    840    847    850    851     1  0.0000000  0.6508444  3
    840    847    850    852     1  0.0000000  0.6508444  3
    841    840    844    845     1  0.0000000  0.6508444  3
    841    840    844    846     1  0.0000000  0.6508444  3
    841    840    847    848     1  0.0000000  0.6508444  3
    841    840    847    849     1  0.0000000  0.6508444  3
    841    853    865    866     1  0.0000000  0.6508444  3
    841    853    865    867     1  0.0000000  0.6508444  3
    842    841    840    844     1  0.0000000  0.6508444  3
    842    841    840    847     1  0.0000000  0.6508444  3
    842    841    840    869     1  0.0000000  0.6508444  3
    842    841    853    865     1  0.0000000  0.6508444  3
    842    841    853    854     1  0.0000000  0.6508444  3
    842    841    853    855     1  0.0000000  0.6508444  3
    843    841    840    844     1  0.0000000  0.6508444  3
    843    841    840    847     1  0.0000000  0.6508444  3
    843    841    840    869     1  0.0000000  0.6508444  3
    843    841    853    865     1  0.0000000  0.6508444  3
    843    841    853    854     1  0.0000000  0.6508444  3
    843    841    853    855     1  0.0000000  0.6508444  3
    844    840    847    848     1  0.0000000  0.6508444  3
    844    840    847    849     1  0.0000000  0.6508444  3
    844    856    862    863     1  0.0000000  0.6508444  3
    844    856    862    864     1  0.0000000  0.6508444  3
    845    844    840    847     1  0.0000000  0.6508444  3
    845    844    840    869     1  0.0000000  0.6508444  3
    845    844    856    862     1  0.0000000  0.6508444  3
    845    844    856    857     1  0.0000000  0.6508444  3
    845    844    856    858     1  0.0000000  0.6508444  3
    846    844    840    847     1  0.0000000  0.6508444  3
    846    844    840    869     1  0.0000000  0.6508444  3
    846    844    856    862     1  0.0000000  0.6508444  3
    846    844    856    857     1  0.0000000  0.6508444  3
    846    844    856    858     1  0.0000000  0.6508444  3
    847    850    859    860     1  0.0000000  0.6508444  3
    847    850    859    861     1  0.0000000  0.6508444  3
    848    847    840    869     1  0.0000000  0.6508444  3
    848    847    850    859     1  0.0000000  0.6508444  3
    848    847    850    851     1  0.0000000  0.6508444  3
    848    847    850    852     1  0.0000000  0.6508444  3
    849    847    840    869     1  0.0000000  0.6508444  3
    849    847    850    859     1  0.0000000  0.6508444  3
    849    847    850    851     1  0.0000000  0.6508444  3
    849    847    850    852     1  0.0000000  0.6508444  3
    850    847    840    869     1  0.0000000  0.6508444  3
    851    850    859    868     1  0.0000000  1.0460000  1
    851    850    859    868     1  0.0000000  0.0000000  3
    851    850    859    860     1  0.0000000  0.6508444  3
    851    850    859    861     1  0.0000000  0.6508444  3
    852    850    859    868     1  0.0000000  1.0460000  1
    852    850    859    868     1  0.0000000  0.0000000  3
    852    850    859    860     1  0.0000000  0.6508444  3
    852    850    859    861     1  0.0000000  0.6508444  3
    853    841    840    869     1  0.0000000  0.6508444  3
    854    853    865   1798     1  0.0000000  1.0460000  1
    854    853    865   1798     1  0.0000000  0.0000000  3
    854    853    865    866     1  0.0000000  0.6508444  3
    854    853    865    867     1  0.0000000  0.6508444  3
    855    853    865   1798     1  0.0000000  1.0460000  1
    855    853    865   1798     1  0.0000000  0.0000000  3
    855    853    865    866     1  0.0000000  0.6508444  3
    855    853    865    867     1  0.0000000  0.6508444  3
    856    844    840    869     1  0.0000000  0.6508444  3
    857    856    862   1768     1  0.0000000  1.0460000  1
    857    856    862   1768     1  0.0000000  0.0000000  3
    857    856    862    863     1  0.0000000  0.6508444  3
    857    856    862    864     1  0.0000000  0.6508444  3
    858    856    862   1768     1  0.0000000  1.0460000  1
    858    856    862   1768     1  0.0000000  0.0000000  3
    858    856    862    863     1  0.0000000  0.6508444  3
    858    856    862    864     1  0.0000000  0.6508444  3
    862   1768   1759   1760     1  0.0000000  1.6038667  3
    862   1768   1759   1761     1  0.0000000  1.6038667  3
    863    862   1768   1759     1  0.0000000  1.6038667  3
    864    862   1768   1759     1  0.0000000  1.6038667  3
    865   1798   1789   1790     1  0.0000000  1.6038667  3
    865   1798   1789   1791     1  0.0000000  1.6038667  3
    866    865   1798   1789     1  0.0000000  1.6038667  3
    867    865   1798   1789     1  0.0000000  1.6038667  3
    870    871    883    884     1  0.0000000  0.6508444  3
    870    871    883    885     1  0.0000000  0.6508444  3
    870    874    886    887     1  0.0000000  0.6508444  3
    870    874    886    888     1  0.0000000  0.6508444  3
    870    877    880    881     1  0.0000000  0.6508444  3
    870    877    880    882     1  0.0000000  0.6508444  3
    871    870    874    875     1  0.0000000  0.6508444  3
    871    870    874    876     1  0.0000000  0.6508444  3
    871    870    877    878     1  0.0000000  0.6508444  3
    871    870    877    879     1  0.0000000  0.6508444  3
    871    883    895    896     1  0.0000000  0.6508444  3
    871    883    895    897     1  0.0000000  0.6508444  3
    872    871    870    874     1  0.0000000  0.6508444  3
    872    871    870    877     1  0.0000000  0.6508444  3
    872    871    870    899     1  0.0000000  0.6508444  3
    872    871    883    895     1  0.0000000  0.6508444  3
    872    871    883    884     1  0.0000000  0.6508444  3
    872    871    883    885     1  0.0000000  0.6508444  3
    873    871    870    874     1  0.0000000  0.6508444  3
    873    871    870    877     1  0.0000000  0.6508444  3
    873    871    870    899     1  0.0000000  0.6508444  3
    873    871    883    895     1  0.0000000  0.6508444  3
    873    871    883    884     1  0.0000000  0.6508444  3
    873    871    883    885     1  0.0000000  0.6508444  3
    874    870    877    878     1  0.0000000  0.6508444  3
    874    870    877    879     1  0.0000000  0.6508444  3
    874    886    892    893     1  0.0000000  0.6508444  3
    874    886    892    894     1  0.0000000  0.6508444  3
    875    874    870    877     1  0.0000000  0.6508444  3
    875    874    870    899     1  0.0000000  0.6508444  3
    875    874    886    892     1  0.0000000  0.6508444  3
    875    874    886    887     1  0.0000000  0.6508444  3
    875    874    886    888     1  0.0000000  0.6508444  3
    876    874    870    877     1  0.0000000  0.6508444  3
    876    874    870    899     1  0.0000000  0.6508444  3
    876    874    886    892     1  0.0000000  0.6508444  3
    876    874    886    887     1  0.0000000  0.6508444  3
    876    874    886    888     1  0.0000000  0.6508444  3
    877    880    889    890     1  0.0000000  0.6508444  3
    877    880    889    891     1  0.0000000  0.6508444  3
    878    877    870    899     1  0.0000000  0.6508444  3
    878    877    880    889     1  0.0000000  0.6508444  3
    878    877    880    881     1  0.0000000  0.6508444  3
    878    877    880    882     1  0.0000000  0.6508444  3
    879    877    870    899     1  0.0000000  0.6508444  3
    879    877    880    889     1  0.0000000  0.6508444  3
    879    877    880    881     1  0.0000000  0.6508444  3
    879    877    880    882     1  0.0000000  0.6508444  3
    880    877    870    899     1  0.0000000  0.6508444  3
    881    880    889    898     1  0.0000000  1.0460000  1
    881    880    889    898     1  0.0000000  0.0000000  3
    881    880    889    890     1  0.0000000  0.6508444  3
    881    880    889    891     1  0.0000000  0.6508444  3
    882    880    889    898     1  0.0000000  1.0460000  1
    882    880    889    898     1  0.0000000  0.0000000  3
    882    880    889    890     1  0.0000000  0.6508444  3
    882    880    889    891     1  0.0000000  0.6508444  3
    883    871    870    899     1  0.0000000  0.6508444  3
    884    883    895   1858     1  0.0000000  1.0460000  1
    884    883    895   1858     1  0.0000000  0.0000000  3
    884    883    895    896     1  0.0000000  0.6508444  3
    884    883    895    897     1  0.0000000  0.6508444  3
    885    883    895   1858     1  0.0000000  1.0460000  1
    885    883    895   1858     1  0.0000000  0.0000000  3
    885    883    895    896     1  0.0000000  0.6508444  3
    885    883    895    897     1  0.0000000  0.6508444  3
    886    874    870    899     1  0.0000000  0.6508444  3
    887    886    892   1828     1  0.0000000  1.0460000  1
    887    886    892   1828     1  0.0000000  0.0000000  3
    887    886    892    893     1  0.0000000  0.6508444  3
    887    886    892    894     1  0.0000000  0.6508444  3
    888    886    892   1828     1  0.0000000  1.0460000  1
    888    886    892   1828     1  0.0000000  0.0000000  3
    888    886    892    893     1  0.0000000  0.6508444  3
    888    886    892    894     1  0.0000000  0.6508444  3
    892   1828   1819   1820     1  0.0000000  1.6038667  3
    892   1828   1819   1821     1  0.0000000  1.6038667  3
    893    892   1828   1819     1  0.0000000  1.6038667  3
    894    892   1828   1819     1  0.0000000  1.6038667  3
    895   1858   1849   1850     1  0.0000000  1.6038667  3
    895   1858   1849   1851     1  0.0000000  1.6038667  3
    896    895   1858   1849     1  0.0000000  1.6038667  3
    897    895   1858   1849     1  0.0000000  1.6038667  3
    900    901    913    914     1  0.0000000  0.6508444  3
    900    901    913    915     1  0.0000000  0.6508444  3
    900    904    916    917     1  0.0000000  0.6508444  3
    900    904    916    918     1  0.0000000  0.6508444  3
    900    907    910    911     1  0.0000000  0.6508444  3
    900    907    910    912     1  0.0000000  0.6508444  3
    901    900    904    905     1  0.0000000  0.6508444  3
    901    900    904    906     1  0.0000000  0.6508444  3
    901    900    907    908     1  0.0000000  0.6508444  3
    901    900    907    909     1  0.0000000  0.6508444  3
    901    913    925    926     1  0.0000000  0.6508444  3
    901    913    925    927     1  0.0000000  0.6508444  3
    902    901    900    904     1  0.0000000  0.6508444  3
    902    901    900    907     1  0.0000000  0.6508444  3
    902    901    900    929     1  0.0000000  0.6508444  3
    902    901    913    925     1  0.0000000  0.6508444  3
    902    901    913    914     1  0.0000000  0.6508444  3
    902    901    913    915     1  0.0000000  0.6508444  3
    903    901    900    904     1  0.0000000  0.6508444  3
    903    901    900    907     1  0.0000000  0.6508444  3
    903    901    900    929     1  0.0000000  0.6508444  3
    903    901    913    925     1  0.0000000  0.6508444  3
    903    901    913    914     1  0.0000000  0.6508444  3
    903    901    913    915     1  0.0000000  0.6508444  3
    904    900    907    908     1  0.0000000  0.6508444  3
    904    900    907    909     1  0.0000000  0.6508444  3
    904    916    922    923     1  0.0000000  0.6508444  3
    904    916    922    924     1  0.0000000  0.6508444  3
    905    904    900    907     1  0.0000000  0.6508444  3
    905    904    900    929     1  0.0000000  0.6508444  3
    905    904    916    922     1  0.0000000  0.6508444  3
    905    904    916    917     1  0.0000000  0.6508444  3
    905    904    916    918     1  0.0000000  0.6508444  3
    906    904    900    907     1  0.0000000  0.6508444  3
    906    904    900    929     1  0.0000000  0.6508444  3
    906    904    916    922     1  0.0000000  0.6508444  3
    906    904    916    917     1  0.0000000  0.6508444  3
    906    904    916    918     1  0.0000000  0.6508444  3
    907    910    919    920     1  0.0000000  0.6508444  3
    907    910    919    921     1  0.0000000  0.6508444  3
    908    907    900    929     1  0.0000000  0.6508444  3
    908    907    910    919     1  0.0000000  0.6508444  3
    908    907    910    911     1  0.0000000  0.6508444  3
    908    907    910    912     1  0.0000000  0.6508444  3
    909    907    900    929     1  0.0000000  0.6508444  3
    909    907    910    919     1  0.0000000  0.6508444  3
    909    907    910    911     1  0.0000000  0.6508444  3
    909    907    910    912     1  0.0000000  0.6508444  3
    910    907    900    929     1  0.0000000  0.6508444  3
    911    910    919    928     1  0.0000000  1.0460000  1
    911    910    919    928     1  0.0000000  0.0000000  3
    911    910    919    920     1  0.0000000  0.6508444  3
    911    910    919    921     1  0.0000000  0.6508444  3
    912    910    919    928     1  0.0000000  1.0460000  1
    912    910    919    928     1  0.0000000  0.0000000  3
    912    910    919    920     1  0.0000000  0.6508444  3
    912    910    919    921     1  0.0000000  0.6508444  3
    913    901    900    929     1  0.0000000  0.6508444  3
    914    913    925   1918     1  0.0000000  1.0460000  1
    914    913    925   1918     1  0.0000000  0.0000000  3
    914    913    925    926     1  0.0000000  0.6508444  3
    914    913    925    927     1  0.0000000  0.6508444  3
    915    913    925   1918     1  0.0000000  1.0460000  1
    915    913    925   1918     1  0.0000000  0.0000000  3
    915    913    925    926     1  0.0000000  0.6508444  3
    915    913    925    927     1  0.0000000  0.6508444  3
    916    904    900    929     1  0.0000000  0.6508444  3
    917    916    922   1888     1  0.0000000  1.0460000  1
    917    916    922   1888     1  0.0000000  0.0000000  3
    917    916    922    923     1  0.0000000  0.6508444  3
    917    916    922    924     1  0.0000000  0.6508444  3
    918    916    922   1888     1  0.0000000  1.0460000  1
    918    916    922   1888     1  0.0000000  0.0000000  3
    918    916    922    923     1  0.0000000  0.6508444  3
    918    916    922    924     1  0.0000000  0.6508444  3
    922   1888   1879   1880     1  0.0000000  1.6038667  3
    922   1888   1879   1881     1  0.0000000  1.6038667  3
    923    922   1888   1879     1  0.0000000  1.6038667  3
    924    922   1888   1879     1  0.0000000  1.6038667  3
    925   1918   1909   1910     1  0.0000000  1.6038667  3
    925   1918   1909   1911     1  0.0000000  1.6038667  3
    926    925   1918   1909     1  0.0000000  1.6038667  3
    927    925   1918   1909     1  0.0000000  1.6038667  3
    930    931    943    944     1  0.0000000  0.6508444  3
    930    931    943    945     1  0.0000000  0.6508444  3
    930    934    946    947     1  0.0000000  0.6508444  3
    930    934    946    948     1  0.0000000  0.6508444  3
    930    937    940    941     1  0.0000000  0.6508444  3
    930    937    940    942     1  0.0000000  0.6508444  3
    931    930    934    935     1  0.0000000  0.6508444  3
    931    930    934    936     1  0.0000000  0.6508444  3
    931    930    937    938     1  0.0000000  0.6508444  3
    931    930    937    939     1  0.0000000  0.6508444  3
    931    943    955    956     1  0.0000000  0.6508444  3
    931    943    955    957     1  0.0000000  0.6508444  3
    932    931    930    934     1  0.0000000  0.6508444  3
    932    931    930    937     1  0.0000000  0.6508444  3
    932    931    930    959     1  0.0000000  0.6508444  3
    932    931    943    955     1  0.0000000  0.6508444  3
    932    931    943    944     1  0.0000000  0.6508444  3
    932    931    943    945     1  0.0000000  0.6508444  3
    933    931    930    934     1  0.0000000  0.6508444  3
    933    931    930    937     1  0.0000000  0.6508444  3
    933    931    930    959     1  0.0000000  0.6508444  3
    933    931    943    955     1  0.0000000  0.6508444  3
    933    931    943    944     1  0.0000000  0.6508444  3
    933    931    943    945     1  0.0000000  0.6508444  3
    934    930    937    938     1  0.0000000  0.6508444  3
    934    930    937    939     1  0.0000000  0.6508444  3
    934    946    952    953     1  0.0000000  0.6508444  3
    934    946    952    954     1  0.0000000  0.6508444  3
    935    934    930    937     1  0.0000000  0.6508444  3
    935    934    930    959     1  0.0000000  0.6508444  3
    935    934    946    952     1  0.0000000  0.6508444  3
    935    934    946    947     1  0.0000000  0.6508444  3
    935    934    946    948     1  0.0000000  0.6508444  3
    936    934    930    937     1  0.0000000  0.6508444  3
    936    934    930    959     1  0.0000000  0.6508444  3
    936    934    946    952     1  0.0000000  0.6508444  3
    936    934    946    947     1  0.0000000  0.6508444  3
    936    934    946    948     1  0.0000000  0.6508444  3
    937    940    949    950     1  0.0000000  0.6508444  3
    937    940    949    951     1  0.0000000  0.6508444  3
    938    937    930    959     1  0.0000000  0.6508444  3
    938    937    940    949     1  0.0000000  0.6508444  3
    938    937    940    941     1  0.0000000  0.6508444  3
    938    937    940    942     1  0.0000000  0.6508444  3
    939    937    930    959     1  0.0000000  0.6508444  3
    939    937    940    949     1  0.0000000  0.6508444  3
    939    937    940    941     1  0.0000000  0.6508444  3
    939    937    940    942     1  0.0000000  0.6508444  3
    940    937    930    959     1  0.0000000  0.6508444  3
    941    940    949    958     1  0.0000000  1.0460000  1
    941    940    949    958     1  0.0000000  0.0000000  3
    941    940    949    950     1  0.0000000  0.6508444  3
    941    940    949    951     1  0.0000000  0.6508444  3
    942    940    949    958     1  0.0000000  1.0460000  1
    942    940    949    958     1  0.0000000  0.0000000  3
    942    940    949    950     1  0.0000000  0.6508444  3
    942    940    949    951     1  0.0000000  0.6508444  3
    943    931    930    959     1  0.0000000  0.6508444  3
    944    943    955   1978     1  0.0000000  1.0460000  1
    944    943    955   1978     1  0.0000000  0.0000000  3
    944    943    955    956     1  0.0000000  0.6508444  3
    944    943    955    957     1  0.0000000  0.6508444  3
    945    943    955   1978     1  0.0000000  1.0460000  1
    945    943    955   1978     1  0.0000000  0.0000000  3
    945    943    955    956     1  0.0000000  0.6508444  3
    945    943    955    957     1  0.0000000  0.6508444  3
    946    934    930    959     1  0.0000000  0.6508444  3
    947    946    952   1948     1  0.0000000  1.0460000  1
    947    946    952   1948     1  0.0000000  0.0000000  3
    947    946    952    953     1  0.0000000  0.6508444  3
    947    946    952    954     1  0.0000000  0.6508444  3
    948    946    952   1948     1  0.0000000  1.0460000  1
    948    946    952   1948     1  0.0000000  0.0000000  3
    948    946    952    953     1  0.0000000  0.6508444  3
    948    946    952    954     1  0.0000000  0.6508444  3
    952   1948   1939   1940     1  0.0000000  1.6038667  3
    952   1948   1939   1941     1  0.0000000  1.6038667  3
    953    952   1948   1939     1  0.0000000  1.6038667  3
    954    952   1948   1939     1  0.0000000  1.6038667  3
    955   1978   1969   1970     1  0.0000000  1.6038667  3
    955   1978   1969   1971     1  0.0000000  1.6038667  3
    956    955   1978   1969     1  0.0000000  1.6038667  3
    957    955   1978   1969     1  0.0000000  1.6038667  3
    960    961    973    974     1  0.0000000  0.6508444  3
    960    961    973    975     1  0.0000000  0.6508444  3
    960    964    976    977     1  0.0000000  0.6508444  3
    960    964    976    978     1  0.0000000  0.6508444  3
    960    967    970    971     1  0.0000000  0.6508444  3
    960    967    970    972     1  0.0000000  0.6508444  3
    961    960    964    965     1  0.0000000  0.6508444  3
    961    960    964    966     1  0.0000000  0.6508444  3
    961    960    967    968     1  0.0000000  0.6508444  3
    961    960    967    969     1  0.0000000  0.6508444  3
    961    973    985    986     1  0.0000000  0.6508444  3
    961    973    985    987     1  0.0000000  0.6508444  3
    962    961    960    964     1  0.0000000  0.6508444  3
    962    961    960    967     1  0.0000000  0.6508444  3
    962    961    960    989     1  0.0000000  0.6508444  3
    962    961    973    985     1  0.0000000  0.6508444  3
    962    961    973    974     1  0.0000000  0.6508444  3
    962    961    973    975     1  0.0000000  0.6508444  3
    963    961    960    964     1  0.0000000  0.6508444  3
    963    961    960    967     1  0.0000000  0.6508444  3
    963    961    960    989     1  0.0000000  0.6508444  3
    963    961    973    985     1  0.0000000  0.6508444  3
    963    961    973    974     1  0.0000000  0.6508444  3
    963    961    973    975     1  0.0000000  0.6508444  3
    964    960    967    968     1  0.0000000  0.6508444  3
    964    960    967    969     1  0.0000000  0.6508444  3
    964    976    982    983     1  0.0000000  0.6508444  3
    964    976    982    984     1  0.0000000  0.6508444  3
    965    964    960    967     1  0.0000000  0.6508444  3
    965    964    960    989     1  0.0000000  0.6508444  3
    965    964    976    982     1  0.0000000  0.6508444  3
    965    964    976    977     1  0.0000000  0.6508444  3
    965    964    976    978     1  0.0000000  0.6508444  3
    966    964    960    967     1  0.0000000  0.6508444  3
    966    964    960    989     1  0.0000000  0.6508444  3
    966    964    976    982     1  0.0000000  0.6508444  3
    966    964    976    977     1  0.0000000  0.6508444  3
    966    964    976    978     1  0.0000000  0.6508444  3
    967    970    979    980     1  0.0000000  0.6508444  3
    967    970    979    981     1  0.0000000  0.6508444  3
    968    967    960    989     1  0.0000000  0.6508444  3
    968    967    970    979     1  0.0000000  0.6508444  3
    968    967    970    971     1  0.0000000  0.6508444  3
    968    967    970    972     1  0.0000000  0.6508444  3
    969    967    960    989     1  0.0000000  0.6508444  3
    969    967    970    979     1  0.0000000  0.6508444  3
    969    967    970    971     1  0.0000000  0.6508444  3
    969    967    970    972     1  0.0000000  0.6508444  3
    970    967    960    989     1  0.0000000  0.6508444  3
    971    970    979    988     1  0.0000000  1.0460000  1
    971    970    979    988     1  0.0000000  0.0000000  3
    971    970    979    980     1  0.0000000  0.6508444  3
    971    970    979    981     1  0.0000000  0.6508444  3
    972    970    979    988     1  0.0000000  1.0460000  1
    972    970    979    988     1  0.0000000  0.0000000  3
    972    970    979    980     1  0.0000000  0.6508444  3
    972    970    979    981     1  0.0000000  0.6508444  3
    973    961    960    989     1  0.0000000  0.6508444  3
    974    973    985   2038     1  0.0000000  1.0460000  1
    974    973    985   2038     1  0.0000000  0.0000000  3
    974    973    985    986     1  0.0000000  0.6508444  3
    974    973    985    987     1  0.0000000  0.6508444  3
    975    973    985   2038     1  0.0000000  1.0460000  1
    975    973    985   2038     1  0.0000000  0.0000000  3
    975    973    985    986     1  0.0000000  0.6508444  3
    975    973    985    987     1  0.0000000  0.6508444  3
    976    964    960    989     1  0.0000000  0.6508444  3
    977    976    982   2008     1  0.0000000  1.0460000  1
    977    976    982   2008     1  0.0000000  0.0000000  3
    977    976    982    983     1  0.0000000  0.6508444  3
    977    976    982    984     1  0.0000000  0.6508444  3
    978    976    982   2008     1  0.0000000  1.0460000  1
    978    976    982   2008     1  0.0000000  0.0000000  3
    978    976    982    983     1  0.0000000  0.6508444  3
    978    976    982    984     1  0.0000000  0.6508444  3
    982   2008   1999   2000     1  0.0000000  1.6038667  3
    982   2008   1999   2001     1  0.0000000  1.6038667  3
    983    982   2008   1999     1  0.0000000  1.6038667  3
    984    982   2008   1999     1  0.0000000  1.6038667  3
    985   2038   2029   2030     1  0.0000000  1.6038667  3
    985   2038   2029   2031     1  0.0000000  1.6038667  3
    986    985   2038   2029     1  0.0000000  1.6038667  3
    987    985   2038   2029     1  0.0000000  1.6038667  3
    990    991   1003   1004     1  0.0000000  0.6508444  3
    990    991   1003   1005     1  0.0000000  0.6508444  3
    990    994   1006   1007     1  0.0000000  0.6508444  3
    990    994   1006   1008     1  0.0000000  0.6508444  3
    990    997   1000   1001     1  0.0000000  0.6508444  3
    990    997   1000   1002     1  0.0000000  0.6508444  3
    991    990    994    995     1  0.0000000  0.6508444  3
    991    990    994    996     1  0.0000000  0.6508444  3
    991    990    997    998     1  0.0000000  0.6508444  3
    991    990    997    999     1  0.0000000  0.6508444  3
    991   1003   1015   1016     1  0.0000000  0.6508444  3
    991   1003   1015   1017     1  0.0000000  0.6508444  3
    992    991    990    994     1  0.0000000  0.6508444  3
    992    991    990    997     1  0.0000000  0.6508444  3
    992    991    990   1019     1  0.0000000  0.6508444  3
    992    991   1003   1015     1  0.0000000  0.6508444  3
    992    991   1003   1004     1  0.0000000  0.6508444  3
    992    991   1003   1005     1  0.0000000  0.6508444  3
    993    991    990    994     1  0.0000000  0.6508444  3
    993    991    990    997     1  0.0000000  0.6508444  3
    993    991    990   1019     1  0.0000000  0.6508444  3
    993    991   1003   1015     1  0.0000000  0.6508444  3
    993    991   1003   1004     1  0.0000000  0.6508444  3
    993    991   1003   1005     1  0.0000000  0.6508444  3
    994    990    997    998     1  0.0000000  0.6508444  3
    994    990    997    999     1  0.0000000  0.6508444  3
    994   1006   1012   1013     1  0.0000000  0.6508444  3
    994   1006   1012   1014     1  0.0000000  0.6508444  3
    995    994    990    997     1  0.0000000  0.6508444  3
    995    994    990   1019     1  0.0000000  0.6508444  3
    995    994   1006   1012     1  0.0000000  0.6508444  3
    995    994   1006   1007     1  0.0000000  0.6508444  3
    995    994   1006   1008     1  0.0000000  0.6508444  3
    996    994    990    997     1  0.0000000  0.6508444  3
    996    994    990   1019     1  0.0000000  0.6508444  3
    996    994   1006   1012     1  0.0000000  0.6508444  3
    996    994   1006   1007     1  0.0000000  0.6508444  3
    996    994   1006   1008     1  0.0000000  0.6508444  3
    997   1000   1009   1010     1  0.0000000  0.6508444  3
    997   1000   1009   1011     1  0.0000000  0.6508444  3
    998    997    990   1019     1  0.0000000  0.6508444  3
    998    997   1000   1009     1  0.0000000  0.6508444  3
    998    997   1000   1001     1  0.0000000  0.6508444  3
    998    997   1000   1002     1  0.0000000  0.6508444  3
    999    997    990   1019     1  0.0000000  0.6508444  3
    999    997   1000   1009     1  0.0000000  0.6508444  3
    999    997   1000   1001     1  0.0000000  0.6508444  3
    999    997   1000   1002     1  0.0000000  0.6508444  3
   1000    997    990   1019     1  0.0000000  0.6508444  3
   1001   1000   1009   1018     1  0.0000000  1.0460000  1
   1001   1000   1009   1018     1  0.0000000  0.0000000  3
   1001   1000   1009   1010     1  0.0000000  0.6508444  3
   1001   1000   1009   1011     1  0.0000000  0.6508444  3
   1002   1000   1009   1018     1  0.0000000  1.0460000  1
   1002   1000   1009   1018     1  0.0000000  0.0000000  3
   1002   1000   1009   1010     1  0.0000000  0.6508444  3
   1002   1000   1009   1011     1  0.0000000  0.6508444  3
   1003    991    990   1019     1  0.0000000  0.6508444  3
   1004   1003   1015   2098     1  0.0000000  1.0460000  1
   1004   1003   1015   2098     1  0.0000000  0.0000000  3
   1004   1003   1015   1016     1  0.0000000  0.6508444  3
   1004   1003   1015   1017     1  0.0000000  0.6508444  3
   1005   1003   1015   2098     1  0.0000000  1.0460000  1
   1005   1003   1015   2098     1  0.0000000  0.0000000  3
   1005   1003   1015   1016     1  0.0000000  0.6508444  3
   1005   1003   1015   1017     1  0.0000000  0.6508444  3
   1006    994    990   1019     1  0.0000000  0.6508444  3
   1007   1006   1012   2068     1  0.0000000  1.0460000  1
   1007   1006   1012   2068     1  0.0000000  0.0000000  3
   1007   1006   1012   1013     1  0.0000000  0.6508444  3
   1007   1006   1012   1014     1  0.0000000  0.6508444  3
   1008   1006   1012   2068     1  0.0000000  1.0460000  1
   1008   1006   1012   2068     1  0.0000000  0.0000000  3
   1008   1006   1012   1013     1  0.0000000  0.6508444  3
   1008   1006   1012   1014     1  0.0000000  0.6508444  3
   1012   2068   2059   2060     1  0.0000000  1.6038667  3
   1012   2068   2059   2061     1  0.0000000  1.6038667  3
   1013   1012   2068   2059     1  0.0000000  1.6038667  3
   1014   1012   2068   2059     1  0.0000000  1.6038667  3
   1015   2098   2089   2090     1  0.0000000  1.6038667  3
   1015   2098   2089   2091     1  0.0000000  1.6038667  3
   1016   1015   2098   2089     1  0.0000000  1.6038667  3
   1017   1015   2098   2089     1  0.0000000  1.6038667  3
   1020   1021   1033   1034     1  0.0000000  0.6508444  3
   1020   1021   1033   1035     1  0.0000000  0.6508444  3
   1020   1024   1036   1037     1  0.0000000  0.6508444  3
   1020   1024   1036   1038     1  0.0000000  0.6508444  3
   1020   1027   1030   1031     1  0.0000000  0.6508444  3
   1020   1027   1030   1032     1  0.0000000  0.6508444  3
   1021   1020   1024   1025     1  0.0000000  0.6508444  3
   1021   1020   1024   1026     1  0.0000000  0.6508444  3
   1021   1020   1027   1028     1  0.0000000  0.6508444  3
   1021   1020   1027   1029     1  0.0000000  0.6508444  3
   1021   1033   1045   1046     1  0.0000000  0.6508444  3
   1021   1033   1045   1047     1  0.0000000  0.6508444  3
   1022   1021   1020   1024     1  0.0000000  0.6508444  3
   1022   1021   1020   1027     1  0.0000000  0.6508444  3
   1022   1021   1020   1049     1  0.0000000  0.6508444  3
   1022   1021   1033   1045     1  0.0000000  0.6508444  3
   1022   1021   1033   1034     1  0.0000000  0.6508444  3
   1022   1021   1033   1035     1  0.0000000  0.6508444  3
   1023   1021   1020   1024     1  0.0000000  0.6508444  3
   1023   1021   1020   1027     1  0.0000000  0.6508444  3
   1023   1021   1020   1049     1  0.0000000  0.6508444  3
   1023   1021   1033   1045     1  0.0000000  0.6508444  3
   1023   1021   1033   1034     1  0.0000000  0.6508444  3
   1023   1021   1033   1035     1  0.0000000  0.6508444  3
   1024   1020   1027   1028     1  0.0000000  0.6508444  3
   1024   1020   1027   1029     1  0.0000000  0.6508444  3
   1024   1036   1042   1043     1  0.0000000  0.6508444  3
   1024   1036   1042   1044     1  0.0000000  0.6508444  3
   1025   1024   1020   1027     1  0.0000000  0.6508444  3
   1025   1024   1020   1049     1  0.0000000  0.6508444  3
   1025   1024   1036   1042     1  0.0000000  0.6508444  3
   1025   1024   1036   1037     1  0.0000000  0.6508444  3
   1025   1024   1036   1038     1  0.0000000  0.6508444  3
   1026   1024   1020   1027     1  0.0000000  0.6508444  3
   1026   1024   1020   1049     1  0.0000000  0.6508444  3
   1026   1024   1036   1042     1  0.0000000  0.6508444  3
   1026   1024   1036   1037     1  0.0000000  0.6508444  3
   1026   1024   1036   1038     1  0.0000000  0.6508444  3
   1027   1030   1039   1040     1  0.0000000  0.6508444  3
   1027   1030   1039   1041     1  0.0000000  0.6508444  3
   1028   1027   1020   1049     1  0.0000000  0.6508444  3
   1028   1027   1030   1039     1  0.0000000  0.6508444  3
   1028   1027   1030   1031     1  0.0000000  0.6508444  3
   1028   1027   1030   1032     1  0.0000000  0.6508444  3
   1029   1027   1020   1049     1  0.0000000  0.6508444  3
   1029   1027   1030   1039     1  0.0000000  0.6508444  3
   1029   1027   1030   1031     1  0.0000000  0.6508444  3
   1029   1027   1030   1032     1  0.0000000  0.6508444  3
   1030   1027   1020   1049     1  0.0000000  0.6508444  3
   1031   1030   1039   1048     1  0.0000000  1.0460000  1
   1031   1030   1039   1048     1  0.0000000  0.0000000  3
   1031   1030   1039   1040     1  0.0000000  0.6508444  3
   1031   1030   1039   1041     1  0.0000000  0.6508444  3
   1032   1030   1039   1048     1  0.0000000  1.0460000  1
   1032   1030   1039   1048     1  0.0000000  0.0000000  3
   1032   1030   1039   1040     1  0.0000000  0.6508444  3
   1032   1030   1039   1041     1  0.0000000  0.6508444  3
   1033   1021   1020   1049     1  0.0000000  0.6508444  3
   1034   1033   1045   2158     1  0.0000000  1.0460000  1
   1034   1033   1045   2158     1  0.0000000  0.0000000  3
   1034   1033   1045   1046     1  0.0000000  0.6508444  3
   1034   1033   1045   1047     1  0.0000000  0.6508444  3
   1035   1033   1045   2158     1  0.0000000  1.0460000  1
   1035   1033   1045   2158     1  0.0000000  0.0000000  3
   1035   1033   1045   1046     1  0.0000000  0.6508444  3
   1035   1033   1045   1047     1  0.0000000  0.6508444  3
   1036   1024   1020   1049     1  0.0000000  0.6508444  3
   1037   1036   1042   2128     1  0.0000000  1.0460000  1
   1037   1036   1042   2128     1  0.0000000  0.0000000  3
   1037   1036   1042   1043     1  0.0000000  0.6508444  3
   1037   1036   1042   1044     1  0.0000000  0.6508444  3
   1038   1036   1042   2128     1  0.0000000  1.0460000  1
   1038   1036   1042   2128     1  0.0000000  0.0000000  3
   1038   1036   1042   1043     1  0.0000000  0.6508444  3
   1038   1036   1042   1044     1  0.0000000  0.6508444  3
   1042   2128   2119   2120     1  0.0000000  1.6038667  3
   1042   2128   2119   2121     1  0.0000000  1.6038667  3
   1043   1042   2128   2119     1  0.0000000  1.6038667  3
   1044   1042   2128   2119     1  0.0000000  1.6038667  3
   1045   2158   2149   2150     1  0.0000000  1.6038667  3
   1045   2158   2149   2151     1  0.0000000  1.6038667  3
   1046   1045   2158   2149     1  0.0000000  1.6038667  3
   1047   1045   2158   2149     1  0.0000000  1.6038667  3
   1050   1051   1063   1064     1  0.0000000  0.6508444  3
   1050   1051   1063   1065     1  0.0000000  0.6508444  3
   1050   1054   1066   1067     1  0.0000000  0.6508444  3
   1050   1054   1066   1068     1  0.0000000  0.6508444  3
   1050   1057   1060   1061     1  0.0000000  0.6508444  3
   1050   1057   1060   1062     1  0.0000000  0.6508444  3
   1051   1050   1054   1055     1  0.0000000  0.6508444  3
   1051   1050   1054   1056     1  0.0000000  0.6508444  3
   1051   1050   1057   1058     1  0.0000000  0.6508444  3
   1051   1050   1057   1059     1  0.0000000  0.6508444  3
   1051   1063   1075   1076     1  0.0000000  0.6508444  3
   1051   1063   1075   1077     1  0.0000000  0.6508444  3
   1052   1051   1050   1054     1  0.0000000  0.6508444  3
   1052   1051   1050   1057     1  0.0000000  0.6508444  3
   1052   1051   1050   1079     1  0.0000000  0.6508444  3
   1052   1051   1063   1075     1  0.0000000  0.6508444  3
   1052   1051   1063   1064     1  0.0000000  0.6508444  3
   1052   1051   1063   1065     1  0.0000000  0.6508444  3
   1053   1051   1050   1054     1  0.0000000  0.6508444  3
   1053   1051   1050   1057     1  0.0000000  0.6508444  3
   1053   1051   1050   1079     1  0.0000000  0.6508444  3
   1053   1051   1063   1075     1  0.0000000  0.6508444  3
   1053   1051   1063   1064     1  0.0000000  0.6508444  3
   1053   1051   1063   1065     1  0.0000000  0.6508444  3
   1054   1050   1057   1058     1  0.0000000  0.6508444  3
   1054   1050   1057   1059     1  0.0000000  0.6508444  3
   1054   1066   1072   1073     1  0.0000000  0.6508444  3
   1054   1066   1072   1074     1  0.0000000  0.6508444  3
   1055   1054   1050   1057     1  0.0000000  0.6508444  3
   1055   1054   1050   1079     1  0.0000000  0.6508444  3
   1055   1054   1066   1072     1  0.0000000  0.6508444  3
   1055   1054   1066   1067     1  0.0000000  0.6508444  3
   1055   1054   1066   1068     1  0.0000000  0.6508444  3
   1056   1054   1050   1057     1  0.0000000  0.6508444  3
   1056   1054   1050   1079     1  0.0000000  0.6508444  3
   1056   1054   1066   1072     1  0.0000000  0.6508444  3
   1056   1054   1066   1067     1  0.0000000  0.6508444  3
   1056   1054   1066   1068     1  0.0000000  0.6508444  3
   1057   1060   1069   1070     1  0.0000000  0.6508444  3
   1057   1060   1069   1071     1  0.0000000  0.6508444  3
   1058   1057   1050   1079     1  0.0000000  0.6508444  3
   1058   1057   1060   1069     1  0.0000000  0.6508444  3
   1058   1057   1060   1061     1  0.0000000  0.6508444  3
   1058   1057   1060   1062     1  0.0000000  0.6508444  3
   1059   1057   1050   1079     1  0.0000000  0.6508444  3
   1059   1057   1060   1069     1  0.0000000  0.6508444  3
   1059   1057   1060   1061     1  0.0000000  0.6508444  3
   1059   1057   1060   1062     1  0.0000000  0.6508444  3
   1060   1057   1050   1079     1  0.0000000  0.6508444  3
   1061   1060   1069   1078     1  0.0000000  1.0460000  1
   1061   1060   1069   1078     1  0.0000000  0.0000000  3
   1061   1060   1069   1070     1  0.0000000  0.6508444  3
   1061   1060   1069   1071     1  0.0000000  0.6508444  3
   1062   1060   1069   1078     1  0.0000000  1.0460000  1
   1062   1060   1069   1078     1  0.0000000  0.0000000  3
   1062   1060   1069   1070     1  0.0000000  0.6508444  3
   1062   1060   1069   1071     1  0.0000000  0.6508444  3
   1063   1051   1050   1079     1  0.0000000  0.6508444  3
   1064   1063   1075   2218     1  0.0000000  1.0460000  1
   1064   1063   1075   2218     1  0.0000000  0.0000000  3
   1064   1063   1075   1076     1  0.0000000  0.6508444  3
   1064   1063   1075   1077     1  0.0000000  0.6508444  3
   1065   1063   1075   2218     1  0.0000000  1.0460000  1
   1065   1063   1075   2218     1  0.0000000  0.0000000  3
   1065   1063   1075   1076     1  0.0000000  0.6508444  3
   1065   1063   1075   1077     1  0.0000000  0.6508444  3
   1066   1054   1050   1079     1  0.0000000  0.6508444  3
   1067   1066   1072   2188     1  0.0000000  1.0460000  1
   1067   1066   1072   2188     1  0.0000000  0.0000000  3
   1067   1066   1072   1073     1  0.0000000  0.6508444  3
   1067   1066   1072   1074     1  0.0000000  0.6508444  3
   1068   1066   1072   2188     1  0.0000000  1.0460000  1
   1068   1066   1072   2188     1  0.0000000  0.0000000  3
   1068   1066   1072   1073     1  0.0000000  0.6508444  3
   1068   1066   1072   1074     1  0.0000000  0.6508444  3
   1072   2188   2179   2180     1  0.0000000  1.6038667  3
   1072   2188   2179   2181     1  0.0000000  1.6038667  3
   1073   1072   2188   2179     1  0.0000000  1.6038667  3
   1074   1072   2188   2179     1  0.0000000  1.6038667  3
   1075   2218   2209   2210     1  0.0000000  1.6038667  3
   1075   2218   2209   2211     1  0.0000000  1.6038667  3
   1076   1075   2218   2209     1  0.0000000  1.6038667  3
   1077   1075   2218   2209     1  0.0000000  1.6038667  3
   1080   1081   1093   1094     1  0.0000000  0.6508444  3
   1080   1081   1093   1095     1  0.0000000  0.6508444  3
   1080   1084   1096   1097     1  0.0000000  0.6508444  3
   1080   1084   1096   1098     1  0.0000000  0.6508444  3
   1080   1087   1090   1091     1  0.0000000  0.6508444  3
   1080   1087   1090   1092     1  0.0000000  0.6508444  3
   1081   1080   1084   1085     1  0.0000000  0.6508444  3
   1081   1080   1084   1086     1  0.0000000  0.6508444  3
   1081   1080   1087   1088     1  0.0000000  0.6508444  3
   1081   1080   1087   1089     1  0.0000000  0.6508444  3
   1081   1093   1105   1106     1  0.0000000  0.6508444  3
   1081   1093   1105   1107     1  0.0000000  0.6508444  3
   1082   1081   1080   1084     1  0.0000000  0.6508444  3
   1082   1081   1080   1087     1  0.0000000  0.6508444  3
   1082   1081   1080   1109     1  0.0000000  0.6508444  3
   1082   1081   1093   1105     1  0.0000000  0.6508444  3
   1082   1081   1093   1094     1  0.0000000  0.6508444  3
   1082   1081   1093   1095     1  0.0000000  0.6508444  3
   1083   1081   1080   1084     1  0.0000000  0.6508444  3
   1083   1081   1080   1087     1  0.0000000  0.6508444  3
   1083   1081   1080   1109     1  0.0000000  0.6508444  3
   1083   1081   1093   1105     1  0.0000000  0.6508444  3
   1083   1081   1093   1094     1  0.0000000  0.6508444  3
   1083   1081   1093   1095     1  0.0000000  0.6508444  3
   1084   1080   1087   1088     1  0.0000000  0.6508444  3
   1084   1080   1087   1089     1  0.0000000  0.6508444  3
   1084   1096   1102   1103     1  0.0000000  0.6508444  3
   1084   1096   1102   1104     1  0.0000000  0.6508444  3
   1085   1084   1080   1087     1  0.0000000  0.6508444  3
   1085   1084   1080   1109     1  0.0000000  0.6508444  3
   1085   1084   1096   1102     1  0.0000000  0.6508444  3
   1085   1084   1096   1097     1  0.0000000  0.6508444  3
   1085   1084   1096   1098     1  0.0000000  0.6508444  3
   1086   1084   1080   1087     1  0.0000000  0.6508444  3
   1086   1084   1080   1109     1  0.0000000  0.6508444  3
   1086   1084   1096   1102     1  0.0000000  0.6508444  3
   1086   1084   1096   1097     1  0.0000000  0.6508444  3
   1086   1084   1096   1098     1  0.0000000  0.6508444  3
   1087   1090   1099   1100     1  0.0000000  0.6508444  3
   1087   1090   1099   1101     1  0.0000000  0.6508444  3
   1088   1087   1080   1109     1  0.0000000  0.6508444  3
   1088   1087   1090   1099     1  0.0000000  0.6508444  3
   1088   1087   1090   1091     1  0.0000000  0.6508444  3
   1088   1087   1090   1092     1  0.0000000  0.6508444  3
   1089   1087   1080   1109     1  0.0000000  0.6508444  3
   1089   1087   1090   1099     1  0.0000000  0.6508444  3
   1089   1087   1090   1091     1  0.0000000  0.6508444  3
   1089   1087   1090   1092     1  0.0000000  0.6508444  3
   1090   1087   1080   1109     1  0.0000000  0.6508444  3
   1091   1090   1099   1108     1  0.0000000  1.0460000  1
   1091   1090   1099   1108     1  0.0000000  0.0000000  3
   1091   1090   1099   1100     1  0.0000000  0.6508444  3
   1091   1090   1099   1101     1  0.0000000  0.6508444  3
   1092   1090   1099   1108     1  0.0000000  1.0460000  1
   1092   1090   1099   1108     1  0.0000000  0.0000000  3
   1092   1090   1099   1100     1  0.0000000  0.6508444  3
   1092   1090   1099   1101     1  0.0000000  0.6508444  3
   1093   1081   1080   1109     1  0.0000000  0.6508444  3
   1094   1093   1105   2278     1  0.0000000  1.0460000  1
   1094   1093   1105   2278     1  0.0000000  0.0000000  3
   1094   1093   1105   1106     1  0.0000000  0.6508444  3
   1094   1093   1105   1107     1  0.0000000  0.6508444  3
   1095   1093   1105   2278     1  0.0000000  1.0460000  1
   1095   1093   1105   2278     1  0.0000000  0.0000000  3
   1095   1093   1105   1106     1  0.0000000  0.6508444  3
   1095   1093   1105   1107     1  0.0000000  0.6508444  3
   1096   1084   1080   1109     1  0.0000000  0.6508444  3
   1097   1096   1102   2248     1  0.0000000  1.0460000  1
   1097   1096   1102   2248     1  0.0000000  0.0000000  3
   1097   1096   1102   1103     1  0.0000000  0.6508444  3
   1097   1096   1102   1104     1  0.0000000  0.6508444  3
   1098   1096   1102   2248     1  0.0000000  1.0460000  1
   1098   1096   1102   2248     1  0.0000000  0.0000000  3
   1098   1096   1102   1103     1  0.0000000  0.6508444  3
   1098   1096   1102   1104     1  0.0000000  0.6508444  3
   1102   2248   2239   2240     1  0.0000000  1.6038667  3
   1102   2248   2239   2241     1  0.0000000  1.6038667  3
   1103   1102   2248   2239     1  0.0000000  1.6038667  3
   1104   1102   2248   2239     1  0.0000000  1.6038667  3
   1105   2278   2269   2270     1  0.0000000  1.6038667  3
   1105   2278   2269   2271     1  0.0000000  1.6038667  3
   1106   1105   2278   2269     1  0.0000000  1.6038667  3
   1107   1105   2278   2269     1  0.0000000  1.6038667  3
   1110   1111   1123   1124     1  0.0000000  0.6508444  3
   1110   1111   1123   1125     1  0.0000000  0.6508444  3
   1110   1114   1126   1127     1  0.0000000  0.6508444  3
   1110   1114   1126   1128     1  0.0000000  0.6508444  3
   1110   1117   1120   1121     1  0.0000000  0.6508444  3
   1110   1117   1120   1122     1  0.0000000  0.6508444  3
   1111   1110   1114   1115     1  0.0000000  0.6508444  3
   1111   1110   1114   1116     1  0.0000000  0.6508444  3
   1111   1110   1117   1118     1  0.0000000  0.6508444  3
   1111   1110   1117   1119     1  0.0000000  0.6508444  3
   1111   1123   1135   1136     1  0.0000000  0.6508444  3
   1111   1123   1135   1137     1  0.0000000  0.6508444  3
   1112   1111   1110   1114     1  0.0000000  0.6508444  3
   1112   1111   1110   1117     1  0.0000000  0.6508444  3
   1112   1111   1110   1139     1  0.0000000  0.6508444  3
   1112   1111   1123   1135     1  0.0000000  0.6508444  3
   1112   1111   1123   1124     1  0.0000000  0.6508444  3
   1112   1111   1123   1125     1  0.0000000  0.6508444  3
   1113   1111   1110   1114     1  0.0000000  0.6508444  3
   1113   1111   1110   1117     1  0.0000000  0.6508444  3
   1113   1111   1110   1139     1  0.0000000  0.6508444  3
   1113   1111   1123   1135     1  0.0000000  0.6508444  3
   1113   1111   1123   1124     1  0.0000000  0.6508444  3
   1113   1111   1123   1125     1  0.0000000  0.6508444  3
   1114   1110   1117   1118     1  0.0000000  0.6508444  3
   1114   1110   1117   1119     1  0.0000000  0.6508444  3
   1114   1126   1132   1133     1  0.0000000  0.6508444  3
   1114   1126   1132   1134     1  0.0000000  0.6508444  3
   1115   1114   1110   1117     1  0.0000000  0.6508444  3
   1115   1114   1110   1139     1  0.0000000  0.6508444  3
   1115   1114   1126   1132     1  0.0000000  0.6508444  3
   1115   1114   1126   1127     1  0.0000000  0.6508444  3
   1115   1114   1126   1128     1  0.0000000  0.6508444  3
   1116   1114   1110   1117     1  0.0000000  0.6508444  3
   1116   1114   1110   1139     1  0.0000000  0.6508444  3
   1116   1114   1126   1132     1  0.0000000  0.6508444  3
   1116   1114   1126   1127     1  0.0000000  0.6508444  3
   1116   1114   1126   1128     1  0.0000000  0.6508444  3
   1117   1120   1129   1130     1  0.0000000  0.6508444  3
   1117   1120   1129   1131     1  0.0000000  0.6508444  3
   1118   1117   1110   1139     1  0.0000000  0.6508444  3
   1118   1117   1120   1129     1  0.0000000  0.6508444  3
   1118   1117   1120   1121     1  0.0000000  0.6508444  3
   1118   1117   1120   1122     1  0.0000000  0.6508444  3
   1119   1117   1110   1139     1  0.0000000  0.6508444  3
   1119   1117   1120   1129     1  0.0000000  0.6508444  3
   1119   1117   1120   1121     1  0.0000000  0.6508444  3
   1119   1117   1120   1122     1  0.0000000  0.6508444  3
   1120   1117   1110   1139     1  0.0000000  0.6508444  3
   1121   1120   1129   1138     1  0.0000000  1.0460000  1
   1121   1120   1129   1138     1  0.0000000  0.0000000  3
   1121   1120   1129   1130     1  0.0000000  0.6508444  3
   1121   1120   1129   1131     1  0.0000000  0.6508444  3
   1122   1120   1129   1138     1  0.0000000  1.0460000  1
   1122   1120   1129   1138     1  0.0000000  0.0000000  3
   1122   1120   1129   1130     1  0.0000000  0.6508444  3
   1122   1120   1129   1131     1  0.0000000  0.6508444  3
   1123   1111   1110   1139     1  0.0000000  0.6508444  3
   1124   1123   1135   2338     1  0.0000000  1.0460000  1
   1124   1123   1135   2338     1  0.0000000  0.0000000  3
   1124   1123   1135   1136     1  0.0000000  0.6508444  3
   1124   1123   1135   1137     1  0.0000000  0.6508444  3
   1125   1123   1135   2338     1  0.0000000  1.0460000  1
   1125   1123   1135   2338     1  0.0000000  0.0000000  3
   1125   1123   1135   1136     1  0.0000000  0.6508444  3
   1125   1123   1135   1137     1  0.0000000  0.6508444  3
   1126   1114   1110   1139     1  0.0000000  0.6508444  3
   1127   1126   1132   2308     1  0.0000000  1.0460000  1
   1127   1126   1132   2308     1  0.0000000  0.0000000  3
   1127   1126   1132   1133     1  0.0000000  0.6508444  3
   1127   1126   1132   1134     1  0.0000000  0.6508444  3
   1128   1126   1132   2308     1  0.0000000  1.0460000  1
   1128   1126   1132   2308     1  0.0000000  0.0000000  3
   1128   1126   1132   1133     1  0.0000000  0.6508444  3
   1128   1126   1132   1134     1  0.0000000  0.6508444  3
   1132   2308   2299   2300     1  0.0000000  1.6038667  3
   1132   2308   2299   2301     1  0.0000000  1.6038667  3
   1133   1132   2308   2299     1  0.0000000  1.6038667  3
   1134   1132   2308   2299     1  0.0000000  1.6038667  3
   1135   2338   2329   2330     1  0.0000000  1.6038667  3
   1135   2338   2329   2331     1  0.0000000  1.6038667  3
   1136   1135   2338   2329     1  0.0000000  1.6038667  3
   1137   1135   2338   2329     1  0.0000000  1.6038667  3
   1140   1141   1153   1154     1  0.0000000  0.6508444  3
   1140   1141   1153   1155     1  0.0000000  0.6508444  3
   1140   1144   1156   1157     1  0.0000000  0.6508444  3
   1140   1144   1156   1158     1  0.0000000  0.6508444  3
   1140   1147   1150   1151     1  0.0000000  0.6508444  3
   1140   1147   1150   1152     1  0.0000000  0.6508444  3
   1141   1140   1144   1145     1  0.0000000  0.6508444  3
   1141   1140   1144   1146     1  0.0000000  0.6508444  3
   1141   1140   1147   1148     1  0.0000000  0.6508444  3
   1141   1140   1147   1149     1  0.0000000  0.6508444  3
   1141   1153   1165   1166     1  0.0000000  0.6508444  3
   1141   1153   1165   1167     1  0.0000000  0.6508444  3
   1142   1141   1140   1144     1  0.0000000  0.6508444  3
   1142   1141   1140   1147     1  0.0000000  0.6508444  3
   1142   1141   1140   1169     1  0.0000000  0.6508444  3
   1142   1141   1153   1165     1  0.0000000  0.6508444  3
   1142   1141   1153   1154     1  0.0000000  0.6508444  3
   1142   1141   1153   1155     1  0.0000000  0.6508444  3
   1143   1141   1140   1144     1  0.0000000  0.6508444  3
   1143   1141   1140   1147     1  0.0000000  0.6508444  3
   1143   1141   1140   1169     1  0.0000000  0.6508444  3
   1143   1141   1153   1165     1  0.0000000  0.6508444  3
   1143   1141   1153   1154     1  0.0000000  0.6508444  3
   1143   1141   1153   1155     1  0.0000000  0.6508444  3
   1144   1140   1147   1148     1  0.0000000  0.6508444  3
   1144   1140   1147   1149     1  0.0000000  0.6508444  3
   1144   1156   1162   1163     1  0.0000000  0.6508444  3
   1144   1156   1162   1164     1  0.0000000  0.6508444  3
   1145   1144   1140   1147     1  0.0000000  0.6508444  3
   1145   1144   1140   1169     1  0.0000000  0.6508444  3
   1145   1144   1156   1162     1  0.0000000  0.6508444  3
   1145   1144   1156   1157     1  0.0000000  0.6508444  3
   1145   1144   1156   1158     1  0.0000000  0.6508444  3
   1146   1144   1140   1147     1  0.0000000  0.6508444  3
   1146   1144   1140   1169     1  0.0000000  0.6508444  3
   1146   1144   1156   1162     1  0.0000000  0.6508444  3
   1146   1144   1156   1157     1  0.0000000  0.6508444  3
   1146   1144   1156   1158     1  0.0000000  0.6508444  3
   1147   1150   1159   1160     1  0.0000000  0.6508444  3
   1147   1150   1159   1161     1  0.0000000  0.6508444  3
   1148   1147   1140   1169     1  0.0000000  0.6508444  3
   1148   1147   1150   1159     1  0.0000000  0.6508444  3
   1148   1147   1150   1151     1  0.0000000  0.6508444  3
   1148   1147   1150   1152     1  0.0000000  0.6508444  3
   1149   1147   1140   1169     1  0.0000000  0.6508444  3
   1149   1147   1150   1159     1  0.0000000  0.6508444  3
   1149   1147   1150   1151     1  0.0000000  0.6508444  3
   1149   1147   1150   1152     1  0.0000000  0.6508444  3
   1150   1147   1140   1169     1  0.0000000  0.6508444  3
   1151   1150   1159   1168     1  0.0000000  1.0460000  1
   1151   1150   1159   1168     1  0.0000000  0.0000000  3
   1151   1150   1159   1160     1  0.0000000  0.6508444  3
   1151   1150   1159   1161     1  0.0000000  0.6508444  3
   1152   1150   1159   1168     1  0.0000000  1.0460000  1
   1152   1150   1159   1168     1  0.0000000  0.0000000  3
   1152   1150   1159   1160     1  0.0000000  0.6508444  3
   1152   1150   1159   1161     1  0.0000000  0.6508444  3
   1153   1141   1140   1169     1  0.0000000  0.6508444  3
   1154   1153   1165   2398     1  0.0000000  1.0460000  1
   1154   1153   1165   2398     1  0.0000000  0.0000000  3
   1154   1153   1165   1166     1  0.0000000  0.6508444  3
   1154   1153   1165   1167     1  0.0000000  0.6508444  3
   1155   1153   1165   2398     1  0.0000000  1.0460000  1
   1155   1153   1165   2398     1  0.0000000  0.0000000  3
   1155   1153   1165   1166     1  0.0000000  0.6508444  3
   1155   1153   1165   1167     1  0.0000000  0.6508444  3
   1156   1144   1140   1169     1  0.0000000  0.6508444  3
   1157   1156   1162   2368     1  0.0000000  1.0460000  1
   1157   1156   1162   2368     1  0.0000000  0.0000000  3
   1157   1156   1162   1163     1  0.0000000  0.6508444  3
   1157   1156   1162   1164     1  0.0000000  0.6508444  3
   1158   1156   1162   2368     1  0.0000000  1.0460000  1
   1158   1156   1162   2368     1  0.0000000  0.0000000  3
   1158   1156   1162   1163     1  0.0000000  0.6508444  3
   1158   1156   1162   1164     1  0.0000000  0.6508444  3
   1162   2368   2359   2360     1  0.0000000  1.6038667  3
   1162   2368   2359   2361     1  0.0000000  1.6038667  3
   1163   1162   2368   2359     1  0.0000000  1.6038667  3
   1164   1162   2368   2359     1  0.0000000  1.6038667  3
   1165   2398   2389   2390     1  0.0000000  1.6038667  3
   1165   2398   2389   2391     1  0.0000000  1.6038667  3
   1166   1165   2398   2389     1  0.0000000  1.6038667  3
   1167   1165   2398   2389     1  0.0000000  1.6038667  3
   1170   1171   1183   1184     1  0.0000000  0.6508444  3
   1170   1171   1183   1185     1  0.0000000  0.6508444  3
   1170   1174   1186   1187     1  0.0000000  0.6508444  3
   1170   1174   1186   1188     1  0.0000000  0.6508444  3
   1170   1177   1180   1181     1  0.0000000  0.6508444  3
   1170   1177   1180   1182     1  0.0000000  0.6508444  3
   1171   1170   1174   1175     1  0.0000000  0.6508444  3
   1171   1170   1174   1176     1  0.0000000  0.6508444  3
   1171   1170   1177   1178     1  0.0000000  0.6508444  3
   1171   1170   1177   1179     1  0.0000000  0.6508444  3
   1171   1183   1195   1196     1  0.0000000  0.6508444  3
   1171   1183   1195   1197     1  0.0000000  0.6508444  3
   1172   1171   1170   1174     1  0.0000000  0.6508444  3
   1172   1171   1170   1177     1  0.0000000  0.6508444  3
   1172   1171   1170   1199     1  0.0000000  0.6508444  3
   1172   1171   1183   1195     1  0.0000000  0.6508444  3
   1172   1171   1183   1184     1  0.0000000  0.6508444  3
   1172   1171   1183   1185     1  0.0000000  0.6508444  3
   1173   1171   1170   1174     1  0.0000000  0.6508444  3
   1173   1171   1170   1177     1  0.0000000  0.6508444  3
   1173   1171   1170   1199     1  0.0000000  0.6508444  3
   1173   1171   1183   1195     1  0.0000000  0.6508444  3
   1173   1171   1183   1184     1  0.0000000  0.6508444  3
   1173   1171   1183   1185     1  0.0000000  0.6508444  3
   1174   1170   1177   1178     1  0.0000000  0.6508444  3
   1174   1170   1177   1179     1  0.0000000  0.6508444  3
   1174   1186   1192   1193     1  0.0000000  0.6508444  3
   1174   1186   1192   1194     1  0.0000000  0.6508444  3
   1175   1174   1170   1177     1  0.0000000  0.6508444  3
   1175   1174   1170   1199     1  0.0000000  0.6508444  3
   1175   1174   1186   1192     1  0.0000000  0.6508444  3
   1175   1174   1186   1187     1  0.0000000  0.6508444  3
   1175   1174   1186   1188     1  0.0000000  0.6508444  3
   1176   1174   1170   1177     1  0.0000000  0.6508444  3
   1176   1174   1170   1199     1  0.0000000  0.6508444  3
   1176   1174   1186   1192     1  0.0000000  0.6508444  3
   1176   1174   1186   1187     1  0.0000000  0.6508444  3
   1176   1174   1186   1188     1  0.0000000  0.6508444  3
   1177   1180   1189   1190     1  0.0000000  0.6508444  3
   1177   1180   1189   1191     1  0.0000000  0.6508444  3
   1178   1177   1170   1199     1  0.0000000  0.6508444  3
   1178   1177   1180   1189     1  0.0000000  0.6508444  3
   1178   1177   1180   1181     1  0.0000000  0.6508444  3
   1178   1177   1180   1182     1  0.0000000  0.6508444  3
   1179   1177   1170   1199     1  0.0000000  0.6508444  3
   1179   1177   1180   1189     1  0.0000000  0.6508444  3
   1179   1177   1180   1181     1  0.0000000  0.6508444  3
   1179   1177   1180   1182     1  0.0000000  0.6508444  3
   1180   1177   1170   1199     1  0.0000000  0.6508444  3
   1181   1180   1189   1198     1  0.0000000  1.0460000  1
   1181   1180   1189   1198     1  0.0000000  0.0000000  3
   1181   1180   1189   1190     1  0.0000000  0.6508444  3
   1181   1180   1189   1191     1  0.0000000  0.6508444  3
   1182   1180   1189   1198     1  0.0000000  1.0460000  1
   1182   1180   1189   1198     1  0.0000000  0.0000000  3
   1182   1180   1189   1190     1  0.0000000  0.6508444  3
   1182   1180   1189   1191     1  0.0000000  0.6508444  3
   1183   1171   1170   1199     1  0.0000000  0.6508444  3
   1184   1183   1195   2458     1  0.0000000  1.0460000  1
   1184   1183   1195   2458     1  0.0000000  0.0000000  3
   1184   1183   1195   1196     1  0.0000000  0.6508444  3
   1184   1183   1195   1197     1  0.0000000  0.6508444  3
   1185   1183   1195   2458     1  0.0000000  1.0460000  1
   1185   1183   1195   2458     1  0.0000000  0.0000000  3
   1185   1183   1195   1196     1  0.0000000  0.6508444  3
   1185   1183   1195   1197     1  0.0000000  0.6508444  3
   1186   1174   1170   1199     1  0.0000000  0.6508444  3
   1187   1186   1192   2428     1  0.0000000  1.0460000  1
   1187   1186   1192   2428     1  0.0000000  0.0000000  3
   1187   1186   1192   1193     1  0.0000000  0.6508444  3
   1187   1186   1192   1194     1  0.0000000  0.6508444  3
   1188   1186   1192   2428     1  0.0000000  1.0460000  1
   1188   1186   1192   2428     1  0.0000000  0.0000000  3
   1188   1186   1192   1193     1  0.0000000  0.6508444  3
   1188   1186   1192   1194     1  0.0000000  0.6508444  3
   1192   2428   2419   2420     1  0.0000000  1.6038667  3
   1192   2428   2419   2421     1  0.0000000  1.6038667  3
   1193   1192   2428   2419     1  0.0000000  1.6038667  3
   1194   1192   2428   2419     1  0.0000000  1.6038667  3
   1195   2458   2449   2450     1  0.0000000  1.6038667  3
   1195   2458   2449   2451     1  0.0000000  1.6038667  3
   1196   1195   2458   2449     1  0.0000000  1.6038667  3
   1197   1195   2458   2449     1  0.0000000  1.6038667  3
   1200   1201   1213   1214     1  0.0000000  0.6508444  3
   1200   1201   1213   1215     1  0.0000000  0.6508444  3
   1200   1204   1216   1217     1  0.0000000  0.6508444  3
   1200   1204   1216   1218     1  0.0000000  0.6508444  3
   1200   1207   1210   1211     1  0.0000000  0.6508444  3
   1200   1207   1210   1212     1  0.0000000  0.6508444  3
   1201   1200   1204   1205     1  0.0000000  0.6508444  3
   1201   1200   1204   1206     1  0.0000000  0.6508444  3
   1201   1200   1207   1208     1  0.0000000  0.6508444  3
   1201   1200   1207   1209     1  0.0000000  0.6508444  3
   1201   1213   1225   1226     1  0.0000000  0.6508444  3
   1201   1213   1225   1227     1  0.0000000  0.6508444  3
   1202   1201   1200   1204     1  0.0000000  0.6508444  3
   1202   1201   1200   1207     1  0.0000000  0.6508444  3
   1202   1201   1200   1229     1  0.0000000  0.6508444  3
   1202   1201   1213   1225     1  0.0000000  0.6508444  3
   1202   1201   1213   1214     1  0.0000000  0.6508444  3
   1202   1201   1213   1215     1  0.0000000  0.6508444  3
   1203   1201   1200   1204     1  0.0000000  0.6508444  3
   1203   1201   1200   1207     1  0.0000000  0.6508444  3
   1203   1201   1200   1229     1  0.0000000  0.6508444  3
   1203   1201   1213   1225     1  0.0000000  0.6508444  3
   1203   1201   1213   1214     1  0.0000000  0.6508444  3
   1203   1201   1213   1215     1  0.0000000  0.6508444  3
   1204   1200   1207   1208     1  0.0000000  0.6508444  3
   1204   1200   1207   1209     1  0.0000000  0.6508444  3
   1204   1216   1222   1223     1  0.0000000  0.6508444  3
   1204   1216   1222   1224     1  0.0000000  0.6508444  3
   1205   1204   1200   1207     1  0.0000000  0.6508444  3
   1205   1204   1200   1229     1  0.0000000  0.6508444  3
   1205   1204   1216   1222     1  0.0000000  0.6508444  3
   1205   1204   1216   1217     1  0.0000000  0.6508444  3
   1205   1204   1216   1218     1  0.0000000  0.6508444  3
   1206   1204   1200   1207     1  0.0000000  0.6508444  3
   1206   1204   1200   1229     1  0.0000000  0.6508444  3
   1206   1204   1216   1222     1  0.0000000  0.6508444  3
   1206   1204   1216   1217     1  0.0000000  0.6508444  3
   1206   1204   1216   1218     1  0.0000000  0.6508444  3
   1207   1210   1219   1220     1  0.0000000  0.6508444  3
   1207   1210   1219   1221     1  0.0000000  0.6508444  3
   1208   1207   1200   1229     1  0.0000000  0.6508444  3
   1208   1207   1210   1219     1  0.0000000  0.6508444  3
   1208   1207   1210   1211     1  0.0000000  0.6508444  3
   1208   1207   1210   1212     1  0.0000000  0.6508444  3
   1209   1207   1200   1229     1  0.0000000  0.6508444  3
   1209   1207   1210   1219     1  0.0000000  0.6508444  3
   1209   1207   1210   1211     1  0.0000000  0.6508444  3
   1209   1207   1210   1212     1  0.0000000  0.6508444  3
   1210   1207   1200   1229     1  0.0000000  0.6508444  3
   1211   1210   1219   1228     1  0.0000000  1.0460000  1
   1211   1210   1219   1228     1  0.0000000  0.0000000  3
   1211   1210   1219   1220     1  0.0000000  0.6508444  3
   1211   1210   1219   1221     1  0.0000000  0.6508444  3
   1212   1210   1219   1228     1  0.0000000  1.0460000  1
   1212   1210   1219   1228     1  0.0000000  0.0000000  3
   1212   1210   1219   1220     1  0.0000000  0.6508444  3
   1212   1210   1219   1221     1  0.0000000  0.6508444  3
   1213   1201   1200   1229     1  0.0000000  0.6508444  3
   1214   1213   1225   2518     1  0.0000000  1.0460000  1
   1214   1213   1225   2518     1  0.0000000  0.0000000  3
   1214   1213   1225   1226     1  0.0000000  0.6508444  3
   1214   1213   1225   1227     1  0.0000000  0.6508444  3
   1215   1213   1225   2518     1  0.0000000  1.0460000  1
   1215   1213   1225   2518     1  0.0000000  0.0000000  3
   1215   1213   1225   1226     1  0.0000000  0.6508444  3
   1215   1213   1225   1227     1  0.0000000  0.6508444  3
   1216   1204   1200   1229     1  0.0000000  0.6508444  3
   1217   1216   1222   2488     1  0.0000000  1.0460000  1
   1217   1216   1222   2488     1  0.0000000  0.0000000  3
   1217   1216   1222   1223     1  0.0000000  0.6508444  3
   1217   1216   1222   1224     1  0.0000000  0.6508444  3
   1218   1216   1222   2488     1  0.0000000  1.0460000  1
   1218   1216   1222   2488     1  0.0000000  0.0000000  3
   1218   1216   1222   1223     1  0.0000000  0.6508444  3
   1218   1216   1222   1224     1  0.0000000  0.6508444  3
   1222   2488   2479   2480     1  0.0000000  1.6038667  3
   1222   2488   2479   2481     1  0.0000000  1.6038667  3
   1223   1222   2488   2479     1  0.0000000  1.6038667  3
   1224   1222   2488   2479     1  0.0000000  1.6038667  3
   1225   2518   2509   2510     1  0.0000000  1.6038667  3
   1225   2518   2509   2511     1  0.0000000  1.6038667  3
   1226   1225   2518   2509     1  0.0000000  1.6038667  3
   1227   1225   2518   2509     1  0.0000000  1.6038667  3
   1230   1231   1243   1244     1  0.0000000  0.6508444  3
   1230   1231   1243   1245     1  0.0000000  0.6508444  3
   1230   1234   1246   1247     1  0.0000000  0.6508444  3
   1230   1234   1246   1248     1  0.0000000  0.6508444  3
   1230   1237   1240   1241     1  0.0000000  0.6508444  3
   1230   1237   1240   1242     1  0.0000000  0.6508444  3
   1231   1230   1234   1235     1  0.0000000  0.6508444  3
   1231   1230   1234   1236     1  0.0000000  0.6508444  3
   1231   1230   1237   1238     1  0.0000000  0.6508444  3
   1231   1230   1237   1239     1  0.0000000  0.6508444  3
   1231   1243   1255   1256     1  0.0000000  0.6508444  3
   1231   1243   1255   1257     1  0.0000000  0.6508444  3
   1232   1231   1230   1234     1  0.0000000  0.6508444  3
   1232   1231   1230   1237     1  0.0000000  0.6508444  3
   1232   1231   1230   1259     1  0.0000000  0.6508444  3
   1232   1231   1243   1255     1  0.0000000  0.6508444  3
   1232   1231   1243   1244     1  0.0000000  0.6508444  3
   1232   1231   1243   1245     1  0.0000000  0.6508444  3
   1233   1231   1230   1234     1  0.0000000  0.6508444  3
   1233   1231   1230   1237     1  0.0000000  0.6508444  3
   1233   1231   1230   1259     1  0.0000000  0.6508444  3
   1233   1231   1243   1255     1  0.0000000  0.6508444  3
   1233   1231   1243   1244     1  0.0000000  0.6508444  3
   1233   1231   1243   1245     1  0.0000000  0.6508444  3
   1234   1230   1237   1238     1  0.0000000  0.6508444  3
   1234   1230   1237   1239     1  0.0000000  0.6508444  3
   1234   1246   1252   1253     1  0.0000000  0.6508444  3
   1234   1246   1252   1254     1  0.0000000  0.6508444  3
   1235   1234   1230   1237     1  0.0000000  0.6508444  3
   1235   1234   1230   1259     1  0.0000000  0.6508444  3
   1235   1234   1246   1252     1  0.0000000  0.6508444  3
   1235   1234   1246   1247     1  0.0000000  0.6508444  3
   1235   1234   1246   1248     1  0.0000000  0.6508444  3
   1236   1234   1230   1237     1  0.0000000  0.6508444  3
   1236   1234   1230   1259     1  0.0000000  0.6508444  3
   1236   1234   1246   1252     1  0.0000000  0.6508444  3
   1236   1234   1246   1247     1  0.0000000  0.6508444  3
   1236   1234   1246   1248     1  0.0000000  0.6508444  3
   1237   1240   1249   1250     1  0.0000000  0.6508444  3
   1237   1240   1249   1251     1  0.0000000  0.6508444  3
   1238   1237   1230   1259     1  0.0000000  0.6508444  3
   1238   1237   1240   1249     1  0.0000000  0.6508444  3
   1238   1237   1240   1241     1  0.0000000  0.6508444  3
   1238   1237   1240   1242     1  0.0000000  0.6508444  3
   1239   1237   1230   1259     1  0.0000000  0.6508444  3
   1239   1237   1240   1249     1  0.0000000  0.6508444  3
   1239   1237   1240   1241     1  0.0000000  0.6508444  3
   1239   1237   1240   1242     1  0.0000000  0.6508444  3
   1240   1237   1230   1259     1  0.0000000  0.6508444  3
   1241   1240   1249   1258     1  0.0000000  1.0460000  1
   1241   1240   1249   1258     1  0.0000000  0.0000000  3
   1241   1240   1249   1250     1  0.0000000  0.6508444  3
   1241   1240   1249   1251     1  0.0000000  0.6508444  3
   1242   1240   1249   1258     1  0.0000000  1.0460000  1
   1242   1240   1249   1258     1  0.0000000  0.0000000  3
   1242   1240   1249   1250     1  0.0000000  0.6508444  3
   1242   1240   1249   1251     1  0.0000000  0.6508444  3
   1243   1231   1230   1259     1  0.0000000  0.6508444  3
   1244   1243   1255   2578     1  0.0000000  1.0460000  1
   1244   1243   1255   2578     1  0.0000000  0.0000000  3
   1244   1243   1255   1256     1  0.0000000  0.6508444  3
   1244   1243   1255   1257     1  0.0000000  0.6508444  3
   1245   1243   1255   2578     1  0.0000000  1.0460000  1
   1245   1243   1255   2578     1  0.0000000  0.0000000  3
   1245   1243   1255   1256     1  0.0000000  0.6508444  3
   1245   1243   1255   1257     1  0.0000000  0.6508444  3
   1246   1234   1230   1259     1  0.0000000  0.6508444  3
   1247   1246   1252   2548     1  0.0000000  1.0460000  1
   1247   1246   1252   2548     1  0.0000000  0.0000000  3
   1247   1246   1252   1253     1  0.0000000  0.6508444  3
   1247   1246   1252   1254     1  0.0000000  0.6508444  3
   1248   1246   1252   2548     1  0.0000000  1.0460000  1
   1248   1246   1252   2548     1  0.0000000  0.0000000  3
   1248   1246   1252   1253     1  0.0000000  0.6508444  3
   1248   1246   1252   1254     1  0.0000000  0.6508444  3
   1252   2548   2539   2540     1  0.0000000  1.6038667  3
   1252   2548   2539   2541     1  0.0000000  1.6038667  3
   1253   1252   2548   2539     1  0.0000000  1.6038667  3
   1254   1252   2548   2539     1  0.0000000  1.6038667  3
   1255   2578   2569   2570     1  0.0000000  1.6038667  3
   1255   2578   2569   2571     1  0.0000000  1.6038667  3
   1256   1255   2578   2569     1  0.0000000  1.6038667  3
   1257   1255   2578   2569     1  0.0000000  1.6038667  3
   1260   1261   1273   1274     1  0.0000000  0.6508444  3
   1260   1261   1273   1275     1  0.0000000  0.6508444  3
   1260   1264   1276   1277     1  0.0000000  0.6508444  3
   1260   1264   1276   1278     1  0.0000000  0.6508444  3
   1260   1267   1270   1271     1  0.0000000  0.6508444  3
   1260   1267   1270   1272     1  0.0000000  0.6508444  3
   1261   1260   1264   1265     1  0.0000000  0.6508444  3
   1261   1260   1264   1266     1  0.0000000  0.6508444  3
   1261   1260   1267   1268     1  0.0000000  0.6508444  3
   1261   1260   1267   1269     1  0.0000000  0.6508444  3
   1261   1273   1285   1286     1  0.0000000  0.6508444  3
   1261   1273   1285   1287     1  0.0000000  0.6508444  3
   1262   1261   1260   1264     1  0.0000000  0.6508444  3
   1262   1261   1260   1267     1  0.0000000  0.6508444  3
   1262   1261   1260   1289     1  0.0000000  0.6508444  3
   1262   1261   1273   1285     1  0.0000000  0.6508444  3
   1262   1261   1273   1274     1  0.0000000  0.6508444  3
   1262   1261   1273   1275     1  0.0000000  0.6508444  3
   1263   1261   1260   1264     1  0.0000000  0.6508444  3
   1263   1261   1260   1267     1  0.0000000  0.6508444  3
   1263   1261   1260   1289     1  0.0000000  0.6508444  3
   1263   1261   1273   1285     1  0.0000000  0.6508444  3
   1263   1261   1273   1274     1  0.0000000  0.6508444  3
   1263   1261   1273   1275     1  0.0000000  0.6508444  3
   1264   1260   1267   1268     1  0.0000000  0.6508444  3
   1264   1260   1267   1269     1  0.0000000  0.6508444  3
   1264   1276   1282   1283     1  0.0000000  0.6508444  3
   1264   1276   1282   1284     1  0.0000000  0.6508444  3
   1265   1264   1260   1267     1  0.0000000  0.6508444  3
   1265   1264   1260   1289     1  0.0000000  0.6508444  3
   1265   1264   1276   1282     1  0.0000000  0.6508444  3
   1265   1264   1276   1277     1  0.0000000  0.6508444  3
   1265   1264   1276   1278     1  0.0000000  0.6508444  3
   1266   1264   1260   1267     1  0.0000000  0.6508444  3
   1266   1264   1260   1289     1  0.0000000  0.6508444  3
   1266   1264   1276   1282     1  0.0000000  0.6508444  3
   1266   1264   1276   1277     1  0.0000000  0.6508444  3
   1266   1264   1276   1278     1  0.0000000  0.6508444  3
   1267   1270   1279   1280     1  0.0000000  0.6508444  3
   1267   1270   1279   1281     1  0.0000000  0.6508444  3
   1268   1267   1260   1289     1  0.0000000  0.6508444  3
   1268   1267   1270   1279     1  0.0000000  0.6508444  3
   1268   1267   1270   1271     1  0.0000000  0.6508444  3
   1268   1267   1270   1272     1  0.0000000  0.6508444  3
   1269   1267   1260   1289     1  0.0000000  0.6508444  3
   1269   1267   1270   1279     1  0.0000000  0.6508444  3
   1269   1267   1270   1271     1  0.0000000  0.6508444  3
   1269   1267   1270   1272     1  0.0000000  0.6508444  3
   1270   1267   1260   1289     1  0.0000000  0.6508444  3
   1271   1270   1279   1288     1  0.0000000  1.0460000  1
   1271   1270   1279   1288     1  0.0000000  0.0000000  3
   1271   1270   1279   1280     1  0.0000000  0.6508444  3
   1271   1270   1279   1281     1  0.0000000  0.6508444  3
   1272   1270   1279   1288     1  0.0000000  1.0460000  1
   1272   1270   1279   1288     1  0.0000000  0.0000000  3
   1272   1270   1279   1280     1  0.0000000  0.6508444  3
   1272   1270   1279   1281     1  0.0000000  0.6508444  3
   1273   1261   1260   1289     1  0.0000000  0.6508444  3
   1274   1273   1285   2638     1  0.0000000  1.0460000  1
   1274   1273   1285   2638     1  0.0000000  0.0000000  3
   1274   1273   1285   1286     1  0.0000000  0.6508444  3
   1274   1273   1285   1287     1  0.0000000  0.6508444  3
   1275   1273   1285   2638     1  0.0000000  1.0460000  1
   1275   1273   1285   2638     1  0.0000000  0.0000000  3
   1275   1273   1285   1286     1  0.0000000  0.6508444  3
   1275   1273   1285   1287     1  0.0000000  0.6508444  3
   1276   1264   1260   1289     1  0.0000000  0.6508444  3
   1277   1276   1282   2608     1  0.0000000  1.0460000  1
   1277   1276   1282   2608     1  0.0000000  0.0000000  3
   1277   1276   1282   1283     1  0.0000000  0.6508444  3
   1277   1276   1282   1284     1  0.0000000  0.6508444  3
   1278   1276   1282   2608     1  0.0000000  1.0460000  1
   1278   1276   1282   2608     1  0.0000000  0.0000000  3
   1278   1276   1282   1283     1  0.0000000  0.6508444  3
   1278   1276   1282   1284     1  0.0000000  0.6508444  3
   1282   2608   2599   2600     1  0.0000000  1.6038667  3
   1282   2608   2599   2601     1  0.0000000  1.6038667  3
   1283   1282   2608   2599     1  0.0000000  1.6038667  3
   1284   1282   2608   2599     1  0.0000000  1.6038667  3
   1285   2638   2629   2630     1  0.0000000  1.6038667  3
   1285   2638   2629   2631     1  0.0000000  1.6038667  3
   1286   1285   2638   2629     1  0.0000000  1.6038667  3
   1287   1285   2638   2629     1  0.0000000  1.6038667  3
   1290   1291   1303   1304     1  0.0000000  0.6508444  3
   1290   1291   1303   1305     1  0.0000000  0.6508444  3
   1290   1294   1306   1307     1  0.0000000  0.6508444  3
   1290   1294   1306   1308     1  0.0000000  0.6508444  3
   1290   1297   1300   1301     1  0.0000000  0.6508444  3
   1290   1297   1300   1302     1  0.0000000  0.6508444  3
   1291   1290   1294   1295     1  0.0000000  0.6508444  3
   1291   1290   1294   1296     1  0.0000000  0.6508444  3
   1291   1290   1297   1298     1  0.0000000  0.6508444  3
   1291   1290   1297   1299     1  0.0000000  0.6508444  3
   1291   1303   1315   1316     1  0.0000000  0.6508444  3
   1291   1303   1315   1317     1  0.0000000  0.6508444  3
   1292   1291   1290   1294     1  0.0000000  0.6508444  3
   1292   1291   1290   1297     1  0.0000000  0.6508444  3
   1292   1291   1290   1319     1  0.0000000  0.6508444  3
   1292   1291   1303   1315     1  0.0000000  0.6508444  3
   1292   1291   1303   1304     1  0.0000000  0.6508444  3
   1292   1291   1303   1305     1  0.0000000  0.6508444  3
   1293   1291   1290   1294     1  0.0000000  0.6508444  3
   1293   1291   1290   1297     1  0.0000000  0.6508444  3
   1293   1291   1290   1319     1  0.0000000  0.6508444  3
   1293   1291   1303   1315     1  0.0000000  0.6508444  3
   1293   1291   1303   1304     1  0.0000000  0.6508444  3
   1293   1291   1303   1305     1  0.0000000  0.6508444  3
   1294   1290   1297   1298     1  0.0000000  0.6508444  3
   1294   1290   1297   1299     1  0.0000000  0.6508444  3
   1294   1306   1312   1313     1  0.0000000  0.6508444  3
   1294   1306   1312   1314     1  0.0000000  0.6508444  3
   1295   1294   1290   1297     1  0.0000000  0.6508444  3
   1295   1294   1290   1319     1  0.0000000  0.6508444  3
   1295   1294   1306   1312     1  0.0000000  0.6508444  3
   1295   1294   1306   1307     1  0.0000000  0.6508444  3
   1295   1294   1306   1308     1  0.0000000  0.6508444  3
   1296   1294   1290   1297     1  0.0000000  0.6508444  3
   1296   1294   1290   1319     1  0.0000000  0.6508444  3
   1296   1294   1306   1312     1  0.0000000  0.6508444  3
   1296   1294   1306   1307     1  0.0000000  0.6508444  3
   1296   1294   1306   1308     1  0.0000000  0.6508444  3
   1297   1300   1309   1310     1  0.0000000  0.6508444  3
   1297   1300   1309   1311     1  0.0000000  0.6508444  3
   1298   1297   1290   1319     1  0.0000000  0.6508444  3
   1298   1297   1300   1309     1  0.0000000  0.6508444  3
   1298   1297   1300   1301     1  0.0000000  0.6508444  3
   1298   1297   1300   1302     1  0.0000000  0.6508444  3
   1299   1297   1290   1319     1  0.0000000  0.6508444  3
   1299   1297   1300   1309     1  0.0000000  0.6508444  3
   1299   1297   1300   1301     1  0.0000000  0.6508444  3
   1299   1297   1300   1302     1  0.0000000  0.6508444  3
   1300   1297   1290   1319     1  0.0000000  0.6508444  3
   1301   1300   1309   1318     1  0.0000000  1.0460000  1
   1301   1300   1309   1318     1  0.0000000  0.0000000  3
   1301   1300   1309   1310     1  0.0000000  0.6508444  3
   1301   1300   1309   1311     1  0.0000000  0.6508444  3
   1302   1300   1309   1318     1  0.0000000  1.0460000  1
   1302   1300   1309   1318     1  0.0000000  0.0000000  3
   1302   1300   1309   1310     1  0.0000000  0.6508444  3
   1302   1300   1309   1311     1  0.0000000  0.6508444  3
   1303   1291   1290   1319     1  0.0000000  0.6508444  3
   1304   1303   1315   2698     1  0.0000000  1.0460000  1
   1304   1303   1315   2698     1  0.0000000  0.0000000  3
   1304   1303   1315   1316     1  0.0000000  0.6508444  3
   1304   1303   1315   1317     1  0.0000000  0.6508444  3
   1305   1303   1315   2698     1  0.0000000  1.0460000  1
   1305   1303   1315   2698     1  0.0000000  0.0000000  3
   1305   1303   1315   1316     1  0.0000000  0.6508444  3
   1305   1303   1315   1317     1  0.0000000  0.6508444  3
   1306   1294   1290   1319     1  0.0000000  0.6508444  3
   1307   1306   1312   2668     1  0.0000000  1.0460000  1
   1307   1306   1312   2668     1  0.0000000  0.0000000  3
   1307   1306   1312   1313     1  0.0000000  0.6508444  3
   1307   1306   1312   1314     1  0.0000000  0.6508444  3
   1308   1306   1312   2668     1  0.0000000  1.0460000  1
   1308   1306   1312   2668     1  0.0000000  0.0000000  3
   1308   1306   1312   1313     1  0.0000000  0.6508444  3
   1308   1306   1312   1314     1  0.0000000  0.6508444  3
   1312   2668   2659   2660     1  0.0000000  1.6038667  3
   1312   2668   2659   2661     1  0.0000000  1.6038667  3
   1313   1312   2668   2659     1  0.0000000  1.6038667  3
   1314   1312   2668   2659     1  0.0000000  1.6038667  3
   1315   2698   2689   2690     1  0.0000000  1.6038667  3
   1315   2698   2689   2691     1  0.0000000  1.6038667  3
   1316   1315   2698   2689     1  0.0000000  1.6038667  3
   1317   1315   2698   2689     1  0.0000000  1.6038667  3
   1320   1321   1333   1334     1  0.0000000  0.6508444  3
   1320   1321   1333   1335     1  0.0000000  0.6508444  3
   1320   1324   1336   1337     1  0.0000000  0.6508444  3
   1320   1324   1336   1338     1  0.0000000  0.6508444  3
   1320   1327   1330   1331     1  0.0000000  0.6508444  3
   1320   1327   1330   1332     1  0.0000000  0.6508444  3
   1321   1320   1324   1325     1  0.0000000  0.6508444  3
   1321   1320   1324   1326     1  0.0000000  0.6508444  3
   1321   1320   1327   1328     1  0.0000000  0.6508444  3
   1321   1320   1327   1329     1  0.0000000  0.6508444  3
   1321   1333   1345   1346     1  0.0000000  0.6508444  3
   1321   1333   1345   1347     1  0.0000000  0.6508444  3
   1322   1321   1320   1324     1  0.0000000  0.6508444  3
   1322   1321   1320   1327     1  0.0000000  0.6508444  3
   1322   1321   1320   1349     1  0.0000000  0.6508444  3
   1322   1321   1333   1345     1  0.0000000  0.6508444  3
   1322   1321   1333   1334     1  0.0000000  0.6508444  3
   1322   1321   1333   1335     1  0.0000000  0.6508444  3
   1323   1321   1320   1324     1  0.0000000  0.6508444  3
   1323   1321   1320   1327     1  0.0000000  0.6508444  3
   1323   1321   1320   1349     1  0.0000000  0.6508444  3
   1323   1321   1333   1345     1  0.0000000  0.6508444  3
   1323   1321   1333   1334     1  0.0000000  0.6508444  3
   1323   1321   1333   1335     1  0.0000000  0.6508444  3
   1324   1320   1327   1328     1  0.0000000  0.6508444  3
   1324   1320   1327   1329     1  0.0000000  0.6508444  3
   1324   1336   1342   1343     1  0.0000000  0.6508444  3
   1324   1336   1342   1344     1  0.0000000  0.6508444  3
   1325   1324   1320   1327     1  0.0000000  0.6508444  3
   1325   1324   1320   1349     1  0.0000000  0.6508444  3
   1325   1324   1336   1342     1  0.0000000  0.6508444  3
   1325   1324   1336   1337     1  0.0000000  0.6508444  3
   1325   1324   1336   1338     1  0.0000000  0.6508444  3
   1326   1324   1320   1327     1  0.0000000  0.6508444  3
   1326   1324   1320   1349     1  0.0000000  0.6508444  3
   1326   1324   1336   1342     1  0.0000000  0.6508444  3
   1326   1324   1336   1337     1  0.0000000  0.6508444  3
   1326   1324   1336   1338     1  0.0000000  0.6508444  3
   1327   1330   1339   1340     1  0.0000000  0.6508444  3
   1327   1330   1339   1341     1  0.0000000  0.6508444  3
   1328   1327   1320   1349     1  0.0000000  0.6508444  3
   1328   1327   1330   1339     1  0.0000000  0.6508444  3
   1328   1327   1330   1331     1  0.0000000  0.6508444  3
   1328   1327   1330   1332     1  0.0000000  0.6508444  3
   1329   1327   1320   1349     1  0.0000000  0.6508444  3
   1329   1327   1330   1339     1  0.0000000  0.6508444  3
   1329   1327   1330   1331     1  0.0000000  0.6508444  3
   1329   1327   1330   1332     1  0.0000000  0.6508444  3
   1330   1327   1320   1349     1  0.0000000  0.6508444  3
   1331   1330   1339   1348     1  0.0000000  1.0460000  1
   1331   1330   1339   1348     1  0.0000000  0.0000000  3
   1331   1330   1339   1340     1  0.0000000  0.6508444  3
   1331   1330   1339   1341     1  0.0000000  0.6508444  3
   1332   1330   1339   1348     1  0.0000000  1.0460000  1
   1332   1330   1339   1348     1  0.0000000  0.0000000  3
   1332   1330   1339   1340     1  0.0000000  0.6508444  3
   1332   1330   1339   1341     1  0.0000000  0.6508444  3
   1333   1321   1320   1349     1  0.0000000  0.6508444  3
   1334   1333   1345   2758     1  0.0000000  1.0460000  1
   1334   1333   1345   2758     1  0.0000000  0.0000000  3
   1334   1333   1345   1346     1  0.0000000  0.6508444  3
   1334   1333   1345   1347     1  0.0000000  0.6508444  3
   1335   1333   1345   2758     1  0.0000000  1.0460000  1
   1335   1333   1345   2758     1  0.0000000  0.0000000  3
   1335   1333   1345   1346     1  0.0000000  0.6508444  3
   1335   1333   1345   1347     1  0.0000000  0.6508444  3
   1336   1324   1320   1349     1  0.0000000  0.6508444  3
   1337   1336   1342   2728     1  0.0000000  1.0460000  1
   1337   1336   1342   2728     1  0.0000000  0.0000000  3
   1337   1336   1342   1343     1  0.0000000  0.6508444  3
   1337   1336   1342   1344     1  0.0000000  0.6508444  3
   1338   1336   1342   2728     1  0.0000000  1.0460000  1
   1338   1336   1342   2728     1  0.0000000  0.0000000  3
   1338   1336   1342   1343     1  0.0000000  0.6508444  3
   1338   1336   1342   1344     1  0.0000000  0.6508444  3
   1342   2728   2719   2720     1  0.0000000  1.6038667  3
   1342   2728   2719   2721     1  0.0000000  1.6038667  3
   1343   1342   2728   2719     1  0.0000000  1.6038667  3
   1344   1342   2728   2719     1  0.0000000  1.6038667  3
   1345   2758   2749   2750     1  0.0000000  1.6038667  3
   1345   2758   2749   2751     1  0.0000000  1.6038667  3
   1346   1345   2758   2749     1  0.0000000  1.6038667  3
   1347   1345   2758   2749     1  0.0000000  1.6038667  3
   1350   1351   1363   1364     1  0.0000000  0.6508444  3
   1350   1351   1363   1365     1  0.0000000  0.6508444  3
   1350   1354   1366   1367     1  0.0000000  0.6508444  3
   1350   1354   1366   1368     1  0.0000000  0.6508444  3
   1350   1357   1360   1361     1  0.0000000  0.6508444  3
   1350   1357   1360   1362     1  0.0000000  0.6508444  3
   1351   1350   1354   1355     1  0.0000000  0.6508444  3
   1351   1350   1354   1356     1  0.0000000  0.6508444  3
   1351   1350   1357   1358     1  0.0000000  0.6508444  3
   1351   1350   1357   1359     1  0.0000000  0.6508444  3
   1351   1363   1375   1376     1  0.0000000  0.6508444  3
   1351   1363   1375   1377     1  0.0000000  0.6508444  3
   1352   1351   1350   1354     1  0.0000000  0.6508444  3
   1352   1351   1350   1357     1  0.0000000  0.6508444  3
   1352   1351   1350   1379     1  0.0000000  0.6508444  3
   1352   1351   1363   1375     1  0.0000000  0.6508444  3
   1352   1351   1363   1364     1  0.0000000  0.6508444  3
   1352   1351   1363   1365     1  0.0000000  0.6508444  3
   1353   1351   1350   1354     1  0.0000000  0.6508444  3
   1353   1351   1350   1357     1  0.0000000  0.6508444  3
   1353   1351   1350   1379     1  0.0000000  0.6508444  3
   1353   1351   1363   1375     1  0.0000000  0.6508444  3
   1353   1351   1363   1364     1  0.0000000  0.6508444  3
   1353   1351   1363   1365     1  0.0000000  0.6508444  3
   1354   1350   1357   1358     1  0.0000000  0.6508444  3
   1354   1350   1357   1359     1  0.0000000  0.6508444  3
   1354   1366   1372   1373     1  0.0000000  0.6508444  3
   1354   1366   1372   1374     1  0.0000000  0.6508444  3
   1355   1354   1350   1357     1  0.0000000  0.6508444  3
   1355   1354   1350   1379     1  0.0000000  0.6508444  3
   1355   1354   1366   1372     1  0.0000000  0.6508444  3
   1355   1354   1366   1367     1  0.0000000  0.6508444  3
   1355   1354   1366   1368     1  0.0000000  0.6508444  3
   1356   1354   1350   1357     1  0.0000000  0.6508444  3
   1356   1354   1350   1379     1  0.0000000  0.6508444  3
   1356   1354   1366   1372     1  0.0000000  0.6508444  3
   1356   1354   1366   1367     1  0.0000000  0.6508444  3
   1356   1354   1366   1368     1  0.0000000  0.6508444  3
   1357   1360   1369   1370     1  0.0000000  0.6508444  3
   1357   1360   1369   1371     1  0.0000000  0.6508444  3
   1358   1357   1350   1379     1  0.0000000  0.6508444  3
   1358   1357   1360   1369     1  0.0000000  0.6508444  3
   1358   1357   1360   1361     1  0.0000000  0.6508444  3
   1358   1357   1360   1362     1  0.0000000  0.6508444  3
   1359   1357   1350   1379     1  0.0000000  0.6508444  3
   1359   1357   1360   1369     1  0.0000000  0.6508444  3
   1359   1357   1360   1361     1  0.0000000  0.6508444  3
   1359   1357   1360   1362     1  0.0000000  0.6508444  3
   1360   1357   1350   1379     1  0.0000000  0.6508444  3
   1361   1360   1369   1378     1  0.0000000  1.0460000  1
   1361   1360   1369   1378     1  0.0000000  0.0000000  3
   1361   1360   1369   1370     1  0.0000000  0.6508444  3
   1361   1360   1369   1371     1  0.0000000  0.6508444  3
   1362   1360   1369   1378     1  0.0000000  1.0460000  1
   1362   1360   1369   1378     1  0.0000000  0.0000000  3
   1362   1360   1369   1370     1  0.0000000  0.6508444  3
   1362   1360   1369   1371     1  0.0000000  0.6508444  3
   1363   1351   1350   1379     1  0.0000000  0.6508444  3
   1364   1363   1375   2818     1  0.0000000  1.0460000  1
   1364   1363   1375   2818     1  0.0000000  0.0000000  3
   1364   1363   1375   1376     1  0.0000000  0.6508444  3
   1364   1363   1375   1377     1  0.0000000  0.6508444  3
   1365   1363   1375   2818     1  0.0000000  1.0460000  1
   1365   1363   1375   2818     1  0.0000000  0.0000000  3
   1365   1363   1375   1376     1  0.0000000  0.6508444  3
   1365   1363   1375   1377     1  0.0000000  0.6508444  3
   1366   1354   1350   1379     1  0.0000000  0.6508444  3
   1367   1366   1372   2788     1  0.0000000  1.0460000  1
   1367   1366   1372   2788     1  0.0000000  0.0000000  3
   1367   1366   1372   1373     1  0.0000000  0.6508444  3
   1367   1366   1372   1374     1  0.0000000  0.6508444  3
   1368   1366   1372   2788     1  0.0000000  1.0460000  1
   1368   1366   1372   2788     1  0.0000000  0.0000000  3
   1368   1366   1372   1373     1  0.0000000  0.6508444  3
   1368   1366   1372   1374     1  0.0000000  0.6508444  3
   1372   2788   2779   2780     1  0.0000000  1.6038667  3
   1372   2788   2779   2781     1  0.0000000  1.6038667  3
   1373   1372   2788   2779     1  0.0000000  1.6038667  3
   1374   1372   2788   2779     1  0.0000000  1.6038667  3
   1375   2818   2809   2810     1  0.0000000  1.6038667  3
   1375   2818   2809   2811     1  0.0000000  1.6038667  3
   1376   1375   2818   2809     1  0.0000000  1.6038667  3
   1377   1375   2818   2809     1  0.0000000  1.6038667  3
   1380   1381   1393   1394     1  0.0000000  0.6508444  3
   1380   1381   1393   1395     1  0.0000000  0.6508444  3
   1380   1384   1396   1397     1  0.0000000  0.6508444  3
   1380   1384   1396   1398     1  0.0000000  0.6508444  3
   1380   1387   1390   1391     1  0.0000000  0.6508444  3
   1380   1387   1390   1392     1  0.0000000  0.6508444  3
   1381   1380   1384   1385     1  0.0000000  0.6508444  3
   1381   1380   1384   1386     1  0.0000000  0.6508444  3
   1381   1380   1387   1388     1  0.0000000  0.6508444  3
   1381   1380   1387   1389     1  0.0000000  0.6508444  3
   1381   1393   1405   1406     1  0.0000000  0.6508444  3
   1381   1393   1405   1407     1  0.0000000  0.6508444  3
   1382   1381   1380   1384     1  0.0000000  0.6508444  3
   1382   1381   1380   1387     1  0.0000000  0.6508444  3
   1382   1381   1380   1409     1  0.0000000  0.6508444  3
   1382   1381   1393   1405     1  0.0000000  0.6508444  3
   1382   1381   1393   1394     1  0.0000000  0.6508444  3
   1382   1381   1393   1395     1  0.0000000  0.6508444  3
   1383   1381   1380   1384     1  0.0000000  0.6508444  3
   1383   1381   1380   1387     1  0.0000000  0.6508444  3
   1383   1381   1380   1409     1  0.0000000  0.6508444  3
   1383   1381   1393   1405     1  0.0000000  0.6508444  3
   1383   1381   1393   1394     1  0.0000000  0.6508444  3
   1383   1381   1393   1395     1  0.0000000  0.6508444  3
   1384   1380   1387   1388     1  0.0000000  0.6508444  3
   1384   1380   1387   1389     1  0.0000000  0.6508444  3
   1384   1396   1402   1403     1  0.0000000  0.6508444  3
   1384   1396   1402   1404     1  0.0000000  0.6508444  3
   1385   1384   1380   1387     1  0.0000000  0.6508444  3
   1385   1384   1380   1409     1  0.0000000  0.6508444  3
   1385   1384   1396   1402     1  0.0000000  0.6508444  3
   1385   1384   1396   1397     1  0.0000000  0.6508444  3
   1385   1384   1396   1398     1  0.0000000  0.6508444  3
   1386   1384   1380   1387     1  0.0000000  0.6508444  3
   1386   1384   1380   1409     1  0.0000000  0.6508444  3
   1386   1384   1396   1402     1  0.0000000  0.6508444  3
   1386   1384   1396   1397     1  0.0000000  0.6508444  3
   1386   1384   1396   1398     1  0.0000000  0.6508444  3
   1387   1390   1399   1400     1  0.0000000  0.6508444  3
   1387   1390   1399   1401     1  0.0000000  0.6508444  3
   1388   1387   1380   1409     1  0.0000000  0.6508444  3
   1388   1387   1390   1399     1  0.0000000  0.6508444  3
   1388   1387   1390   1391     1  0.0000000  0.6508444  3
   1388   1387   1390   1392     1  0.0000000  0.6508444  3
   1389   1387   1380   1409     1  0.0000000  0.6508444  3
   1389   1387   1390   1399     1  0.0000000  0.6508444  3
   1389   1387   1390   1391     1  0.0000000  0.6508444  3
   1389   1387   1390   1392     1  0.0000000  0.6508444  3
   1390   1387   1380   1409     1  0.0000000  0.6508444  3
   1391   1390   1399   1408     1  0.0000000  1.0460000  1
   1391   1390   1399   1408     1  0.0000000  0.0000000  3
   1391   1390   1399   1400     1  0.0000000  0.6508444  3
   1391   1390   1399   1401     1  0.0000000  0.6508444  3
   1392   1390   1399   1408     1  0.0000000  1.0460000  1
   1392   1390   1399   1408     1  0.0000000  0.0000000  3
   1392   1390   1399   1400     1  0.0000000  0.6508444  3
   1392   1390   1399   1401     1  0.0000000  0.6508444  3
   1393   1381   1380   1409     1  0.0000000  0.6508444  3
   1394   1393   1405   2878     1  0.0000000  1.0460000  1
   1394   1393   1405   2878     1  0.0000000  0.0000000  3
   1394   1393   1405   1406     1  0.0000000  0.6508444  3
   1394   1393   1405   1407     1  0.0000000  0.6508444  3
   1395   1393   1405   2878     1  0.0000000  1.0460000  1
   1395   1393   1405   2878     1  0.0000000  0.0000000  3
   1395   1393   1405   1406     1  0.0000000  0.6508444  3
   1395   1393   1405   1407     1  0.0000000  0.6508444  3
   1396   1384   1380   1409     1  0.0000000  0.6508444  3
   1397   1396   1402   2848     1  0.0000000  1.0460000  1
   1397   1396   1402   2848     1  0.0000000  0.0000000  3
   1397   1396   1402   1403     1  0.0000000  0.6508444  3
   1397   1396   1402   1404     1  0.0000000  0.6508444  3
   1398   1396   1402   2848     1  0.0000000  1.0460000  1
   1398   1396   1402   2848     1  0.0000000  0.0000000  3
   1398   1396   1402   1403     1  0.0000000  0.6508444  3
   1398   1396   1402   1404     1  0.0000000  0.6508444  3
   1402   2848   2839   2840     1  0.0000000  1.6038667  3
   1402   2848   2839   2841     1  0.0000000  1.6038667  3
   1403   1402   2848   2839     1  0.0000000  1.6038667  3
   1404   1402   2848   2839     1  0.0000000  1.6038667  3
   1405   2878   2869   2870     1  0.0000000  1.6038667  3
   1405   2878   2869   2871     1  0.0000000  1.6038667  3
   1406   1405   2878   2869     1  0.0000000  1.6038667  3
   1407   1405   2878   2869     1  0.0000000  1.6038667  3
   1410   1411   1423   1424     1  0.0000000  0.6508444  3
   1410   1411   1423   1425     1  0.0000000  0.6508444  3
   1410   1414   1426   1427     1  0.0000000  0.6508444  3
   1410   1414   1426   1428     1  0.0000000  0.6508444  3
   1410   1417   1420   1421     1  0.0000000  0.6508444  3
   1410   1417   1420   1422     1  0.0000000  0.6508444  3
   1411   1410   1414   1415     1  0.0000000  0.6508444  3
   1411   1410   1414   1416     1  0.0000000  0.6508444  3
   1411   1410   1417   1418     1  0.0000000  0.6508444  3
   1411   1410   1417   1419     1  0.0000000  0.6508444  3
   1411   1423   1435   1436     1  0.0000000  0.6508444  3
   1411   1423   1435   1437     1  0.0000000  0.6508444  3
   1412   1411   1410   1414     1  0.0000000  0.6508444  3
   1412   1411   1410   1417     1  0.0000000  0.6508444  3
   1412   1411   1410   1439     1  0.0000000  0.6508444  3
   1412   1411   1423   1435     1  0.0000000  0.6508444  3
   1412   1411   1423   1424     1  0.0000000  0.6508444  3
   1412   1411   1423   1425     1  0.0000000  0.6508444  3
   1413   1411   1410   1414     1  0.0000000  0.6508444  3
   1413   1411   1410   1417     1  0.0000000  0.6508444  3
   1413   1411   1410   1439     1  0.0000000  0.6508444  3
   1413   1411   1423   1435     1  0.0000000  0.6508444  3
   1413   1411   1423   1424     1  0.0000000  0.6508444  3
   1413   1411   1423   1425     1  0.0000000  0.6508444  3
   1414   1410   1417   1418     1  0.0000000  0.6508444  3
   1414   1410   1417   1419     1  0.0000000  0.6508444  3
   1414   1426   1432   1433     1  0.0000000  0.6508444  3
   1414   1426   1432   1434     1  0.0000000  0.6508444  3
   1415   1414   1410   1417     1  0.0000000  0.6508444  3
   1415   1414   1410   1439     1  0.0000000  0.6508444  3
   1415   1414   1426   1432     1  0.0000000  0.6508444  3
   1415   1414   1426   1427     1  0.0000000  0.6508444  3
   1415   1414   1426   1428     1  0.0000000  0.6508444  3
   1416   1414   1410   1417     1  0.0000000  0.6508444  3
   1416   1414   1410   1439     1  0.0000000  0.6508444  3
   1416   1414   1426   1432     1  0.0000000  0.6508444  3
   1416   1414   1426   1427     1  0.0000000  0.6508444  3
   1416   1414   1426   1428     1  0.0000000  0.6508444  3
   1417   1420   1429   1430     1  0.0000000  0.6508444  3
   1417   1420   1429   1431     1  0.0000000  0.6508444  3
   1418   1417   1410   1439     1  0.0000000  0.6508444  3
   1418   1417   1420   1429     1  0.0000000  0.6508444  3
   1418   1417   1420   1421     1  0.0000000  0.6508444  3
   1418   1417   1420   1422     1  0.0000000  0.6508444  3
   1419   1417   1410   1439     1  0.0000000  0.6508444  3
   1419   1417   1420   1429     1  0.0000000  0.6508444  3
   1419   1417   1420   1421     1  0.0000000  0.6508444  3
   1419   1417   1420   1422     1  0.0000000  0.6508444  3
   1420   1417   1410   1439     1  0.0000000  0.6508444  3
   1421   1420   1429   1438     1  0.0000000  1.0460000  1
   1421   1420   1429   1438     1  0.0000000  0.0000000  3
   1421   1420   1429   1430     1  0.0000000  0.6508444  3
   1421   1420   1429   1431     1  0.0000000  0.6508444  3
   1422   1420   1429   1438     1  0.0000000  1.0460000  1
   1422   1420   1429   1438     1  0.0000000  0.0000000  3
   1422   1420   1429   1430     1  0.0000000  0.6508444  3
   1422   1420   1429   1431     1  0.0000000  0.6508444  3
   1423   1411   1410   1439     1  0.0000000  0.6508444  3
   1424   1423   1435   2938     1  0.0000000  1.0460000  1
   1424   1423   1435   2938     1  0.0000000  0.0000000  3
   1424   1423   1435   1436     1  0.0000000  0.6508444  3
   1424   1423   1435   1437     1  0.0000000  0.6508444  3
   1425   1423   1435   2938     1  0.0000000  1.0460000  1
   1425   1423   1435   2938     1  0.0000000  0.0000000  3
   1425   1423   1435   1436     1  0.0000000  0.6508444  3
   1425   1423   1435   1437     1  0.0000000  0.6508444  3
   1426   1414   1410   1439     1  0.0000000  0.6508444  3
   1427   1426   1432   2908     1  0.0000000  1.0460000  1
   1427   1426   1432   2908     1  0.0000000  0.0000000  3
   1427   1426   1432   1433     1  0.0000000  0.6508444  3
   1427   1426   1432   1434     1  0.0000000  0.6508444  3
   1428   1426   1432   2908     1  0.0000000  1.0460000  1
   1428   1426   1432   2908     1  0.0000000  0.0000000  3
   1428   1426   1432   1433     1  0.0000000  0.6508444  3
   1428   1426   1432   1434     1  0.0000000  0.6508444  3
   1432   2908   2899   2900     1  0.0000000  1.6038667  3
   1432   2908   2899   2901     1  0.0000000  1.6038667  3
   1433   1432   2908   2899     1  0.0000000  1.6038667  3
   1434   1432   2908   2899     1  0.0000000  1.6038667  3
   1435   2938   2929   2930     1  0.0000000  1.6038667  3
   1435   2938   2929   2931     1  0.0000000  1.6038667  3
   1436   1435   2938   2929     1  0.0000000  1.6038667  3
   1437   1435   2938   2929     1  0.0000000  1.6038667  3
   1440   1441   1453   1454     1  0.0000000  0.6508444  3
   1440   1441   1453   1455     1  0.0000000  0.6508444  3
   1440   1444   1456   1457     1  0.0000000  0.6508444  3
   1440   1444   1456   1458     1  0.0000000  0.6508444  3
   1440   1447   1450   1451     1  0.0000000  0.6508444  3
   1440   1447   1450   1452     1  0.0000000  0.6508444  3
   1441   1440   1444   1445     1  0.0000000  0.6508444  3
   1441   1440   1444   1446     1  0.0000000  0.6508444  3
   1441   1440   1447   1448     1  0.0000000  0.6508444  3
   1441   1440   1447   1449     1  0.0000000  0.6508444  3
   1441   1453   1465   1466     1  0.0000000  0.6508444  3
   1441   1453   1465   1467     1  0.0000000  0.6508444  3
   1442   1441   1440   1444     1  0.0000000  0.6508444  3
   1442   1441   1440   1447     1  0.0000000  0.6508444  3
   1442   1441   1440   1469     1  0.0000000  0.6508444  3
   1442   1441   1453   1465     1  0.0000000  0.6508444  3
   1442   1441   1453   1454     1  0.0000000  0.6508444  3
   1442   1441   1453   1455     1  0.0000000  0.6508444  3
   1443   1441   1440   1444     1  0.0000000  0.6508444  3
   1443   1441   1440   1447     1  0.0000000  0.6508444  3
   1443   1441   1440   1469     1  0.0000000  0.6508444  3
   1443   1441   1453   1465     1  0.0000000  0.6508444  3
   1443   1441   1453   1454     1  0.0000000  0.6508444  3
   1443   1441   1453   1455     1  0.0000000  0.6508444  3
   1444   1440   1447   1448     1  0.0000000  0.6508444  3
   1444   1440   1447   1449     1  0.0000000  0.6508444  3
   1444   1456   1462   1463     1  0.0000000  0.6508444  3
   1444   1456   1462   1464     1  0.0000000  0.6508444  3
   1445   1444   1440   1447     1  0.0000000  0.6508444  3
   1445   1444   1440   1469     1  0.0000000  0.6508444  3
   1445   1444   1456   1462     1  0.0000000  0.6508444  3
   1445   1444   1456   1457     1  0.0000000  0.6508444  3
   1445   1444   1456   1458     1  0.0000000  0.6508444  3
   1446   1444   1440   1447     1  0.0000000  0.6508444  3
   1446   1444   1440   1469     1  0.0000000  0.6508444  3
   1446   1444   1456   1462     1  0.0000000  0.6508444  3
   1446   1444   1456   1457     1  0.0000000  0.6508444  3
   1446   1444   1456   1458     1  0.0000000  0.6508444  3
   1447   1450   1459   1460     1  0.0000000  0.6508444  3
   1447   1450   1459   1461     1  0.0000000  0.6508444  3
   1448   1447   1440   1469     1  0.0000000  0.6508444  3
   1448   1447   1450   1459     1  0.0000000  0.6508444  3
   1448   1447   1450   1451     1  0.0000000  0.6508444  3
   1448   1447   1450   1452     1  0.0000000  0.6508444  3
   1449   1447   1440   1469     1  0.0000000  0.6508444  3
   1449   1447   1450   1459     1  0.0000000  0.6508444  3
   1449   1447   1450   1451     1  0.0000000  0.6508444  3
   1449   1447   1450   1452     1  0.0000000  0.6508444  3
   1450   1447   1440   1469     1  0.0000000  0.6508444  3
   1451   1450   1459   1468     1  0.0000000  1.0460000  1
   1451   1450   1459   1468     1  0.0000000  0.0000000  3
   1451   1450   1459   1460     1  0.0000000  0.6508444  3
   1451   1450   1459   1461     1  0.0000000  0.6508444  3
   1452   1450   1459   1468     1  0.0000000  1.0460000  1
   1452   1450   1459   1468     1  0.0000000  0.0000000  3
   1452   1450   1459   1460     1  0.0000000  0.6508444  3
   1452   1450   1459   1461     1  0.0000000  0.6508444  3
   1453   1441   1440   1469     1  0.0000000  0.6508444  3
   1454   1453   1465   2998     1  0.0000000  1.0460000  1
   1454   1453   1465   2998     1  0.0000000  0.0000000  3
   1454   1453   1465   1466     1  0.0000000  0.6508444  3
   1454   1453   1465   1467     1  0.0000000  0.6508444  3
   1455   1453   1465   2998     1  0.0000000  1.0460000  1
   1455   1453   1465   2998     1  0.0000000  0.0000000  3
   1455   1453   1465   1466     1  0.0000000  0.6508444  3
   1455   1453   1465   1467     1  0.0000000  0.6508444  3
   1456   1444   1440   1469     1  0.0000000  0.6508444  3
   1457   1456   1462   2968     1  0.0000000  1.0460000  1
   1457   1456   1462   2968     1  0.0000000  0.0000000  3
   1457   1456   1462   1463     1  0.0000000  0.6508444  3
   1457   1456   1462   1464     1  0.0000000  0.6508444  3
   1458   1456   1462   2968     1  0.0000000  1.0460000  1
   1458   1456   1462   2968     1  0.0000000  0.0000000  3
   1458   1456   1462   1463     1  0.0000000  0.6508444  3
   1458   1456   1462   1464     1  0.0000000  0.6508444  3
   1462   2968   2959   2960     1  0.0000000  1.6038667  3
   1462   2968   2959   2961     1  0.0000000  1.6038667  3
   1463   1462   2968   2959     1  0.0000000  1.6038667  3
   1464   1462   2968   2959     1  0.0000000  1.6038667  3
   1465   2998   2989   2990     1  0.0000000  1.6038667  3
   1465   2998   2989   2991     1  0.0000000  1.6038667  3
   1466   1465   2998   2989     1  0.0000000  1.6038667  3
   1467   1465   2998   2989     1  0.0000000  1.6038667  3
   1470   1471   1483   1484     1  0.0000000  0.6508444  3
   1470   1471   1483   1485     1  0.0000000  0.6508444  3
   1470   1474   1486   1487     1  0.0000000  0.6508444  3
   1470   1474   1486   1488     1  0.0000000  0.6508444  3
   1470   1477   1480   1481     1  0.0000000  0.6508444  3
   1470   1477   1480   1482     1  0.0000000  0.6508444  3
   1471   1470   1474   1475     1  0.0000000  0.6508444  3
   1471   1470   1474   1476     1  0.0000000  0.6508444  3
   1471   1470   1477   1478     1  0.0000000  0.6508444  3
   1471   1470   1477   1479     1  0.0000000  0.6508444  3
   1471   1483   1495   1496     1  0.0000000  0.6508444  3
   1471   1483   1495   1497     1  0.0000000  0.6508444  3
   1472   1471   1470   1474     1  0.0000000  0.6508444  3
   1472   1471   1470   1477     1  0.0000000  0.6508444  3
   1472   1471   1470   1499     1  0.0000000  0.6508444  3
   1472   1471   1483   1495     1  0.0000000  0.6508444  3
   1472   1471   1483   1484     1  0.0000000  0.6508444  3
   1472   1471   1483   1485     1  0.0000000  0.6508444  3
   1473   1471   1470   1474     1  0.0000000  0.6508444  3
   1473   1471   1470   1477     1  0.0000000  0.6508444  3
   1473   1471   1470   1499     1  0.0000000  0.6508444  3
   1473   1471   1483   1495     1  0.0000000  0.6508444  3
   1473   1471   1483   1484     1  0.0000000  0.6508444  3
   1473   1471   1483   1485     1  0.0000000  0.6508444  3
   1474   1470   1477   1478     1  0.0000000  0.6508444  3
   1474   1470   1477   1479     1  0.0000000  0.6508444  3
   1474   1486   1492   1493     1  0.0000000  0.6508444  3
   1474   1486   1492   1494     1  0.0000000  0.6508444  3
   1475   1474   1470   1477     1  0.0000000  0.6508444  3
   1475   1474   1470   1499     1  0.0000000  0.6508444  3
   1475   1474   1486   1492     1  0.0000000  0.6508444  3
   1475   1474   1486   1487     1  0.0000000  0.6508444  3
   1475   1474   1486   1488     1  0.0000000  0.6508444  3
   1476   1474   1470   1477     1  0.0000000  0.6508444  3
   1476   1474   1470   1499     1  0.0000000  0.6508444  3
   1476   1474   1486   1492     1  0.0000000  0.6508444  3
   1476   1474   1486   1487     1  0.0000000  0.6508444  3
   1476   1474   1486   1488     1  0.0000000  0.6508444  3
   1477   1480   1489   1490     1  0.0000000  0.6508444  3
   1477   1480   1489   1491     1  0.0000000  0.6508444  3
   1478   1477   1470   1499     1  0.0000000  0.6508444  3
   1478   1477   1480   1489     1  0.0000000  0.6508444  3
   1478   1477   1480   1481     1  0.0000000  0.6508444  3
   1478   1477   1480   1482     1  0.0000000  0.6508444  3
   1479   1477   1470   1499     1  0.0000000  0.6508444  3
   1479   1477   1480   1489     1  0.0000000  0.6508444  3
   1479   1477   1480   1481     1  0.0000000  0.6508444  3
   1479   1477   1480   1482     1  0.0000000  0.6508444  3
   1480   1477   1470   1499     1  0.0000000  0.6508444  3
   1481   1480   1489   1498     1  0.0000000  1.0460000  1
   1481   1480   1489   1498     1  0.0000000  0.0000000  3
   1481   1480   1489   1490     1  0.0000000  0.6508444  3
   1481   1480   1489   1491     1  0.0000000  0.6508444  3
   1482   1480   1489   1498     1  0.0000000  1.0460000  1
   1482   1480   1489   1498     1  0.0000000  0.0000000  3
   1482   1480   1489   1490     1  0.0000000  0.6508444  3
   1482   1480   1489   1491     1  0.0000000  0.6508444  3
   1483   1471   1470   1499     1  0.0000000  0.6508444  3
   1484   1483   1495   3058     1  0.0000000  1.0460000  1
   1484   1483   1495   3058     1  0.0000000  0.0000000  3
   1484   1483   1495   1496     1  0.0000000  0.6508444  3
   1484   1483   1495   1497     1  0.0000000  0.6508444  3
   1485   1483   1495   3058     1  0.0000000  1.0460000  1
   1485   1483   1495   3058     1  0.0000000  0.0000000  3
   1485   1483   1495   1496     1  0.0000000  0.6508444  3
   1485   1483   1495   1497     1  0.0000000  0.6508444  3
   1486   1474   1470   1499     1  0.0000000  0.6508444  3
   1487   1486   1492   3028     1  0.0000000  1.0460000  1
   1487   1486   1492   3028     1  0.0000000  0.0000000  3
   1487   1486   1492   1493     1  0.0000000  0.6508444  3
   1487   1486   1492   1494     1  0.0000000  0.6508444  3
   1488   1486   1492   3028     1  0.0000000  1.0460000  1
   1488   1486   1492   3028     1  0.0000000  0.0000000  3
   1488   1486   1492   1493     1  0.0000000  0.6508444  3
   1488   1486   1492   1494     1  0.0000000  0.6508444  3
   1492   3028   3019   3020     1  0.0000000  1.6038667  3
   1492   3028   3019   3021     1  0.0000000  1.6038667  3
   1493   1492   3028   3019     1  0.0000000  1.6038667  3
   1494   1492   3028   3019     1  0.0000000  1.6038667  3
   1495   3058   3049   3050     1  0.0000000  1.6038667  3
   1495   3058   3049   3051     1  0.0000000  1.6038667  3
   1496   1495   3058   3049     1  0.0000000  1.6038667  3
   1497   1495   3058   3049     1  0.0000000  1.6038667  3
   1500   1501   1513   1514     1  0.0000000  0.6508444  3
   1500   1501   1513   1515     1  0.0000000  0.6508444  3
   1500   1504   1516   1517     1  0.0000000  0.6508444  3
   1500   1504   1516   1518     1  0.0000000  0.6508444  3
   1500   1507   1510   1511     1  0.0000000  0.6508444  3
   1500   1507   1510   1512     1  0.0000000  0.6508444  3
   1501   1500   1504   1505     1  0.0000000  0.6508444  3
   1501   1500   1504   1506     1  0.0000000  0.6508444  3
   1501   1500   1507   1508     1  0.0000000  0.6508444  3
   1501   1500   1507   1509     1  0.0000000  0.6508444  3
   1501   1513   1525   1526     1  0.0000000  0.6508444  3
   1501   1513   1525   1527     1  0.0000000  0.6508444  3
   1502   1501   1500   1504     1  0.0000000  0.6508444  3
   1502   1501   1500   1507     1  0.0000000  0.6508444  3
   1502   1501   1500   1529     1  0.0000000  0.6508444  3
   1502   1501   1513   1525     1  0.0000000  0.6508444  3
   1502   1501   1513   1514     1  0.0000000  0.6508444  3
   1502   1501   1513   1515     1  0.0000000  0.6508444  3
   1503   1501   1500   1504     1  0.0000000  0.6508444  3
   1503   1501   1500   1507     1  0.0000000  0.6508444  3
   1503   1501   1500   1529     1  0.0000000  0.6508444  3
   1503   1501   1513   1525     1  0.0000000  0.6508444  3
   1503   1501   1513   1514     1  0.0000000  0.6508444  3
   1503   1501   1513   1515     1  0.0000000  0.6508444  3
   1504   1500   1507   1508     1  0.0000000  0.6508444  3
   1504   1500   1507   1509     1  0.0000000  0.6508444  3
   1504   1516   1522   1523     1  0.0000000  0.6508444  3
   1504   1516   1522   1524     1  0.0000000  0.6508444  3
   1505   1504   1500   1507     1  0.0000000  0.6508444  3
   1505   1504   1500   1529     1  0.0000000  0.6508444  3
   1505   1504   1516   1522     1  0.0000000  0.6508444  3
   1505   1504   1516   1517     1  0.0000000  0.6508444  3
   1505   1504   1516   1518     1  0.0000000  0.6508444  3
   1506   1504   1500   1507     1  0.0000000  0.6508444  3
   1506   1504   1500   1529     1  0.0000000  0.6508444  3
   1506   1504   1516   1522     1  0.0000000  0.6508444  3
   1506   1504   1516   1517     1  0.0000000  0.6508444  3
   1506   1504   1516   1518     1  0.0000000  0.6508444  3
   1507   1510   1519   1520     1  0.0000000  0.6508444  3
   1507   1510   1519   1521     1  0.0000000  0.6508444  3
   1508   1507   1500   1529     1  0.0000000  0.6508444  3
   1508   1507   1510   1519     1  0.0000000  0.6508444  3
   1508   1507   1510   1511     1  0.0000000  0.6508444  3
   1508   1507   1510   1512     1  0.0000000  0.6508444  3
   1509   1507   1500   1529     1  0.0000000  0.6508444  3
   1509   1507   1510   1519     1  0.0000000  0.6508444  3
   1509   1507   1510   1511     1  0.0000000  0.6508444  3
   1509   1507   1510   1512     1  0.0000000  0.6508444  3
   1510   1507   1500   1529     1  0.0000000  0.6508444  3
   1511   1510   1519   1528     1  0.0000000  1.0460000  1
   1511   1510   1519   1528     1  0.0000000  0.0000000  3
   1511   1510   1519   1520     1  0.0000000  0.6508444  3
   1511   1510   1519   1521     1  0.0000000  0.6508444  3
   1512   1510   1519   1528     1  0.0000000  1.0460000  1
   1512   1510   1519   1528     1  0.0000000  0.0000000  3
   1512   1510   1519   1520     1  0.0000000  0.6508444  3
   1512   1510   1519   1521     1  0.0000000  0.6508444  3
   1513   1501   1500   1529     1  0.0000000  0.6508444  3
   1514   1513   1525   3118     1  0.0000000  1.0460000  1
   1514   1513   1525   3118     1  0.0000000  0.0000000  3
   1514   1513   1525   1526     1  0.0000000  0.6508444  3
   1514   1513   1525   1527     1  0.0000000  0.6508444  3
   1515   1513   1525   3118     1  0.0000000  1.0460000  1
   1515   1513   1525   3118     1  0.0000000  0.0000000  3
   1515   1513   1525   1526     1  0.0000000  0.6508444  3
   1515   1513   1525   1527     1  0.0000000  0.6508444  3
   1516   1504   1500   1529     1  0.0000000  0.6508444  3
   1517   1516   1522   3088     1  0.0000000  1.0460000  1
   1517   1516   1522   3088     1  0.0000000  0.0000000  3
   1517   1516   1522   1523     1  0.0000000  0.6508444  3
   1517   1516   1522   1524     1  0.0000000  0.6508444  3
   1518   1516   1522   3088     1  0.0000000  1.0460000  1
   1518   1516   1522   3088     1  0.0000000  0.0000000  3
   1518   1516   1522   1523     1  0.0000000  0.6508444  3
   1518   1516   1522   1524     1  0.0000000  0.6508444  3
   1522   3088   3079   3080     1  0.0000000  1.6038667  3
   1522   3088   3079   3081     1  0.0000000  1.6038667  3
   1523   1522   3088   3079     1  0.0000000  1.6038667  3
   1524   1522   3088   3079     1  0.0000000  1.6038667  3
   1525   3118   3109   3110     1  0.0000000  1.6038667  3
   1525   3118   3109   3111     1  0.0000000  1.6038667  3
   1526   1525   3118   3109     1  0.0000000  1.6038667  3
   1527   1525   3118   3109     1  0.0000000  1.6038667  3
   1530   1531   1543   1544     1  0.0000000  0.6508444  3
   1530   1531   1543   1545     1  0.0000000  0.6508444  3
   1530   1534   1546   1547     1  0.0000000  0.6508444  3
   1530   1534   1546   1548     1  0.0000000  0.6508444  3
   1530   1537   1540   1541     1  0.0000000  0.6508444  3
   1530   1537   1540   1542     1  0.0000000  0.6508444  3
   1531   1530   1534   1535     1  0.0000000  0.6508444  3
   1531   1530   1534   1536     1  0.0000000  0.6508444  3
   1531   1530   1537   1538     1  0.0000000  0.6508444  3
   1531   1530   1537   1539     1  0.0000000  0.6508444  3
   1531   1543   1555   1556     1  0.0000000  0.6508444  3
   1531   1543   1555   1557     1  0.0000000  0.6508444  3
   1532   1531   1530   1534     1  0.0000000  0.6508444  3
   1532   1531   1530   1537     1  0.0000000  0.6508444  3
   1532   1531   1530   1559     1  0.0000000  0.6508444  3
   1532   1531   1543   1555     1  0.0000000  0.6508444  3
   1532   1531   1543   1544     1  0.0000000  0.6508444  3
   1532   1531   1543   1545     1  0.0000000  0.6508444  3
   1533   1531   1530   1534     1  0.0000000  0.6508444  3
   1533   1531   1530   1537     1  0.0000000  0.6508444  3
   1533   1531   1530   1559     1  0.0000000  0.6508444  3
   1533   1531   1543   1555     1  0.0000000  0.6508444  3
   1533   1531   1543   1544     1  0.0000000  0.6508444  3
   1533   1531   1543   1545     1  0.0000000  0.6508444  3
   1534   1530   1537   1538     1  0.0000000  0.6508444  3
   1534   1530   1537   1539     1  0.0000000  0.6508444  3
   1534   1546   1552   1553     1  0.0000000  0.6508444  3
   1534   1546   1552   1554     1  0.0000000  0.6508444  3
   1535   1534   1530   1537     1  0.0000000  0.6508444  3
   1535   1534   1530   1559     1  0.0000000  0.6508444  3
   1535   1534   1546   1552     1  0.0000000  0.6508444  3
   1535   1534   1546   1547     1  0.0000000  0.6508444  3
   1535   1534   1546   1548     1  0.0000000  0.6508444  3
   1536   1534   1530   1537     1  0.0000000  0.6508444  3
   1536   1534   1530   1559     1  0.0000000  0.6508444  3
   1536   1534   1546   1552     1  0.0000000  0.6508444  3
   1536   1534   1546   1547     1  0.0000000  0.6508444  3
   1536   1534   1546   1548     1  0.0000000  0.6508444  3
   1537   1540   1549   1550     1  0.0000000  0.6508444  3
   1537   1540   1549   1551     1  0.0000000  0.6508444  3
   1538   1537   1530   1559     1  0.0000000  0.6508444  3
   1538   1537   1540   1549     1  0.0000000  0.6508444  3
   1538   1537   1540   1541     1  0.0000000  0.6508444  3
   1538   1537   1540   1542     1  0.0000000  0.6508444  3
   1539   1537   1530   1559     1  0.0000000  0.6508444  3
   1539   1537   1540   1549     1  0.0000000  0.6508444  3
   1539   1537   1540   1541     1  0.0000000  0.6508444  3
   1539   1537   1540   1542     1  0.0000000  0.6508444  3
   1540   1537   1530   1559     1  0.0000000  0.6508444  3
   1541   1540   1549   1558     1  0.0000000  1.0460000  1
   1541   1540   1549   1558     1  0.0000000  0.0000000  3
   1541   1540   1549   1550     1  0.0000000  0.6508444  3
   1541   1540   1549   1551     1  0.0000000  0.6508444  3
   1542   1540   1549   1558     1  0.0000000  1.0460000  1
   1542   1540   1549   1558     1  0.0000000  0.0000000  3
   1542   1540   1549   1550     1  0.0000000  0.6508444  3
   1542   1540   1549   1551     1  0.0000000  0.6508444  3
   1543   1531   1530   1559     1  0.0000000  0.6508444  3
   1544   1543   1555   3178     1  0.0000000  1.0460000  1
   1544   1543   1555   3178     1  0.0000000  0.0000000  3
   1544   1543   1555   1556     1  0.0000000  0.6508444  3
   1544   1543   1555   1557     1  0.0000000  0.6508444  3
   1545   1543   1555   3178     1  0.0000000  1.0460000  1
   1545   1543   1555   3178     1  0.0000000  0.0000000  3
   1545   1543   1555   1556     1  0.0000000  0.6508444  3
   1545   1543   1555   1557     1  0.0000000  0.6508444  3
   1546   1534   1530   1559     1  0.0000000  0.6508444  3
   1547   1546   1552   3148     1  0.0000000  1.0460000  1
   1547   1546   1552   3148     1  0.0000000  0.0000000  3
   1547   1546   1552   1553     1  0.0000000  0.6508444  3
   1547   1546   1552   1554     1  0.0000000  0.6508444  3
   1548   1546   1552   3148     1  0.0000000  1.0460000  1
   1548   1546   1552   3148     1  0.0000000  0.0000000  3
   1548   1546   1552   1553     1  0.0000000  0.6508444  3
   1548   1546   1552   1554     1  0.0000000  0.6508444  3
   1552   3148   3139   3140     1  0.0000000  1.6038667  3
   1552   3148   3139   3141     1  0.0000000  1.6038667  3
   1553   1552   3148   3139     1  0.0000000  1.6038667  3
   1554   1552   3148   3139     1  0.0000000  1.6038667  3
   1555   3178   3169   3170     1  0.0000000  1.6038667  3
   1555   3178   3169   3171     1  0.0000000  1.6038667  3
   1556   1555   3178   3169     1  0.0000000  1.6038667  3
   1557   1555   3178   3169     1  0.0000000  1.6038667  3
   1560   1561   1573   1574     1  0.0000000  0.6508444  3
   1560   1561   1573   1575     1  0.0000000  0.6508444  3
   1560   1564   1576   1577     1  0.0000000  0.6508444  3
   1560   1564   1576   1578     1  0.0000000  0.6508444  3
   1560   1567   1570   1571     1  0.0000000  0.6508444  3
   1560   1567   1570   1572     1  0.0000000  0.6508444  3
   1561   1560   1564   1565     1  0.0000000  0.6508444  3
   1561   1560   1564   1566     1  0.0000000  0.6508444  3
   1561   1560   1567   1568     1  0.0000000  0.6508444  3
   1561   1560   1567   1569     1  0.0000000  0.6508444  3
   1561   1573   1585   1586     1  0.0000000  0.6508444  3
   1561   1573   1585   1587     1  0.0000000  0.6508444  3
   1562   1561   1560   1564     1  0.0000000  0.6508444  3
   1562   1561   1560   1567     1  0.0000000  0.6508444  3
   1562   1561   1560   1589     1  0.0000000  0.6508444  3
   1562   1561   1573   1585     1  0.0000000  0.6508444  3
   1562   1561   1573   1574     1  0.0000000  0.6508444  3
   1562   1561   1573   1575     1  0.0000000  0.6508444  3
   1563   1561   1560   1564     1  0.0000000  0.6508444  3
   1563   1561   1560   1567     1  0.0000000  0.6508444  3
   1563   1561   1560   1589     1  0.0000000  0.6508444  3
   1563   1561   1573   1585     1  0.0000000  0.6508444  3
   1563   1561   1573   1574     1  0.0000000  0.6508444  3
   1563   1561   1573   1575     1  0.0000000  0.6508444  3
   1564   1560   1567   1568     1  0.0000000  0.6508444  3
   1564   1560   1567   1569     1  0.0000000  0.6508444  3
   1564   1576   1582   1583     1  0.0000000  0.6508444  3
   1564   1576   1582   1584     1  0.0000000  0.6508444  3
   1565   1564   1560   1567     1  0.0000000  0.6508444  3
   1565   1564   1560   1589     1  0.0000000  0.6508444  3
   1565   1564   1576   1582     1  0.0000000  0.6508444  3
   1565   1564   1576   1577     1  0.0000000  0.6508444  3
   1565   1564   1576   1578     1  0.0000000  0.6508444  3
   1566   1564   1560   1567     1  0.0000000  0.6508444  3
   1566   1564   1560   1589     1  0.0000000  0.6508444  3
   1566   1564   1576   1582     1  0.0000000  0.6508444  3
   1566   1564   1576   1577     1  0.0000000  0.6508444  3
   1566   1564   1576   1578     1  0.0000000  0.6508444  3
   1567   1570   1579   1580     1  0.0000000  0.6508444  3
   1567   1570   1579   1581     1  0.0000000  0.6508444  3
   1568   1567   1560   1589     1  0.0000000  0.6508444  3
   1568   1567   1570   1579     1  0.0000000  0.6508444  3
   1568   1567   1570   1571     1  0.0000000  0.6508444  3
   1568   1567   1570   1572     1  0.0000000  0.6508444  3
   1569   1567   1560   1589     1  0.0000000  0.6508444  3
   1569   1567   1570   1579     1  0.0000000  0.6508444  3
   1569   1567   1570   1571     1  0.0000000  0.6508444  3
   1569   1567   1570   1572     1  0.0000000  0.6508444  3
   1570   1567   1560   1589     1  0.0000000  0.6508444  3
   1571   1570   1579   1588     1  0.0000000  1.0460000  1
   1571   1570   1579   1588     1  0.0000000  0.0000000  3
   1571   1570   1579   1580     1  0.0000000  0.6508444  3
   1571   1570   1579   1581     1  0.0000000  0.6508444  3
   1572   1570   1579   1588     1  0.0000000  1.0460000  1
   1572   1570   1579   1588     1  0.0000000  0.0000000  3
   1572   1570   1579   1580     1  0.0000000  0.6508444  3
   1572   1570   1579   1581     1  0.0000000  0.6508444  3
   1573   1561   1560   1589     1  0.0000000  0.6508444  3
   1574   1573   1585   3238     1  0.0000000  1.0460000  1
   1574   1573   1585   3238     1  0.0000000  0.0000000  3
   1574   1573   1585   1586     1  0.0000000  0.6508444  3
   1574   1573   1585   1587     1  0.0000000  0.6508444  3
   1575   1573   1585   3238     1  0.0000000  1.0460000  1
   1575   1573   1585   3238     1  0.0000000  0.0000000  3
   1575   1573   1585   1586     1  0.0000000  0.6508444  3
   1575   1573   1585   1587     1  0.0000000  0.6508444  3
   1576   1564   1560   1589     1  0.0000000  0.6508444  3
   1577   1576   1582   3208     1  0.0000000  1.0460000  1
   1577   1576   1582   3208     1  0.0000000  0.0000000  3
   1577   1576   1582   1583     1  0.0000000  0.6508444  3
   1577   1576   1582   1584     1  0.0000000  0.6508444  3
   1578   1576   1582   3208     1  0.0000000  1.0460000  1
   1578   1576   1582   3208     1  0.0000000  0.0000000  3
   1578   1576   1582   1583     1  0.0000000  0.6508444  3
   1578   1576   1582   1584     1  0.0000000  0.6508444  3
   1582   3208   3199   3200     1  0.0000000  1.6038667  3
   1582   3208   3199   3201     1  0.0000000  1.6038667  3
   1583   1582   3208   3199     1  0.0000000  1.6038667  3
   1584   1582   3208   3199     1  0.0000000  1.6038667  3
   1585   3238   3229   3230     1  0.0000000  1.6038667  3
   1585   3238   3229   3231     1  0.0000000  1.6038667  3
   1586   1585   3238   3229     1  0.0000000  1.6038667  3
   1587   1585   3238   3229     1  0.0000000  1.6038667  3
   1590   1591   1603   1604     1  0.0000000  0.6508444  3
   1590   1591   1603   1605     1  0.0000000  0.6508444  3
   1590   1594   1606   1607     1  0.0000000  0.6508444  3
   1590   1594   1606   1608     1  0.0000000  0.6508444  3
   1590   1597   1600   1601     1  0.0000000  0.6508444  3
   1590   1597   1600   1602     1  0.0000000  0.6508444  3
   1591   1590   1594   1595     1  0.0000000  0.6508444  3
   1591   1590   1594   1596     1  0.0000000  0.6508444  3
   1591   1590   1597   1598     1  0.0000000  0.6508444  3
   1591   1590   1597   1599     1  0.0000000  0.6508444  3
   1591   1603   1615   1616     1  0.0000000  0.6508444  3
   1591   1603   1615   1617     1  0.0000000  0.6508444  3
   1592   1591   1590   1594     1  0.0000000  0.6508444  3
   1592   1591   1590   1597     1  0.0000000  0.6508444  3
   1592   1591   1590   1619     1  0.0000000  0.6508444  3
   1592   1591   1603   1615     1  0.0000000  0.6508444  3
   1592   1591   1603   1604     1  0.0000000  0.6508444  3
   1592   1591   1603   1605     1  0.0000000  0.6508444  3
   1593   1591   1590   1594     1  0.0000000  0.6508444  3
   1593   1591   1590   1597     1  0.0000000  0.6508444  3
   1593   1591   1590   1619     1  0.0000000  0.6508444  3
   1593   1591   1603   1615     1  0.0000000  0.6508444  3
   1593   1591   1603   1604     1  0.0000000  0.6508444  3
   1593   1591   1603   1605     1  0.0000000  0.6508444  3
   1594   1590   1597   1598     1  0.0000000  0.6508444  3
   1594   1590   1597   1599     1  0.0000000  0.6508444  3
   1594   1606   1612   1613     1  0.0000000  0.6508444  3
   1594   1606   1612   1614     1  0.0000000  0.6508444  3
   1595   1594   1590   1597     1  0.0000000  0.6508444  3
   1595   1594   1590   1619     1  0.0000000  0.6508444  3
   1595   1594   1606   1612     1  0.0000000  0.6508444  3
   1595   1594   1606   1607     1  0.0000000  0.6508444  3
   1595   1594   1606   1608     1  0.0000000  0.6508444  3
   1596   1594   1590   1597     1  0.0000000  0.6508444  3
   1596   1594   1590   1619     1  0.0000000  0.6508444  3
   1596   1594   1606   1612     1  0.0000000  0.6508444  3
   1596   1594   1606   1607     1  0.0000000  0.6508444  3
   1596   1594   1606   1608     1  0.0000000  0.6508444  3
   1597   1600   1609   1610     1  0.0000000  0.6508444  3
   1597   1600   1609   1611     1  0.0000000  0.6508444  3
   1598   1597   1590   1619     1  0.0000000  0.6508444  3
   1598   1597   1600   1609     1  0.0000000  0.6508444  3
   1598   1597   1600   1601     1  0.0000000  0.6508444  3
   1598   1597   1600   1602     1  0.0000000  0.6508444  3
   1599   1597   1590   1619     1  0.0000000  0.6508444  3
   1599   1597   1600   1609     1  0.0000000  0.6508444  3
   1599   1597   1600   1601     1  0.0000000  0.6508444  3
   1599   1597   1600   1602     1  0.0000000  0.6508444  3
   1600   1597   1590   1619     1  0.0000000  0.6508444  3
   1601   1600   1609   1618     1  0.0000000  1.0460000  1
   1601   1600   1609   1618     1  0.0000000  0.0000000  3
   1601   1600   1609   1610     1  0.0000000  0.6508444  3
   1601   1600   1609   1611     1  0.0000000  0.6508444  3
   1602   1600   1609   1618     1  0.0000000  1.0460000  1
   1602   1600   1609   1618     1  0.0000000  0.0000000  3
   1602   1600   1609   1610     1  0.0000000  0.6508444  3
   1602   1600   1609   1611     1  0.0000000  0.6508444  3
   1603   1591   1590   1619     1  0.0000000  0.6508444  3
   1604   1603   1615   3298     1  0.0000000  1.0460000  1
   1604   1603   1615   3298     1  0.0000000  0.0000000  3
   1604   1603   1615   1616     1  0.0000000  0.6508444  3
   1604   1603   1615   1617     1  0.0000000  0.6508444  3
   1605   1603   1615   3298     1  0.0000000  1.0460000  1
   1605   1603   1615   3298     1  0.0000000  0.0000000  3
   1605   1603   1615   1616     1  0.0000000  0.6508444  3
   1605   1603   1615   1617     1  0.0000000  0.6508444  3
   1606   1594   1590   1619     1  0.0000000  0.6508444  3
   1607   1606   1612   3268     1  0.0000000  1.0460000  1
   1607   1606   1612   3268     1  0.0000000  0.0000000  3
   1607   1606   1612   1613     1  0.0000000  0.6508444  3
   1607   1606   1612   1614     1  0.0000000  0.6508444  3
   1608   1606   1612   3268     1  0.0000000  1.0460000  1
   1608   1606   1612   3268     1  0.0000000  0.0000000  3
   1608   1606   1612   1613     1  0.0000000  0.6508444  3
   1608   1606   1612   1614     1  0.0000000  0.6508444  3
   1612   3268   3259   3260     1  0.0000000  1.6038667  3
   1612   3268   3259   3261     1  0.0000000  1.6038667  3
   1613   1612   3268   3259     1  0.0000000  1.6038667  3
   1614   1612   3268   3259     1  0.0000000  1.6038667  3
   1615   3298   3289   3290     1  0.0000000  1.6038667  3
   1615   3298   3289   3291     1  0.0000000  1.6038667  3
   1616   1615   3298   3289     1  0.0000000  1.6038667  3
   1617   1615   3298   3289     1  0.0000000  1.6038667  3
   1620   1621   1633   1634     1  0.0000000  0.6508444  3
   1620   1621   1633   1635     1  0.0000000  0.6508444  3
   1620   1624   1636   1637     1  0.0000000  0.6508444  3
   1620   1624   1636   1638     1  0.0000000  0.6508444  3
   1620   1627   1630   1631     1  0.0000000  0.6508444  3
   1620   1627   1630   1632     1  0.0000000  0.6508444  3
   1621   1620   1624   1625     1  0.0000000  0.6508444  3
   1621   1620   1624   1626     1  0.0000000  0.6508444  3
   1621   1620   1627   1628     1  0.0000000  0.6508444  3
   1621   1620   1627   1629     1  0.0000000  0.6508444  3
   1621   1633   1645   1646     1  0.0000000  0.6508444  3
   1621   1633   1645   1647     1  0.0000000  0.6508444  3
   1622   1621   1620   1624     1  0.0000000  0.6508444  3
   1622   1621   1620   1627     1  0.0000000  0.6508444  3
   1622   1621   1620   1649     1  0.0000000  0.6508444  3
   1622   1621   1633   1645     1  0.0000000  0.6508444  3
   1622   1621   1633   1634     1  0.0000000  0.6508444  3
   1622   1621   1633   1635     1  0.0000000  0.6508444  3
   1623   1621   1620   1624     1  0.0000000  0.6508444  3
   1623   1621   1620   1627     1  0.0000000  0.6508444  3
   1623   1621   1620   1649     1  0.0000000  0.6508444  3
   1623   1621   1633   1645     1  0.0000000  0.6508444  3
   1623   1621   1633   1634     1  0.0000000  0.6508444  3
   1623   1621   1633   1635     1  0.0000000  0.6508444  3
   1624   1620   1627   1628     1  0.0000000  0.6508444  3
   1624   1620   1627   1629     1  0.0000000  0.6508444  3
   1624   1636   1642   1643     1  0.0000000  0.6508444  3
   1624   1636   1642   1644     1  0.0000000  0.6508444  3
   1625   1624   1620   1627     1  0.0000000  0.6508444  3
   1625   1624   1620   1649     1  0.0000000  0.6508444  3
   1625   1624   1636   1642     1  0.0000000  0.6508444  3
   1625   1624   1636   1637     1  0.0000000  0.6508444  3
   1625   1624   1636   1638     1  0.0000000  0.6508444  3
   1626   1624   1620   1627     1  0.0000000  0.6508444  3
   1626   1624   1620   1649     1  0.0000000  0.6508444  3
   1626   1624   1636   1642     1  0.0000000  0.6508444  3
   1626   1624   1636   1637     1  0.0000000  0.6508444  3
   1626   1624   1636   1638     1  0.0000000  0.6508444  3
   1627   1630   1639   1640     1  0.0000000  0.6508444  3
   1627   1630   1639   1641     1  0.0000000  0.6508444  3
   1628   1627   1620   1649     1  0.0000000  0.6508444  3
   1628   1627   1630   1639     1  0.0000000  0.6508444  3
   1628   1627   1630   1631     1  0.0000000  0.6508444  3
   1628   1627   1630   1632     1  0.0000000  0.6508444  3
   1629   1627   1620   1649     1  0.0000000  0.6508444  3
   1629   1627   1630   1639     1  0.0000000  0.6508444  3
   1629   1627   1630   1631     1  0.0000000  0.6508444  3
   1629   1627   1630   1632     1  0.0000000  0.6508444  3
   1630   1627   1620   1649     1  0.0000000  0.6508444  3
   1631   1630   1639   1648     1  0.0000000  1.0460000  1
   1631   1630   1639   1648     1  0.0000000  0.0000000  3
   1631   1630   1639   1640     1  0.0000000  0.6508444  3
   1631   1630   1639   1641     1  0.0000000  0.6508444  3
   1632   1630   1639   1648     1  0.0000000  1.0460000  1
   1632   1630   1639   1648     1  0.0000000  0.0000000  3
   1632   1630   1639   1640     1  0.0000000  0.6508444  3
   1632   1630   1639   1641     1  0.0000000  0.6508444  3
   1633   1621   1620   1649     1  0.0000000  0.6508444  3
   1634   1633   1645   3358     1  0.0000000  1.0460000  1
   1634   1633   1645   3358     1  0.0000000  0.0000000  3
   1634   1633   1645   1646     1  0.0000000  0.6508444  3
   1634   1633   1645   1647     1  0.0000000  0.6508444  3
   1635   1633   1645   3358     1  0.0000000  1.0460000  1
   1635   1633   1645   3358     1  0.0000000  0.0000000  3
   1635   1633   1645   1646     1  0.0000000  0.6508444  3
   1635   1633   1645   1647     1  0.0000000  0.6508444  3
   1636   1624   1620   1649     1  0.0000000  0.6508444  3
   1637   1636   1642   3328     1  0.0000000  1.0460000  1
   1637   1636   1642   3328     1  0.0000000  0.0000000  3
   1637   1636   1642   1643     1  0.0000000  0.6508444  3
   1637   1636   1642   1644     1  0.0000000  0.6508444  3
   1638   1636   1642   3328     1  0.0000000  1.0460000  1
   1638   1636   1642   3328     1  0.0000000  0.0000000  3
   1638   1636   1642   1643     1  0.0000000  0.6508444  3
   1638   1636   1642   1644     1  0.0000000  0.6508444  3
   1642   3328   3319   3320     1  0.0000000  1.6038667  3
   1642   3328   3319   3321     1  0.0000000  1.6038667  3
   1643   1642   3328   3319     1  0.0000000  1.6038667  3
   1644   1642   3328   3319     1  0.0000000  1.6038667  3
   1645   3358   3349   3350     1  0.0000000  1.6038667  3
   1645   3358   3349   3351     1  0.0000000  1.6038667  3
   1646   1645   3358   3349     1  0.0000000  1.6038667  3
   1647   1645   3358   3349     1  0.0000000  1.6038667  3
   1650   1651   1663   1664     1  0.0000000  0.6508444  3
   1650   1651   1663   1665     1  0.0000000  0.6508444  3
   1650   1654   1666   1667     1  0.0000000  0.6508444  3
   1650   1654   1666   1668     1  0.0000000  0.6508444  3
   1650   1657   1660   1661     1  0.0000000  0.6508444  3
   1650   1657   1660   1662     1  0.0000000  0.6508444  3
   1651   1650   1654   1655     1  0.0000000  0.6508444  3
   1651   1650   1654   1656     1  0.0000000  0.6508444  3
   1651   1650   1657   1658     1  0.0000000  0.6508444  3
   1651   1650   1657   1659     1  0.0000000  0.6508444  3
   1651   1663   1675   1676     1  0.0000000  0.6508444  3
   1651   1663   1675   1677     1  0.0000000  0.6508444  3
   1652   1651   1650   1654     1  0.0000000  0.6508444  3
   1652   1651   1650   1657     1  0.0000000  0.6508444  3
   1652   1651   1650   1679     1  0.0000000  0.6508444  3
   1652   1651   1663   1675     1  0.0000000  0.6508444  3
   1652   1651   1663   1664     1  0.0000000  0.6508444  3
   1652   1651   1663   1665     1  0.0000000  0.6508444  3
   1653   1651   1650   1654     1  0.0000000  0.6508444  3
   1653   1651   1650   1657     1  0.0000000  0.6508444  3
   1653   1651   1650   1679     1  0.0000000  0.6508444  3
   1653   1651   1663   1675     1  0.0000000  0.6508444  3
   1653   1651   1663   1664     1  0.0000000  0.6508444  3
   1653   1651   1663   1665     1  0.0000000  0.6508444  3
   1654   1650   1657   1658     1  0.0000000  0.6508444  3
   1654   1650   1657   1659     1  0.0000000  0.6508444  3
   1654   1666   1672   1673     1  0.0000000  0.6508444  3
   1654   1666   1672   1674     1  0.0000000  0.6508444  3
   1655   1654   1650   1657     1  0.0000000  0.6508444  3
   1655   1654   1650   1679     1  0.0000000  0.6508444  3
   1655   1654   1666   1672     1  0.0000000  0.6508444  3
   1655   1654   1666   1667     1  0.0000000  0.6508444  3
   1655   1654   1666   1668     1  0.0000000  0.6508444  3
   1656   1654   1650   1657     1  0.0000000  0.6508444  3
   1656   1654   1650   1679     1  0.0000000  0.6508444  3
   1656   1654   1666   1672     1  0.0000000  0.6508444  3
   1656   1654   1666   1667     1  0.0000000  0.6508444  3
   1656   1654   1666   1668     1  0.0000000  0.6508444  3
   1657   1660   1669   1670     1  0.0000000  0.6508444  3
   1657   1660   1669   1671     1  0.0000000  0.6508444  3
   1658   1657   1650   1679     1  0.0000000  0.6508444  3
   1658   1657   1660   1669     1  0.0000000  0.6508444  3
   1658   1657   1660   1661     1  0.0000000  0.6508444  3
   1658   1657   1660   1662     1  0.0000000  0.6508444  3
   1659   1657   1650   1679     1  0.0000000  0.6508444  3
   1659   1657   1660   1669     1  0.0000000  0.6508444  3
   1659   1657   1660   1661     1  0.0000000  0.6508444  3
   1659   1657   1660   1662     1  0.0000000  0.6508444  3
   1660   1657   1650   1679     1  0.0000000  0.6508444  3
   1661   1660   1669   1678     1  0.0000000  1.0460000  1
   1661   1660   1669   1678     1  0.0000000  0.0000000  3
   1661   1660   1669   1670     1  0.0000000  0.6508444  3
   1661   1660   1669   1671     1  0.0000000  0.6508444  3
   1662   1660   1669   1678     1  0.0000000  1.0460000  1
   1662   1660   1669   1678     1  0.0000000  0.0000000  3
   1662   1660   1669   1670     1  0.0000000  0.6508444  3
   1662   1660   1669   1671     1  0.0000000  0.6508444  3
   1663   1651   1650   1679     1  0.0000000  0.6508444  3
   1664   1663   1675   3418     1  0.0000000  1.0460000  1
   1664   1663   1675   3418     1  0.0000000  0.0000000  3
   1664   1663   1675   1676     1  0.0000000  0.6508444  3
   1664   1663   1675   1677     1  0.0000000  0.6508444  3
   1665   1663   1675   3418     1  0.0000000  1.0460000  1
   1665   1663   1675   3418     1  0.0000000  0.0000000  3
   1665   1663   1675   1676     1  0.0000000  0.6508444  3
   1665   1663   1675   1677     1  0.0000000  0.6508444  3
   1666   1654   1650   1679     1  0.0000000  0.6508444  3
   1667   1666   1672   3388     1  0.0000000  1.0460000  1
   1667   1666   1672   3388     1  0.0000000  0.0000000  3
   1667   1666   1672   1673     1  0.0000000  0.6508444  3
   1667   1666   1672   1674     1  0.0000000  0.6508444  3
   1668   1666   1672   3388     1  0.0000000  1.0460000  1
   1668   1666   1672   3388     1  0.0000000  0.0000000  3
   1668   1666   1672   1673     1  0.0000000  0.6508444  3
   1668   1666   1672   1674     1  0.0000000  0.6508444  3
   1672   3388   3379   3380     1  0.0000000  1.6038667  3
   1672   3388   3379   3381     1  0.0000000  1.6038667  3
   1673   1672   3388   3379     1  0.0000000  1.6038667  3
   1674   1672   3388   3379     1  0.0000000  1.6038667  3
   1675   3418   3409   3410     1  0.0000000  1.6038667  3
   1675   3418   3409   3411     1  0.0000000  1.6038667  3
   1676   1675   3418   3409     1  0.0000000  1.6038667  3
   1677   1675   3418   3409     1  0.0000000  1.6038667  3
   1680   1681   1693   1694     1  0.0000000  0.6508444  3
   1680   1681   1693   1695     1  0.0000000  0.6508444  3
   1680   1684   1696   1697     1  0.0000000  0.6508444  3
   1680   1684   1696   1698     1  0.0000000  0.6508444  3
   1680   1687   1690   1691     1  0.0000000  0.6508444  3
   1680   1687   1690   1692     1  0.0000000  0.6508444  3
   1681   1680   1684   1685     1  0.0000000  0.6508444  3
   1681   1680   1684   1686     1  0.0000000  0.6508444  3
   1681   1680   1687   1688     1  0.0000000  0.6508444  3
   1681   1680   1687   1689     1  0.0000000  0.6508444  3
   1681   1693   1705   1706     1  0.0000000  0.6508444  3
   1681   1693   1705   1707     1  0.0000000  0.6508444  3
   1682   1681   1680   1684     1  0.0000000  0.6508444  3
   1682   1681   1680   1687     1  0.0000000  0.6508444  3
   1682   1681   1680   1709     1  0.0000000  0.6508444  3
   1682   1681   1693   1705     1  0.0000000  0.6508444  3
   1682   1681   1693   1694     1  0.0000000  0.6508444  3
   1682   1681   1693   1695     1  0.0000000  0.6508444  3
   1683   1681   1680   1684     1  0.0000000  0.6508444  3
   1683   1681   1680   1687     1  0.0000000  0.6508444  3
   1683   1681   1680   1709     1  0.0000000  0.6508444  3
   1683   1681   1693   1705     1  0.0000000  0.6508444  3
   1683   1681   1693   1694     1  0.0000000  0.6508444  3
   1683   1681   1693   1695     1  0.0000000  0.6508444  3
   1684   1680   1687   1688     1  0.0000000  0.6508444  3
   1684   1680   1687   1689     1  0.0000000  0.6508444  3
   1684   1696   1702   1703     1  0.0000000  0.6508444  3
   1684   1696   1702   1704     1  0.0000000  0.6508444  3
   1685   1684   1680   1687     1  0.0000000  0.6508444  3
   1685   1684   1680   1709     1  0.0000000  0.6508444  3
   1685   1684   1696   1702     1  0.0000000  0.6508444  3
   1685   1684   1696   1697     1  0.0000000  0.6508444  3
   1685   1684   1696   1698     1  0.0000000  0.6508444  3
   1686   1684   1680   1687     1  0.0000000  0.6508444  3
   1686   1684   1680   1709     1  0.0000000  0.6508444  3
   1686   1684   1696   1702     1  0.0000000  0.6508444  3
   1686   1684   1696   1697     1  0.0000000  0.6508444  3
   1686   1684   1696   1698     1  0.0000000  0.6508444  3
   1687   1690   1699   1700     1  0.0000000  0.6508444  3
   1687   1690   1699   1701     1  0.0000000  0.6508444  3
   1688   1687   1680   1709     1  0.0000000  0.6508444  3
   1688   1687   1690   1699     1  0.0000000  0.6508444  3
   1688   1687   1690   1691     1  0.0000000  0.6508444  3
   1688   1687   1690   1692     1  0.0000000  0.6508444  3
   1689   1687   1680   1709     1  0.0000000  0.6508444  3
   1689   1687   1690   1699     1  0.0000000  0.6508444  3
   1689   1687   1690   1691     1  0.0000000  0.6508444  3
   1689   1687   1690   1692     1  0.0000000  0.6508444  3
   1690   1687   1680   1709     1  0.0000000  0.6508444  3
   1691   1690   1699   1708     1  0.0000000  1.0460000  1
   1691   1690   1699   1708     1  0.0000000  0.0000000  3
   1691   1690   1699   1700     1  0.0000000  0.6508444  3
   1691   1690   1699   1701     1  0.0000000  0.6508444  3
   1692   1690   1699   1708     1  0.0000000  1.0460000  1
   1692   1690   1699   1708     1  0.0000000  0.0000000  3
   1692   1690   1699   1700     1  0.0000000  0.6508444  3
   1692   1690   1699   1701     1  0.0000000  0.6508444  3
   1693   1681   1680   1709     1  0.0000000  0.6508444  3
   1694   1693   1705   3478     1  0.0000000  1.0460000  1
   1694   1693   1705   3478     1  0.0000000  0.0000000  3
   1694   1693   1705   1706     1  0.0000000  0.6508444  3
   1694   1693   1705   1707     1  0.0000000  0.6508444  3
   1695   1693   1705   3478     1  0.0000000  1.0460000  1
   1695   1693   1705   3478     1  0.0000000  0.0000000  3
   1695   1693   1705   1706     1  0.0000000  0.6508444  3
   1695   1693   1705   1707     1  0.0000000  0.6508444  3
   1696   1684   1680   1709     1  0.0000000  0.6508444  3
   1697   1696   1702   3448     1  0.0000000  1.0460000  1
   1697   1696   1702   3448     1  0.0000000  0.0000000  3
   1697   1696   1702   1703     1  0.0000000  0.6508444  3
   1697   1696   1702   1704     1  0.0000000  0.6508444  3
   1698   1696   1702   3448     1  0.0000000  1.0460000  1
   1698   1696   1702   3448     1  0.0000000  0.0000000  3
   1698   1696   1702   1703     1  0.0000000  0.6508444  3
   1698   1696   1702   1704     1  0.0000000  0.6508444  3
   1702   3448   3439   3440     1  0.0000000  1.6038667  3
   1702   3448   3439   3441     1  0.0000000  1.6038667  3
   1703   1702   3448   3439     1  0.0000000  1.6038667  3
   1704   1702   3448   3439     1  0.0000000  1.6038667  3
   1705   3478   3469   3470     1  0.0000000  1.6038667  3
   1705   3478   3469   3471     1  0.0000000  1.6038667  3
   1706   1705   3478   3469     1  0.0000000  1.6038667  3
   1707   1705   3478   3469     1  0.0000000  1.6038667  3
   1710   1711   1723   1724     1  0.0000000  0.6508444  3
   1710   1711   1723   1725     1  0.0000000  0.6508444  3
   1710   1714   1726   1727     1  0.0000000  0.6508444  3
   1710   1714   1726   1728     1  0.0000000  0.6508444  3
   1710   1717   1720   1721     1  0.0000000  0.6508444  3
   1710   1717   1720   1722     1  0.0000000  0.6508444  3
   1711   1710   1714   1715     1  0.0000000  0.6508444  3
   1711   1710   1714   1716     1  0.0000000  0.6508444  3
   1711   1710   1717   1718     1  0.0000000  0.6508444  3
   1711   1710   1717   1719     1  0.0000000  0.6508444  3
   1711   1723   1735   1736     1  0.0000000  0.6508444  3
   1711   1723   1735   1737     1  0.0000000  0.6508444  3
   1712   1711   1710   1714     1  0.0000000  0.6508444  3
   1712   1711   1710   1717     1  0.0000000  0.6508444  3
   1712   1711   1710   1739     1  0.0000000  0.6508444  3
   1712   1711   1723   1735     1  0.0000000  0.6508444  3
   1712   1711   1723   1724     1  0.0000000  0.6508444  3
   1712   1711   1723   1725     1  0.0000000  0.6508444  3
   1713   1711   1710   1714     1  0.0000000  0.6508444  3
   1713   1711   1710   1717     1  0.0000000  0.6508444  3
   1713   1711   1710   1739     1  0.0000000  0.6508444  3
   1713   1711   1723   1735     1  0.0000000  0.6508444  3
   1713   1711   1723   1724     1  0.0000000  0.6508444  3
   1713   1711   1723   1725     1  0.0000000  0.6508444  3
   1714   1710   1717   1718     1  0.0000000  0.6508444  3
   1714   1710   1717   1719     1  0.0000000  0.6508444  3
   1714   1726   1732   1733     1  0.0000000  0.6508444  3
   1714   1726   1732   1734     1  0.0000000  0.6508444  3
   1715   1714   1710   1717     1  0.0000000  0.6508444  3
   1715   1714   1710   1739     1  0.0000000  0.6508444  3
   1715   1714   1726   1732     1  0.0000000  0.6508444  3
   1715   1714   1726   1727     1  0.0000000  0.6508444  3
   1715   1714   1726   1728     1  0.0000000  0.6508444  3
   1716   1714   1710   1717     1  0.0000000  0.6508444  3
   1716   1714   1710   1739     1  0.0000000  0.6508444  3
   1716   1714   1726   1732     1  0.0000000  0.6508444  3
   1716   1714   1726   1727     1  0.0000000  0.6508444  3
   1716   1714   1726   1728     1  0.0000000  0.6508444  3
   1717   1720   1729   1730     1  0.0000000  0.6508444  3
   1717   1720   1729   1731     1  0.0000000  0.6508444  3
   1718   1717   1710   1739     1  0.0000000  0.6508444  3
   1718   1717   1720   1729     1  0.0000000  0.6508444  3
   1718   1717   1720   1721     1  0.0000000  0.6508444  3
   1718   1717   1720   1722     1  0.0000000  0.6508444  3
   1719   1717   1710   1739     1  0.0000000  0.6508444  3
   1719   1717   1720   1729     1  0.0000000  0.6508444  3
   1719   1717   1720   1721     1  0.0000000  0.6508444  3
   1719   1717   1720   1722     1  0.0000000  0.6508444  3
   1720   1717   1710   1739     1  0.0000000  0.6508444  3
   1721   1720   1729   1738     1  0.0000000  1.0460000  1
   1721   1720   1729   1738     1  0.0000000  0.0000000  3
   1721   1720   1729   1730     1  0.0000000  0.6508444  3
   1721   1720   1729   1731     1  0.0000000  0.6508444  3
   1722   1720   1729   1738     1  0.0000000  1.0460000  1
   1722   1720   1729   1738     1  0.0000000  0.0000000  3
   1722   1720   1729   1730     1  0.0000000  0.6508444  3
   1722   1720   1729   1731     1  0.0000000  0.6508444  3
   1723   1711   1710   1739     1  0.0000000  0.6508444  3
   1724   1723   1735   3538     1  0.0000000  1.0460000  1
   1724   1723   1735   3538     1  0.0000000  0.0000000  3
   1724   1723   1735   1736     1  0.0000000  0.6508444  3
   1724   1723   1735   1737     1  0.0000000  0.6508444  3
   1725   1723   1735   3538     1  0.0000000  1.0460000  1
   1725   1723   1735   3538     1  0.0000000  0.0000000  3
   1725   1723   1735   1736     1  0.0000000  0.6508444  3
   1725   1723   1735   1737     1  0.0000000  0.6508444  3
   1726   1714   1710   1739     1  0.0000000  0.6508444  3
   1727   1726   1732   3508     1  0.0000000  1.0460000  1
   1727   1726   1732   3508     1  0.0000000  0.0000000  3
   1727   1726   1732   1733     1  0.0000000  0.6508444  3
   1727   1726   1732   1734     1  0.0000000  0.6508444  3
   1728   1726   1732   3508     1  0.0000000  1.0460000  1
   1728   1726   1732   3508     1  0.0000000  0.0000000  3
   1728   1726   1732   1733     1  0.0000000  0.6508444  3
   1728   1726   1732   1734     1  0.0000000  0.6508444  3
   1732   3508   3499   3500     1  0.0000000  1.6038667  3
   1732   3508   3499   3501     1  0.0000000  1.6038667  3
   1733   1732   3508   3499     1  0.0000000  1.6038667  3
   1734   1732   3508   3499     1  0.0000000  1.6038667  3
   1735   3538   3529   3530     1  0.0000000  1.6038667  3
   1735   3538   3529   3531     1  0.0000000  1.6038667  3
   1736   1735   3538   3529     1  0.0000000  1.6038667  3
   1737   1735   3538   3529     1  0.0000000  1.6038667  3
   1740   1741   1753   1754     1  0.0000000  0.6508444  3
   1740   1741   1753   1755     1  0.0000000  0.6508444  3
   1740   1744   1756   1757     1  0.0000000  0.6508444  3
   1740   1744   1756   1758     1  0.0000000  0.6508444  3
   1740   1747   1750   1751     1  0.0000000  0.6508444  3
   1740   1747   1750   1752     1  0.0000000  0.6508444  3
   1741   1740   1744   1745     1  0.0000000  0.6508444  3
   1741   1740   1744   1746     1  0.0000000  0.6508444  3
   1741   1740   1747   1748     1  0.0000000  0.6508444  3
   1741   1740   1747   1749     1  0.0000000  0.6508444  3
   1741   1753   1765   1766     1  0.0000000  0.6508444  3
   1741   1753   1765   1767     1  0.0000000  0.6508444  3
   1742   1741   1740   1744     1  0.0000000  0.6508444  3
   1742   1741   1740   1747     1  0.0000000  0.6508444  3
   1742   1741   1740   1769     1  0.0000000  0.6508444  3
   1742   1741   1753   1765     1  0.0000000  0.6508444  3
   1742   1741   1753   1754     1  0.0000000  0.6508444  3
   1742   1741   1753   1755     1  0.0000000  0.6508444  3
   1743   1741   1740   1744     1  0.0000000  0.6508444  3
   1743   1741   1740   1747     1  0.0000000  0.6508444  3
   1743   1741   1740   1769     1  0.0000000  0.6508444  3
   1743   1741   1753   1765     1  0.0000000  0.6508444  3
   1743   1741   1753   1754     1  0.0000000  0.6508444  3
   1743   1741   1753   1755     1  0.0000000  0.6508444  3
   1744   1740   1747   1748     1  0.0000000  0.6508444  3
   1744   1740   1747   1749     1  0.0000000  0.6508444  3
   1744   1756   1762   1763     1  0.0000000  0.6508444  3
   1744   1756   1762   1764     1  0.0000000  0.6508444  3
   1745   1744   1740   1747     1  0.0000000  0.6508444  3
   1745   1744   1740   1769     1  0.0000000  0.6508444  3
   1745   1744   1756   1762     1  0.0000000  0.6508444  3
   1745   1744   1756   1757     1  0.0000000  0.6508444  3
   1745   1744   1756   1758     1  0.0000000  0.6508444  3
   1746   1744   1740   1747     1  0.0000000  0.6508444  3
   1746   1744   1740   1769     1  0.0000000  0.6508444  3
   1746   1744   1756   1762     1  0.0000000  0.6508444  3
   1746   1744   1756   1757     1  0.0000000  0.6508444  3
   1746   1744   1756   1758     1  0.0000000  0.6508444  3
   1747   1750   1759   1760     1  0.0000000  0.6508444  3
   1747   1750   1759   1761     1  0.0000000  0.6508444  3
   1748   1747   1740   1769     1  0.0000000  0.6508444  3
   1748   1747   1750   1759     1  0.0000000  0.6508444  3
   1748   1747   1750   1751     1  0.0000000  0.6508444  3
   1748   1747   1750   1752     1  0.0000000  0.6508444  3
   1749   1747   1740   1769     1  0.0000000  0.6508444  3
   1749   1747   1750   1759     1  0.0000000  0.6508444  3
   1749   1747   1750   1751     1  0.0000000  0.6508444  3
   1749   1747   1750   1752     1  0.0000000  0.6508444  3
   1750   1747   1740   1769     1  0.0000000  0.6508444  3
   1751   1750   1759   1768     1  0.0000000  1.0460000  1
   1751   1750   1759   1768     1  0.0000000  0.0000000  3
   1751   1750   1759   1760     1  0.0000000  0.6508444  3
   1751   1750   1759   1761     1  0.0000000  0.6508444  3
   1752   1750   1759   1768     1  0.0000000  1.0460000  1
   1752   1750   1759   1768     1  0.0000000  0.0000000  3
   1752   1750   1759   1760     1  0.0000000  0.6508444  3
   1752   1750   1759   1761     1  0.0000000  0.6508444  3
   1753   1741   1740   1769     1  0.0000000  0.6508444  3
   1754   1753   1765   3598     1  0.0000000  1.0460000  1
   1754   1753   1765   3598     1  0.0000000  0.0000000  3
   1754   1753   1765   1766     1  0.0000000  0.6508444  3
   1754   1753   1765   1767     1  0.0000000  0.6508444  3
   1755   1753   1765   3598     1  0.0000000  1.0460000  1
   1755   1753   1765   3598     1  0.0000000  0.0000000  3
   1755   1753   1765   1766     1  0.0000000  0.6508444  3
   1755   1753   1765   1767     1  0.0000000  0.6508444  3
   1756   1744   1740   1769     1  0.0000000  0.6508444  3
   1757   1756   1762   3568     1  0.0000000  1.0460000  1
   1757   1756   1762   3568     1  0.0000000  0.0000000  3
   1757   1756   1762   1763     1  0.0000000  0.6508444  3
   1757   1756   1762   1764     1  0.0000000  0.6508444  3
   1758   1756   1762   3568     1  0.0000000  1.0460000  1
   1758   1756   1762   3568     1  0.0000000  0.0000000  3
   1758   1756   1762   1763     1  0.0000000  0.6508444  3
   1758   1756   1762   1764     1  0.0000000  0.6508444  3
   1762   3568   3559   3560     1  0.0000000  1.6038667  3
   1762   3568   3559   3561     1  0.0000000  1.6038667  3
   1763   1762   3568   3559     1  0.0000000  1.6038667  3
   1764   1762   3568   3559     1  0.0000000  1.6038667  3
   1765   3598   3589   3590     1  0.0000000  1.6038667  3
   1765   3598   3589   3591     1  0.0000000  1.6038667  3
   1766   1765   3598   3589     1  0.0000000  1.6038667  3
   1767   1765   3598   3589     1  0.0000000  1.6038667  3
   1770   1771   1783   1784     1  0.0000000  0.6508444  3
   1770   1771   1783   1785     1  0.0000000  0.6508444  3
   1770   1774   1786   1787     1  0.0000000  0.6508444  3
   1770   1774   1786   1788     1  0.0000000  0.6508444  3
   1770   1777   1780   1781     1  0.0000000  0.6508444  3
   1770   1777   1780   1782     1  0.0000000  0.6508444  3
   1771   1770   1774   1775     1  0.0000000  0.6508444  3
   1771   1770   1774   1776     1  0.0000000  0.6508444  3
   1771   1770   1777   1778     1  0.0000000  0.6508444  3
   1771   1770   1777   1779     1  0.0000000  0.6508444  3
   1771   1783   1795   1796     1  0.0000000  0.6508444  3
   1771   1783   1795   1797     1  0.0000000  0.6508444  3
   1772   1771   1770   1774     1  0.0000000  0.6508444  3
   1772   1771   1770   1777     1  0.0000000  0.6508444  3
   1772   1771   1770   1799     1  0.0000000  0.6508444  3
   1772   1771   1783   1795     1  0.0000000  0.6508444  3
   1772   1771   1783   1784     1  0.0000000  0.6508444  3
   1772   1771   1783   1785     1  0.0000000  0.6508444  3
   1773   1771   1770   1774     1  0.0000000  0.6508444  3
   1773   1771   1770   1777     1  0.0000000  0.6508444  3
   1773   1771   1770   1799     1  0.0000000  0.6508444  3
   1773   1771   1783   1795     1  0.0000000  0.6508444  3
   1773   1771   1783   1784     1  0.0000000  0.6508444  3
   1773   1771   1783   1785     1  0.0000000  0.6508444  3
   1774   1770   1777   1778     1  0.0000000  0.6508444  3
   1774   1770   1777   1779     1  0.0000000  0.6508444  3
   1774   1786   1792   1793     1  0.0000000  0.6508444  3
   1774   1786   1792   1794     1  0.0000000  0.6508444  3
   1775   1774   1770   1777     1  0.0000000  0.6508444  3
   1775   1774   1770   1799     1  0.0000000  0.6508444  3
   1775   1774   1786   1792     1  0.0000000  0.6508444  3
   1775   1774   1786   1787     1  0.0000000  0.6508444  3
   1775   1774   1786   1788     1  0.0000000  0.6508444  3
   1776   1774   1770   1777     1  0.0000000  0.6508444  3
   1776   1774   1770   1799     1  0.0000000  0.6508444  3
   1776   1774   1786   1792     1  0.0000000  0.6508444  3
   1776   1774   1786   1787     1  0.0000000  0.6508444  3
   1776   1774   1786   1788     1  0.0000000  0.6508444  3
   1777   1780   1789   1790     1  0.0000000  0.6508444  3
   1777   1780   1789   1791     1  0.0000000  0.6508444  3
   1778   1777   1770   1799     1  0.0000000  0.6508444  3
   1778   1777   1780   1789     1  0.0000000  0.6508444  3
   1778   1777   1780   1781     1  0.0000000  0.6508444  3
   1778   1777   1780   1782     1  0.0000000  0.6508444  3
   1779   1777   1770   1799     1  0.0000000  0.6508444  3
   1779   1777   1780   1789     1  0.0000000  0.6508444  3
   1779   1777   1780   1781     1  0.0000000  0.6508444  3
   1779   1777   1780   1782     1  0.0000000  0.6508444  3
   1780   1777   1770   1799     1  0.0000000  0.6508444  3
   1781   1780   1789   1798     1  0.0000000  1.0460000  1
   1781   1780   1789   1798     1  0.0000000  0.0000000  3
   1781   1780   1789   1790     1  0.0000000  0.6508444  3
   1781   1780   1789   1791     1  0.0000000  0.6508444  3
   1782   1780   1789   1798     1  0.0000000  1.0460000  1
   1782   1780   1789   1798     1  0.0000000  0.0000000  3
   1782   1780   1789   1790     1  0.0000000  0.6508444  3
   1782   1780   1789   1791     1  0.0000000  0.6508444  3
   1783   1771   1770   1799     1  0.0000000  0.6508444  3
   1784   1783   1795   3658     1  0.0000000  1.0460000  1
   1784   1783   1795   3658     1  0.0000000  0.0000000  3
   1784   1783   1795   1796     1  0.0000000  0.6508444  3
   1784   1783   1795   1797     1  0.0000000  0.6508444  3
   1785   1783   1795   3658     1  0.0000000  1.0460000  1
   1785   1783   1795   3658     1  0.0000000  0.0000000  3
   1785   1783   1795   1796     1  0.0000000  0.6508444  3
   1785   1783   1795   1797     1  0.0000000  0.6508444  3
   1786   1774   1770   1799     1  0.0000000  0.6508444  3
   1787   1786   1792   3628     1  0.0000000  1.0460000  1
   1787   1786   1792   3628     1  0.0000000  0.0000000  3
   1787   1786   1792   1793     1  0.0000000  0.6508444  3
   1787   1786   1792   1794     1  0.0000000  0.6508444  3
   1788   1786   1792   3628     1  0.0000000  1.0460000  1
   1788   1786   1792   3628     1  0.0000000  0.0000000  3
   1788   1786   1792   1793     1  0.0000000  0.6508444  3
   1788   1786   1792   1794     1  0.0000000  0.6508444  3
   1792   3628   3619   3620     1  0.0000000  1.6038667  3
   1792   3628   3619   3621     1  0.0000000  1.6038667  3
   1793   1792   3628   3619     1  0.0000000  1.6038667  3
   1794   1792   3628   3619     1  0.0000000  1.6038667  3
   1795   3658   3649   3650     1  0.0000000  1.6038667  3
   1795   3658   3649   3651     1  0.0000000  1.6038667  3
   1796   1795   3658   3649     1  0.0000000  1.6038667  3
   1797   1795   3658   3649     1  0.0000000  1.6038667  3
   1800   1801   1813   1814     1  0.0000000  0.6508444  3
   1800   1801   1813   1815     1  0.0000000  0.6508444  3
   1800   1804   1816   1817     1  0.0000000  0.6508444  3
   1800   1804   1816   1818     1  0.0000000  0.6508444  3
   1800   1807   1810   1811     1  0.0000000  0.6508444  3
   1800   1807   1810   1812     1  0.0000000  0.6508444  3
   1801   1800   1804   1805     1  0.0000000  0.6508444  3
   1801   1800   1804   1806     1  0.0000000  0.6508444  3
   1801   1800   1807   1808     1  0.0000000  0.6508444  3
   1801   1800   1807   1809     1  0.0000000  0.6508444  3
   1801   1813   1825   1826     1  0.0000000  0.6508444  3
   1801   1813   1825   1827     1  0.0000000  0.6508444  3
   1802   1801   1800   1804     1  0.0000000  0.6508444  3
   1802   1801   1800   1807     1  0.0000000  0.6508444  3
   1802   1801   1800   1829     1  0.0000000  0.6508444  3
   1802   1801   1813   1825     1  0.0000000  0.6508444  3
   1802   1801   1813   1814     1  0.0000000  0.6508444  3
   1802   1801   1813   1815     1  0.0000000  0.6508444  3
   1803   1801   1800   1804     1  0.0000000  0.6508444  3
   1803   1801   1800   1807     1  0.0000000  0.6508444  3
   1803   1801   1800   1829     1  0.0000000  0.6508444  3
   1803   1801   1813   1825     1  0.0000000  0.6508444  3
   1803   1801   1813   1814     1  0.0000000  0.6508444  3
   1803   1801   1813   1815     1  0.0000000  0.6508444  3
   1804   1800   1807   1808     1  0.0000000  0.6508444  3
   1804   1800   1807   1809     1  0.0000000  0.6508444  3
   1804   1816   1822   1823     1  0.0000000  0.6508444  3
   1804   1816   1822   1824     1  0.0000000  0.6508444  3
   1805   1804   1800   1807     1  0.0000000  0.6508444  3
   1805   1804   1800   1829     1  0.0000000  0.6508444  3
   1805   1804   1816   1822     1  0.0000000  0.6508444  3
   1805   1804   1816   1817     1  0.0000000  0.6508444  3
   1805   1804   1816   1818     1  0.0000000  0.6508444  3
   1806   1804   1800   1807     1  0.0000000  0.6508444  3
   1806   1804   1800   1829     1  0.0000000  0.6508444  3
   1806   1804   1816   1822     1  0.0000000  0.6508444  3
   1806   1804   1816   1817     1  0.0000000  0.6508444  3
   1806   1804   1816   1818     1  0.0000000  0.6508444  3
   1807   1810   1819   1820     1  0.0000000  0.6508444  3
   1807   1810   1819   1821     1  0.0000000  0.6508444  3
   1808   1807   1800   1829     1  0.0000000  0.6508444  3
   1808   1807   1810   1819     1  0.0000000  0.6508444  3
   1808   1807   1810   1811     1  0.0000000  0.6508444  3
   1808   1807   1810   1812     1  0.0000000  0.6508444  3
   1809   1807   1800   1829     1  0.0000000  0.6508444  3
   1809   1807   1810   1819     1  0.0000000  0.6508444  3
   1809   1807   1810   1811     1  0.0000000  0.6508444  3
   1809   1807   1810   1812     1  0.0000000  0.6508444  3
   1810   1807   1800   1829     1  0.0000000  0.6508444  3
   1811   1810   1819   1828     1  0.0000000  1.0460000  1
   1811   1810   1819   1828     1  0.0000000  0.0000000  3
   1811   1810   1819   1820     1  0.0000000  0.6508444  3
   1811   1810   1819   1821     1  0.0000000  0.6508444  3
   1812   1810   1819   1828     1  0.0000000  1.0460000  1
   1812   1810   1819   1828     1  0.0000000  0.0000000  3
   1812   1810   1819   1820     1  0.0000000  0.6508444  3
   1812   1810   1819   1821     1  0.0000000  0.6508444  3
   1813   1801   1800   1829     1  0.0000000  0.6508444  3
   1814   1813   1825   3718     1  0.0000000  1.0460000  1
   1814   1813   1825   3718     1  0.0000000  0.0000000  3
   1814   1813   1825   1826     1  0.0000000  0.6508444  3
   1814   1813   1825   1827     1  0.0000000  0.6508444  3
   1815   1813   1825   3718     1  0.0000000  1.0460000  1
   1815   1813   1825   3718     1  0.0000000  0.0000000  3
   1815   1813   1825   1826     1  0.0000000  0.6508444  3
   1815   1813   1825   1827     1  0.0000000  0.6508444  3
   1816   1804   1800   1829     1  0.0000000  0.6508444  3
   1817   1816   1822   3688     1  0.0000000  1.0460000  1
   1817   1816   1822   3688     1  0.0000000  0.0000000  3
   1817   1816   1822   1823     1  0.0000000  0.6508444  3
   1817   1816   1822   1824     1  0.0000000  0.6508444  3
   1818   1816   1822   3688     1  0.0000000  1.0460000  1
   1818   1816   1822   3688     1  0.0000000  0.0000000  3
   1818   1816   1822   1823     1  0.0000000  0.6508444  3
   1818   1816   1822   1824     1  0.0000000  0.6508444  3
   1822   3688   3679   3680     1  0.0000000  1.6038667  3
   1822   3688   3679   3681     1  0.0000000  1.6038667  3
   1823   1822   3688   3679     1  0.0000000  1.6038667  3
   1824   1822   3688   3679     1  0.0000000  1.6038667  3
   1825   3718   3709   3710     1  0.0000000  1.6038667  3
   1825   3718   3709   3711     1  0.0000000  1.6038667  3
   1826   1825   3718   3709     1  0.0000000  1.6038667  3
   1827   1825   3718   3709     1  0.0000000  1.6038667  3
   1830   1831   1843   1844     1  0.0000000  0.6508444  3
   1830   1831   1843   1845     1  0.0000000  0.6508444  3
   1830   1834   1846   1847     1  0.0000000  0.6508444  3
   1830   1834   1846   1848     1  0.0000000  0.6508444  3
   1830   1837   1840   1841     1  0.0000000  0.6508444  3
   1830   1837   1840   1842     1  0.0000000  0.6508444  3
   1831   1830   1834   1835     1  0.0000000  0.6508444  3
   1831   1830   1834   1836     1  0.0000000  0.6508444  3
   1831   1830   1837   1838     1  0.0000000  0.6508444  3
   1831   1830   1837   1839     1  0.0000000  0.6508444  3
   1831   1843   1855   1856     1  0.0000000  0.6508444  3
   1831   1843   1855   1857     1  0.0000000  0.6508444  3
   1832   1831   1830   1834     1  0.0000000  0.6508444  3
   1832   1831   1830   1837     1  0.0000000  0.6508444  3
   1832   1831   1830   1859     1  0.0000000  0.6508444  3
   1832   1831   1843   1855     1  0.0000000  0.6508444  3
   1832   1831   1843   1844     1  0.0000000  0.6508444  3
   1832   1831   1843   1845     1  0.0000000  0.6508444  3
   1833   1831   1830   1834     1  0.0000000  0.6508444  3
   1833   1831   1830   1837     1  0.0000000  0.6508444  3
   1833   1831   1830   1859     1  0.0000000  0.6508444  3
   1833   1831   1843   1855     1  0.0000000  0.6508444  3
   1833   1831   1843   1844     1  0.0000000  0.6508444  3
   1833   1831   1843   1845     1  0.0000000  0.6508444  3
   1834   1830   1837   1838     1  0.0000000  0.6508444  3
   1834   1830   1837   1839     1  0.0000000  0.6508444  3
   1834   1846   1852   1853     1  0.0000000  0.6508444  3
   1834   1846   1852   1854     1  0.0000000  0.6508444  3
   1835   1834   1830   1837     1  0.0000000  0.6508444  3
   1835   1834   1830   1859     1  0.0000000  0.6508444  3
   1835   1834   1846   1852     1  0.0000000  0.6508444  3
   1835   1834   1846   1847     1  0.0000000  0.6508444  3
   1835   1834   1846   1848     1  0.0000000  0.6508444  3
   1836   1834   1830   1837     1  0.0000000  0.6508444  3
   1836   1834   1830   1859     1  0.0000000  0.6508444  3
   1836   1834   1846   1852     1  0.0000000  0.6508444  3
   1836   1834   1846   1847     1  0.0000000  0.6508444  3
   1836   1834   1846   1848     1  0.0000000  0.6508444  3
   1837   1840   1849   1850     1  0.0000000  0.6508444  3
   1837   1840   1849   1851     1  0.0000000  0.6508444  3
   1838   1837   1830   1859     1  0.0000000  0.6508444  3
   1838   1837   1840   1849     1  0.0000000  0.6508444  3
   1838   1837   1840   1841     1  0.0000000  0.6508444  3
   1838   1837   1840   1842     1  0.0000000  0.6508444  3
   1839   1837   1830   1859     1  0.0000000  0.6508444  3
   1839   1837   1840   1849     1  0.0000000  0.6508444  3
   1839   1837   1840   1841     1  0.0000000  0.6508444  3
   1839   1837   1840   1842     1  0.0000000  0.6508444  3
   1840   1837   1830   1859     1  0.0000000  0.6508444  3
   1841   1840   1849   1858     1  0.0000000  1.0460000  1
   1841   1840   1849   1858     1  0.0000000  0.0000000  3
   1841   1840   1849   1850     1  0.0000000  0.6508444  3
   1841   1840   1849   1851     1  0.0000000  0.6508444  3
   1842   1840   1849   1858     1  0.0000000  1.0460000  1
   1842   1840   1849   1858     1  0.0000000  0.0000000  3
   1842   1840   1849   1850     1  0.0000000  0.6508444  3
   1842   1840   1849   1851     1  0.0000000  0.6508444  3
   1843   1831   1830   1859     1  0.0000000  0.6508444  3
   1844   1843   1855   3778     1  0.0000000  1.0460000  1
   1844   1843   1855   3778     1  0.0000000  0.0000000  3
   1844   1843   1855   1856     1  0.0000000  0.6508444  3
   1844   1843   1855   1857     1  0.0000000  0.6508444  3
   1845   1843   1855   3778     1  0.0000000  1.0460000  1
   1845   1843   1855   3778     1  0.0000000  0.0000000  3
   1845   1843   1855   1856     1  0.0000000  0.6508444  3
   1845   1843   1855   1857     1  0.0000000  0.6508444  3
   1846   1834   1830   1859     1  0.0000000  0.6508444  3
   1847   1846   1852   3748     1  0.0000000  1.0460000  1
   1847   1846   1852   3748     1  0.0000000  0.0000000  3
   1847   1846   1852   1853     1  0.0000000  0.6508444  3
   1847   1846   1852   1854     1  0.0000000  0.6508444  3
   1848   1846   1852   3748     1  0.0000000  1.0460000  1
   1848   1846   1852   3748     1  0.0000000  0.0000000  3
   1848   1846   1852   1853     1  0.0000000  0.6508444  3
   1848   1846   1852   1854     1  0.0000000  0.6508444  3
   1852   3748   3739   3740     1  0.0000000  1.6038667  3
   1852   3748   3739   3741     1  0.0000000  1.6038667  3
   1853   1852   3748   3739     1  0.0000000  1.6038667  3
   1854   1852   3748   3739     1  0.0000000  1.6038667  3
   1855   3778   3769   3770     1  0.0000000  1.6038667  3
   1855   3778   3769   3771     1  0.0000000  1.6038667  3
   1856   1855   3778   3769     1  0.0000000  1.6038667  3
   1857   1855   3778   3769     1  0.0000000  1.6038667  3
   1860   1861   1873   1874     1  0.0000000  0.6508444  3
   1860   1861   1873   1875     1  0.0000000  0.6508444  3
   1860   1864   1876   1877     1  0.0000000  0.6508444  3
   1860   1864   1876   1878     1  0.0000000  0.6508444  3
   1860   1867   1870   1871     1  0.0000000  0.6508444  3
   1860   1867   1870   1872     1  0.0000000  0.6508444  3
   1861   1860   1864   1865     1  0.0000000  0.6508444  3
   1861   1860   1864   1866     1  0.0000000  0.6508444  3
   1861   1860   1867   1868     1  0.0000000  0.6508444  3
   1861   1860   1867   1869     1  0.0000000  0.6508444  3
   1861   1873   1885   1886     1  0.0000000  0.6508444  3
   1861   1873   1885   1887     1  0.0000000  0.6508444  3
   1862   1861   1860   1864     1  0.0000000  0.6508444  3
   1862   1861   1860   1867     1  0.0000000  0.6508444  3
   1862   1861   1860   1889     1  0.0000000  0.6508444  3
   1862   1861   1873   1885     1  0.0000000  0.6508444  3
   1862   1861   1873   1874     1  0.0000000  0.6508444  3
   1862   1861   1873   1875     1  0.0000000  0.6508444  3
   1863   1861   1860   1864     1  0.0000000  0.6508444  3
   1863   1861   1860   1867     1  0.0000000  0.6508444  3
   1863   1861   1860   1889     1  0.0000000  0.6508444  3
   1863   1861   1873   1885     1  0.0000000  0.6508444  3
   1863   1861   1873   1874     1  0.0000000  0.6508444  3
   1863   1861   1873   1875     1  0.0000000  0.6508444  3
   1864   1860   1867   1868     1  0.0000000  0.6508444  3
   1864   1860   1867   1869     1  0.0000000  0.6508444  3
   1864   1876   1882   1883     1  0.0000000  0.6508444  3
   1864   1876   1882   1884     1  0.0000000  0.6508444  3
   1865   1864   1860   1867     1  0.0000000  0.6508444  3
   1865   1864   1860   1889     1  0.0000000  0.6508444  3
   1865   1864   1876   1882     1  0.0000000  0.6508444  3
   1865   1864   1876   1877     1  0.0000000  0.6508444  3
   1865   1864   1876   1878     1  0.0000000  0.6508444  3
   1866   1864   1860   1867     1  0.0000000  0.6508444  3
   1866   1864   1860   1889     1  0.0000000  0.6508444  3
   1866   1864   1876   1882     1  0.0000000  0.6508444  3
   1866   1864   1876   1877     1  0.0000000  0.6508444  3
   1866   1864   1876   1878     1  0.0000000  0.6508444  3
   1867   1870   1879   1880     1  0.0000000  0.6508444  3
   1867   1870   1879   1881     1  0.0000000  0.6508444  3
   1868   1867   1860   1889     1  0.0000000  0.6508444  3
   1868   1867   1870   1879     1  0.0000000  0.6508444  3
   1868   1867   1870   1871     1  0.0000000  0.6508444  3
   1868   1867   1870   1872     1  0.0000000  0.6508444  3
   1869   1867   1860   1889     1  0.0000000  0.6508444  3
   1869   1867   1870   1879     1  0.0000000  0.6508444  3
   1869   1867   1870   1871     1  0.0000000  0.6508444  3
   1869   1867   1870   1872     1  0.0000000  0.6508444  3
   1870   1867   1860   1889     1  0.0000000  0.6508444  3
   1871   1870   1879   1888     1  0.0000000  1.0460000  1
   1871   1870   1879   1888     1  0.0000000  0.0000000  3
   1871   1870   1879   1880     1  0.0000000  0.6508444  3
   1871   1870   1879   1881     1  0.0000000  0.6508444  3
   1872   1870   1879   1888     1  0.0000000  1.0460000  1
   1872   1870   1879   1888     1  0.0000000  0.0000000  3
   1872   1870   1879   1880     1  0.0000000  0.6508444  3
   1872   1870   1879   1881     1  0.0000000  0.6508444  3
   1873   1861   1860   1889     1  0.0000000  0.6508444  3
   1874   1873   1885   3806     1  0.0000000  1.0460000  1
   1874   1873   1885   3806     1  0.0000000  0.0000000  3
   1874   1873   1885   1886     1  0.0000000  0.6508444  3
   1874   1873   1885   1887     1  0.0000000  0.6508444  3
   1875   1873   1885   3806     1  0.0000000  1.0460000  1
   1875   1873   1885   3806     1  0.0000000  0.0000000  3
   1875   1873   1885   1886     1  0.0000000  0.6508444  3
   1875   1873   1885   1887     1  0.0000000  0.6508444  3
   1876   1864   1860   1889     1  0.0000000  0.6508444  3
   1877   1876   1882   3792     1  0.0000000  1.0460000  1
   1877   1876   1882   3792     1  0.0000000  0.0000000  3
   1877   1876   1882   1883     1  0.0000000  0.6508444  3
   1877   1876   1882   1884     1  0.0000000  0.6508444  3
   1878   1876   1882   3792     1  0.0000000  1.0460000  1
   1878   1876   1882   3792     1  0.0000000  0.0000000  3
   1878   1876   1882   1883     1  0.0000000  0.6508444  3
   1878   1876   1882   1884     1  0.0000000  0.6508444  3
   1882   3792   3786   3787     1  0.0000000  1.6038667  3
   1882   3792   3786   3788     1  0.0000000  1.6038667  3
   1883   1882   3792   3786     1  0.0000000  1.6038667  3
   1884   1882   3792   3786     1  0.0000000  1.6038667  3
   1885   3806   3800   3801     1  0.0000000  1.6038667  3
   1885   3806   3800   3802     1  0.0000000  1.6038667  3
   1886   1885   3806   3800     1  0.0000000  1.6038667  3
   1887   1885   3806   3800     1  0.0000000  1.6038667  3
   1890   1891   1903   1904     1  0.0000000  0.6508444  3
   1890   1891   1903   1905     1  0.0000000  0.6508444  3
   1890   1894   1906   1907     1  0.0000000  0.6508444  3
   1890   1894   1906   1908     1  0.0000000  0.6508444  3
   1890   1897   1900   1901     1  0.0000000  0.6508444  3
   1890   1897   1900   1902     1  0.0000000  0.6508444  3
   1891   1890   1894   1895     1  0.0000000  0.6508444  3
   1891   1890   1894   1896     1  0.0000000  0.6508444  3
   1891   1890   1897   1898     1  0.0000000  0.6508444  3
   1891   1890   1897   1899     1  0.0000000  0.6508444  3
   1891   1903   1915   1916     1  0.0000000  0.6508444  3
   1891   1903   1915   1917     1  0.0000000  0.6508444  3
   1892   1891   1890   1894     1  0.0000000  0.6508444  3
   1892   1891   1890   1897     1  0.0000000  0.6508444  3
   1892   1891   1890   1919     1  0.0000000  0.6508444  3
   1892   1891   1903   1915     1  0.0000000  0.6508444  3
   1892   1891   1903   1904     1  0.0000000  0.6508444  3
   1892   1891   1903   1905     1  0.0000000  0.6508444  3
   1893   1891   1890   1894     1  0.0000000  0.6508444  3
   1893   1891   1890   1897     1  0.0000000  0.6508444  3
   1893   1891   1890   1919     1  0.0000000  0.6508444  3
   1893   1891   1903   1915     1  0.0000000  0.6508444  3
   1893   1891   1903   1904     1  0.0000000  0.6508444  3
   1893   1891   1903   1905     1  0.0000000  0.6508444  3
   1894   1890   1897   1898     1  0.0000000  0.6508444  3
   1894   1890   1897   1899     1  0.0000000  0.6508444  3
   1894   1906   1912   1913     1  0.0000000  0.6508444  3
   1894   1906   1912   1914     1  0.0000000  0.6508444  3
   1895   1894   1890   1897     1  0.0000000  0.6508444  3
   1895   1894   1890   1919     1  0.0000000  0.6508444  3
   1895   1894   1906   1912     1  0.0000000  0.6508444  3
   1895   1894   1906   1907     1  0.0000000  0.6508444  3
   1895   1894   1906   1908     1  0.0000000  0.6508444  3
   1896   1894   1890   1897     1  0.0000000  0.6508444  3
   1896   1894   1890   1919     1  0.0000000  0.6508444  3
   1896   1894   1906   1912     1  0.0000000  0.6508444  3
   1896   1894   1906   1907     1  0.0000000  0.6508444  3
   1896   1894   1906   1908     1  0.0000000  0.6508444  3
   1897   1900   1909   1910     1  0.0000000  0.6508444  3
   1897   1900   1909   1911     1  0.0000000  0.6508444  3
   1898   1897   1890   1919     1  0.0000000  0.6508444  3
   1898   1897   1900   1909     1  0.0000000  0.6508444  3
   1898   1897   1900   1901     1  0.0000000  0.6508444  3
   1898   1897   1900   1902     1  0.0000000  0.6508444  3
   1899   1897   1890   1919     1  0.0000000  0.6508444  3
   1899   1897   1900   1909     1  0.0000000  0.6508444  3
   1899   1897   1900   1901     1  0.0000000  0.6508444  3
   1899   1897   1900   1902     1  0.0000000  0.6508444  3
   1900   1897   1890   1919     1  0.0000000  0.6508444  3
   1901   1900   1909   1918     1  0.0000000  1.0460000  1
   1901   1900   1909   1918     1  0.0000000  0.0000000  3
   1901   1900   1909   1910     1  0.0000000  0.6508444  3
   1901   1900   1909   1911     1  0.0000000  0.6508444  3
   1902   1900   1909   1918     1  0.0000000  1.0460000  1
   1902   1900   1909   1918     1  0.0000000  0.0000000  3
   1902   1900   1909   1910     1  0.0000000  0.6508444  3
   1902   1900   1909   1911     1  0.0000000  0.6508444  3
   1903   1891   1890   1919     1  0.0000000  0.6508444  3
   1904   1903   1915   3834     1  0.0000000  1.0460000  1
   1904   1903   1915   3834     1  0.0000000  0.0000000  3
   1904   1903   1915   1916     1  0.0000000  0.6508444  3
   1904   1903   1915   1917     1  0.0000000  0.6508444  3
   1905   1903   1915   3834     1  0.0000000  1.0460000  1
   1905   1903   1915   3834     1  0.0000000  0.0000000  3
   1905   1903   1915   1916     1  0.0000000  0.6508444  3
   1905   1903   1915   1917     1  0.0000000  0.6508444  3
   1906   1894   1890   1919     1  0.0000000  0.6508444  3
   1907   1906   1912   3820     1  0.0000000  1.0460000  1
   1907   1906   1912   3820     1  0.0000000  0.0000000  3
   1907   1906   1912   1913     1  0.0000000  0.6508444  3
   1907   1906   1912   1914     1  0.0000000  0.6508444  3
   1908   1906   1912   3820     1  0.0000000  1.0460000  1
   1908   1906   1912   3820     1  0.0000000  0.0000000  3
   1908   1906   1912   1913     1  0.0000000  0.6508444  3
   1908   1906   1912   1914     1  0.0000000  0.6508444  3
   1912   3820   3814   3815     1  0.0000000  1.6038667  3
   1912   3820   3814   3816     1  0.0000000  1.6038667  3
   1913   1912   3820   3814     1  0.0000000  1.6038667  3
   1914   1912   3820   3814     1  0.0000000  1.6038667  3
   1915   3834   3828   3829     1  0.0000000  1.6038667  3
   1915   3834   3828   3830     1  0.0000000  1.6038667  3
   1916   1915   3834   3828     1  0.0000000  1.6038667  3
   1917   1915   3834   3828     1  0.0000000  1.6038667  3
   1920   1921   1933   1934     1  0.0000000  0.6508444  3
   1920   1921   1933   1935     1  0.0000000  0.6508444  3
   1920   1924   1936   1937     1  0.0000000  0.6508444  3
   1920   1924   1936   1938     1  0.0000000  0.6508444  3
   1920   1927   1930   1931     1  0.0000000  0.6508444  3
   1920   1927   1930   1932     1  0.0000000  0.6508444  3
   1921   1920   1924   1925     1  0.0000000  0.6508444  3
   1921   1920   1924   1926     1  0.0000000  0.6508444  3
   1921   1920   1927   1928     1  0.0000000  0.6508444  3
   1921   1920   1927   1929     1  0.0000000  0.6508444  3
   1921   1933   1945   1946     1  0.0000000  0.6508444  3
   1921   1933   1945   1947     1  0.0000000  0.6508444  3
   1922   1921   1920   1924     1  0.0000000  0.6508444  3
   1922   1921   1920   1927     1  0.0000000  0.6508444  3
   1922   1921   1920   1949     1  0.0000000  0.6508444  3
   1922   1921   1933   1945     1  0.0000000  0.6508444  3
   1922   1921   1933   1934     1  0.0000000  0.6508444  3
   1922   1921   1933   1935     1  0.0000000  0.6508444  3
   1923   1921   1920   1924     1  0.0000000  0.6508444  3
   1923   1921   1920   1927     1  0.0000000  0.6508444  3
   1923   1921   1920   1949     1  0.0000000  0.6508444  3
   1923   1921   1933   1945     1  0.0000000  0.6508444  3
   1923   1921   1933   1934     1  0.0000000  0.6508444  3
   1923   1921   1933   1935     1  0.0000000  0.6508444  3
   1924   1920   1927   1928     1  0.0000000  0.6508444  3
   1924   1920   1927   1929     1  0.0000000  0.6508444  3
   1924   1936   1942   1943     1  0.0000000  0.6508444  3
   1924   1936   1942   1944     1  0.0000000  0.6508444  3
   1925   1924   1920   1927     1  0.0000000  0.6508444  3
   1925   1924   1920   1949     1  0.0000000  0.6508444  3
   1925   1924   1936   1942     1  0.0000000  0.6508444  3
   1925   1924   1936   1937     1  0.0000000  0.6508444  3
   1925   1924   1936   1938     1  0.0000000  0.6508444  3
   1926   1924   1920   1927     1  0.0000000  0.6508444  3
   1926   1924   1920   1949     1  0.0000000  0.6508444  3
   1926   1924   1936   1942     1  0.0000000  0.6508444  3
   1926   1924   1936   1937     1  0.0000000  0.6508444  3
   1926   1924   1936   1938     1  0.0000000  0.6508444  3
   1927   1930   1939   1940     1  0.0000000  0.6508444  3
   1927   1930   1939   1941     1  0.0000000  0.6508444  3
   1928   1927   1920   1949     1  0.0000000  0.6508444  3
   1928   1927   1930   1939     1  0.0000000  0.6508444  3
   1928   1927   1930   1931     1  0.0000000  0.6508444  3
   1928   1927   1930   1932     1  0.0000000  0.6508444  3
   1929   1927   1920   1949     1  0.0000000  0.6508444  3
   1929   1927   1930   1939     1  0.0000000  0.6508444  3
   1929   1927   1930   1931     1  0.0000000  0.6508444  3
   1929   1927   1930   1932     1  0.0000000  0.6508444  3
   1930   1927   1920   1949     1  0.0000000  0.6508444  3
   1931   1930   1939   1948     1  0.0000000  1.0460000  1
   1931   1930   1939   1948     1  0.0000000  0.0000000  3
   1931   1930   1939   1940     1  0.0000000  0.6508444  3
   1931   1930   1939   1941     1  0.0000000  0.6508444  3
   1932   1930   1939   1948     1  0.0000000  1.0460000  1
   1932   1930   1939   1948     1  0.0000000  0.0000000  3
   1932   1930   1939   1940     1  0.0000000  0.6508444  3
   1932   1930   1939   1941     1  0.0000000  0.6508444  3
   1933   1921   1920   1949     1  0.0000000  0.6508444  3
   1934   1933   1945   3862     1  0.0000000  1.0460000  1
   1934   1933   1945   3862     1  0.0000000  0.0000000  3
   1934   1933   1945   1946     1  0.0000000  0.6508444  3
   1934   1933   1945   1947     1  0.0000000  0.6508444  3
   1935   1933   1945   3862     1  0.0000000  1.0460000  1
   1935   1933   1945   3862     1  0.0000000  0.0000000  3
   1935   1933   1945   1946     1  0.0000000  0.6508444  3
   1935   1933   1945   1947     1  0.0000000  0.6508444  3
   1936   1924   1920   1949     1  0.0000000  0.6508444  3
   1937   1936   1942   3848     1  0.0000000  1.0460000  1
   1937   1936   1942   3848     1  0.0000000  0.0000000  3
   1937   1936   1942   1943     1  0.0000000  0.6508444  3
   1937   1936   1942   1944     1  0.0000000  0.6508444  3
   1938   1936   1942   3848     1  0.0000000  1.0460000  1
   1938   1936   1942   3848     1  0.0000000  0.0000000  3
   1938   1936   1942   1943     1  0.0000000  0.6508444  3
   1938   1936   1942   1944     1  0.0000000  0.6508444  3
   1942   3848   3842   3843     1  0.0000000  1.6038667  3
   1942   3848   3842   3844     1  0.0000000  1.6038667  3
   1943   1942   3848   3842     1  0.0000000  1.6038667  3
   1944   1942   3848   3842     1  0.0000000  1.6038667  3
   1945   3862   3856   3857     1  0.0000000  1.6038667  3
   1945   3862   3856   3858     1  0.0000000  1.6038667  3
   1946   1945   3862   3856     1  0.0000000  1.6038667  3
   1947   1945   3862   3856     1  0.0000000  1.6038667  3
   1950   1951   1963   1964     1  0.0000000  0.6508444  3
   1950   1951   1963   1965     1  0.0000000  0.6508444  3
   1950   1954   1966   1967     1  0.0000000  0.6508444  3
   1950   1954   1966   1968     1  0.0000000  0.6508444  3
   1950   1957   1960   1961     1  0.0000000  0.6508444  3
   1950   1957   1960   1962     1  0.0000000  0.6508444  3
   1951   1950   1954   1955     1  0.0000000  0.6508444  3
   1951   1950   1954   1956     1  0.0000000  0.6508444  3
   1951   1950   1957   1958     1  0.0000000  0.6508444  3
   1951   1950   1957   1959     1  0.0000000  0.6508444  3
   1951   1963   1975   1976     1  0.0000000  0.6508444  3
   1951   1963   1975   1977     1  0.0000000  0.6508444  3
   1952   1951   1950   1954     1  0.0000000  0.6508444  3
   1952   1951   1950   1957     1  0.0000000  0.6508444  3
   1952   1951   1950   1979     1  0.0000000  0.6508444  3
   1952   1951   1963   1975     1  0.0000000  0.6508444  3
   1952   1951   1963   1964     1  0.0000000  0.6508444  3
   1952   1951   1963   1965     1  0.0000000  0.6508444  3
   1953   1951   1950   1954     1  0.0000000  0.6508444  3
   1953   1951   1950   1957     1  0.0000000  0.6508444  3
   1953   1951   1950   1979     1  0.0000000  0.6508444  3
   1953   1951   1963   1975     1  0.0000000  0.6508444  3
   1953   1951   1963   1964     1  0.0000000  0.6508444  3
   1953   1951   1963   1965     1  0.0000000  0.6508444  3
   1954   1950   1957   1958     1  0.0000000  0.6508444  3
   1954   1950   1957   1959     1  0.0000000  0.6508444  3
   1954   1966   1972   1973     1  0.0000000  0.6508444  3
   1954   1966   1972   1974     1  0.0000000  0.6508444  3
   1955   1954   1950   1957     1  0.0000000  0.6508444  3
   1955   1954   1950   1979     1  0.0000000  0.6508444  3
   1955   1954   1966   1972     1  0.0000000  0.6508444  3
   1955   1954   1966   1967     1  0.0000000  0.6508444  3
   1955   1954   1966   1968     1  0.0000000  0.6508444  3
   1956   1954   1950   1957     1  0.0000000  0.6508444  3
   1956   1954   1950   1979     1  0.0000000  0.6508444  3
   1956   1954   1966   1972     1  0.0000000  0.6508444  3
   1956   1954   1966   1967     1  0.0000000  0.6508444  3
   1956   1954   1966   1968     1  0.0000000  0.6508444  3
   1957   1960   1969   1970     1  0.0000000  0.6508444  3
   1957   1960   1969   1971     1  0.0000000  0.6508444  3
   1958   1957   1950   1979     1  0.0000000  0.6508444  3
   1958   1957   1960   1969     1  0.0000000  0.6508444  3
   1958   1957   1960   1961     1  0.0000000  0.6508444  3
   1958   1957   1960   1962     1  0.0000000  0.6508444  3
   1959   1957   1950   1979     1  0.0000000  0.6508444  3
   1959   1957   1960   1969     1  0.0000000  0.6508444  3
   1959   1957   1960   1961     1  0.0000000  0.6508444  3
   1959   1957   1960   1962     1  0.0000000  0.6508444  3
   1960   1957   1950   1979     1  0.0000000  0.6508444  3
   1961   1960   1969   1978     1  0.0000000  1.0460000  1
   1961   1960   1969   1978     1  0.0000000  0.0000000  3
   1961   1960   1969   1970     1  0.0000000  0.6508444  3
   1961   1960   1969   1971     1  0.0000000  0.6508444  3
   1962   1960   1969   1978     1  0.0000000  1.0460000  1
   1962   1960   1969   1978     1  0.0000000  0.0000000  3
   1962   1960   1969   1970     1  0.0000000  0.6508444  3
   1962   1960   1969   1971     1  0.0000000  0.6508444  3
   1963   1951   1950   1979     1  0.0000000  0.6508444  3
   1964   1963   1975   3890     1  0.0000000  1.0460000  1
   1964   1963   1975   3890     1  0.0000000  0.0000000  3
   1964   1963   1975   1976     1  0.0000000  0.6508444  3
   1964   1963   1975   1977     1  0.0000000  0.6508444  3
   1965   1963   1975   3890     1  0.0000000  1.0460000  1
   1965   1963   1975   3890     1  0.0000000  0.0000000  3
   1965   1963   1975   1976     1  0.0000000  0.6508444  3
   1965   1963   1975   1977     1  0.0000000  0.6508444  3
   1966   1954   1950   1979     1  0.0000000  0.6508444  3
   1967   1966   1972   3876     1  0.0000000  1.0460000  1
   1967   1966   1972   3876     1  0.0000000  0.0000000  3
   1967   1966   1972   1973     1  0.0000000  0.6508444  3
   1967   1966   1972   1974     1  0.0000000  0.6508444  3
   1968   1966   1972   3876     1  0.0000000  1.0460000  1
   1968   1966   1972   3876     1  0.0000000  0.0000000  3
   1968   1966   1972   1973     1  0.0000000  0.6508444  3
   1968   1966   1972   1974     1  0.0000000  0.6508444  3
   1972   3876   3870   3871     1  0.0000000  1.6038667  3
   1972   3876   3870   3872     1  0.0000000  1.6038667  3
   1973   1972   3876   3870     1  0.0000000  1.6038667  3
   1974   1972   3876   3870     1  0.0000000  1.6038667  3
   1975   3890   3884   3885     1  0.0000000  1.6038667  3
   1975   3890   3884   3886     1  0.0000000  1.6038667  3
   1976   1975   3890   3884     1  0.0000000  1.6038667  3
   1977   1975   3890   3884     1  0.0000000  1.6038667  3
   1980   1981   1993   1994     1  0.0000000  0.6508444  3
   1980   1981   1993   1995     1  0.0000000  0.6508444  3
   1980   1984   1996   1997     1  0.0000000  0.6508444  3
   1980   1984   1996   1998     1  0.0000000  0.6508444  3
   1980   1987   1990   1991     1  0.0000000  0.6508444  3
   1980   1987   1990   1992     1  0.0000000  0.6508444  3
   1981   1980   1984   1985     1  0.0000000  0.6508444  3
   1981   1980   1984   1986     1  0.0000000  0.6508444  3
   1981   1980   1987   1988     1  0.0000000  0.6508444  3
   1981   1980   1987   1989     1  0.0000000  0.6508444  3
   1981   1993   2005   2006     1  0.0000000  0.6508444  3
   1981   1993   2005   2007     1  0.0000000  0.6508444  3
   1982   1981   1980   1984     1  0.0000000  0.6508444  3
   1982   1981   1980   1987     1  0.0000000  0.6508444  3
   1982   1981   1980   2009     1  0.0000000  0.6508444  3
   1982   1981   1993   2005     1  0.0000000  0.6508444  3
   1982   1981   1993   1994     1  0.0000000  0.6508444  3
   1982   1981   1993   1995     1  0.0000000  0.6508444  3
   1983   1981   1980   1984     1  0.0000000  0.6508444  3
   1983   1981   1980   1987     1  0.0000000  0.6508444  3
   1983   1981   1980   2009     1  0.0000000  0.6508444  3
   1983   1981   1993   2005     1  0.0000000  0.6508444  3
   1983   1981   1993   1994     1  0.0000000  0.6508444  3
   1983   1981   1993   1995     1  0.0000000  0.6508444  3
   1984   1980   1987   1988     1  0.0000000  0.6508444  3
   1984   1980   1987   1989     1  0.0000000  0.6508444  3
   1984   1996   2002   2003     1  0.0000000  0.6508444  3
   1984   1996   2002   2004     1  0.0000000  0.6508444  3
   1985   1984   1980   1987     1  0.0000000  0.6508444  3
   1985   1984   1980   2009     1  0.0000000  0.6508444  3
   1985   1984   1996   2002     1  0.0000000  0.6508444  3
   1985   1984   1996   1997     1  0.0000000  0.6508444  3
   1985   1984   1996   1998     1  0.0000000  0.6508444  3
   1986   1984   1980   1987     1  0.0000000  0.6508444  3
   1986   1984   1980   2009     1  0.0000000  0.6508444  3
   1986   1984   1996   2002     1  0.0000000  0.6508444  3
   1986   1984   1996   1997     1  0.0000000  0.6508444  3
   1986   1984   1996   1998     1  0.0000000  0.6508444  3
   1987   1990   1999   2000     1  0.0000000  0.6508444  3
   1987   1990   1999   2001     1  0.0000000  0.6508444  3
   1988   1987   1980   2009     1  0.0000000  0.6508444  3
   1988   1987   1990   1999     1  0.0000000  0.6508444  3
   1988   1987   1990   1991     1  0.0000000  0.6508444  3
   1988   1987   1990   1992     1  0.0000000  0.6508444  3
   1989   1987   1980   2009     1  0.0000000  0.6508444  3
   1989   1987   1990   1999     1  0.0000000  0.6508444  3
   1989   1987   1990   1991     1  0.0000000  0.6508444  3
   1989   1987   1990   1992     1  0.0000000  0.6508444  3
   1990   1987   1980   2009     1  0.0000000  0.6508444  3
   1991   1990   1999   2008     1  0.0000000  1.0460000  1
   1991   1990   1999   2008     1  0.0000000  0.0000000  3
   1991   1990   1999   2000     1  0.0000000  0.6508444  3
   1991   1990   1999   2001     1  0.0000000  0.6508444  3
   1992   1990   1999   2008     1  0.0000000  1.0460000  1
   1992   1990   1999   2008     1  0.0000000  0.0000000  3
   1992   1990   1999   2000     1  0.0000000  0.6508444  3
   1992   1990   1999   2001     1  0.0000000  0.6508444  3
   1993   1981   1980   2009     1  0.0000000  0.6508444  3
   1994   1993   2005   3918     1  0.0000000  1.0460000  1
   1994   1993   2005   3918     1  0.0000000  0.0000000  3
   1994   1993   2005   2006     1  0.0000000  0.6508444  3
   1994   1993   2005   2007     1  0.0000000  0.6508444  3
   1995   1993   2005   3918     1  0.0000000  1.0460000  1
   1995   1993   2005   3918     1  0.0000000  0.0000000  3
   1995   1993   2005   2006     1  0.0000000  0.6508444  3
   1995   1993   2005   2007     1  0.0000000  0.6508444  3
   1996   1984   1980   2009     1  0.0000000  0.6508444  3
   1997   1996   2002   3904     1  0.0000000  1.0460000  1
   1997   1996   2002   3904     1  0.0000000  0.0000000  3
   1997   1996   2002   2003     1  0.0000000  0.6508444  3
   1997   1996   2002   2004     1  0.0000000  0.6508444  3
   1998   1996   2002   3904     1  0.0000000  1.0460000  1
   1998   1996   2002   3904     1  0.0000000  0.0000000  3
   1998   1996   2002   2003     1  0.0000000  0.6508444  3
   1998   1996   2002   2004     1  0.0000000  0.6508444  3
   2002   3904   3898   3899     1  0.0000000  1.6038667  3
   2002   3904   3898   3900     1  0.0000000  1.6038667  3
   2003   2002   3904   3898     1  0.0000000  1.6038667  3
   2004   2002   3904   3898     1  0.0000000  1.6038667  3
   2005   3918   3912   3913     1  0.0000000  1.6038667  3
   2005   3918   3912   3914     1  0.0000000  1.6038667  3
   2006   2005   3918   3912     1  0.0000000  1.6038667  3
   2007   2005   3918   3912     1  0.0000000  1.6038667  3
   2010   2011   2023   2024     1  0.0000000  0.6508444  3
   2010   2011   2023   2025     1  0.0000000  0.6508444  3
   2010   2014   2026   2027     1  0.0000000  0.6508444  3
   2010   2014   2026   2028     1  0.0000000  0.6508444  3
   2010   2017   2020   2021     1  0.0000000  0.6508444  3
   2010   2017   2020   2022     1  0.0000000  0.6508444  3
   2011   2010   2014   2015     1  0.0000000  0.6508444  3
   2011   2010   2014   2016     1  0.0000000  0.6508444  3
   2011   2010   2017   2018     1  0.0000000  0.6508444  3
   2011   2010   2017   2019     1  0.0000000  0.6508444  3
   2011   2023   2035   2036     1  0.0000000  0.6508444  3
   2011   2023   2035   2037     1  0.0000000  0.6508444  3
   2012   2011   2010   2014     1  0.0000000  0.6508444  3
   2012   2011   2010   2017     1  0.0000000  0.6508444  3
   2012   2011   2010   2039     1  0.0000000  0.6508444  3
   2012   2011   2023   2035     1  0.0000000  0.6508444  3
   2012   2011   2023   2024     1  0.0000000  0.6508444  3
   2012   2011   2023   2025     1  0.0000000  0.6508444  3
   2013   2011   2010   2014     1  0.0000000  0.6508444  3
   2013   2011   2010   2017     1  0.0000000  0.6508444  3
   2013   2011   2010   2039     1  0.0000000  0.6508444  3
   2013   2011   2023   2035     1  0.0000000  0.6508444  3
   2013   2011   2023   2024     1  0.0000000  0.6508444  3
   2013   2011   2023   2025     1  0.0000000  0.6508444  3
   2014   2010   2017   2018     1  0.0000000  0.6508444  3
   2014   2010   2017   2019     1  0.0000000  0.6508444  3
   2014   2026   2032   2033     1  0.0000000  0.6508444  3
   2014   2026   2032   2034     1  0.0000000  0.6508444  3
   2015   2014   2010   2017     1  0.0000000  0.6508444  3
   2015   2014   2010   2039     1  0.0000000  0.6508444  3
   2015   2014   2026   2032     1  0.0000000  0.6508444  3
   2015   2014   2026   2027     1  0.0000000  0.6508444  3
   2015   2014   2026   2028     1  0.0000000  0.6508444  3
   2016   2014   2010   2017     1  0.0000000  0.6508444  3
   2016   2014   2010   2039     1  0.0000000  0.6508444  3
   2016   2014   2026   2032     1  0.0000000  0.6508444  3
   2016   2014   2026   2027     1  0.0000000  0.6508444  3
   2016   2014   2026   2028     1  0.0000000  0.6508444  3
   2017   2020   2029   2030     1  0.0000000  0.6508444  3
   2017   2020   2029   2031     1  0.0000000  0.6508444  3
   2018   2017   2010   2039     1  0.0000000  0.6508444  3
   2018   2017   2020   2029     1  0.0000000  0.6508444  3
   2018   2017   2020   2021     1  0.0000000  0.6508444  3
   2018   2017   2020   2022     1  0.0000000  0.6508444  3
   2019   2017   2010   2039     1  0.0000000  0.6508444  3
   2019   2017   2020   2029     1  0.0000000  0.6508444  3
   2019   2017   2020   2021     1  0.0000000  0.6508444  3
   2019   2017   2020   2022     1  0.0000000  0.6508444  3
   2020   2017   2010   2039     1  0.0000000  0.6508444  3
   2021   2020   2029   2038     1  0.0000000  1.0460000  1
   2021   2020   2029   2038     1  0.0000000  0.0000000  3
   2021   2020   2029   2030     1  0.0000000  0.6508444  3
   2021   2020   2029   2031     1  0.0000000  0.6508444  3
   2022   2020   2029   2038     1  0.0000000  1.0460000  1
   2022   2020   2029   2038     1  0.0000000  0.0000000  3
   2022   2020   2029   2030     1  0.0000000  0.6508444  3
   2022   2020   2029   2031     1  0.0000000  0.6508444  3
   2023   2011   2010   2039     1  0.0000000  0.6508444  3
   2024   2023   2035   3946     1  0.0000000  1.0460000  1
   2024   2023   2035   3946     1  0.0000000  0.0000000  3
   2024   2023   2035   2036     1  0.0000000  0.6508444  3
   2024   2023   2035   2037     1  0.0000000  0.6508444  3
   2025   2023   2035   3946     1  0.0000000  1.0460000  1
   2025   2023   2035   3946     1  0.0000000  0.0000000  3
   2025   2023   2035   2036     1  0.0000000  0.6508444  3
   2025   2023   2035   2037     1  0.0000000  0.6508444  3
   2026   2014   2010   2039     1  0.0000000  0.6508444  3
   2027   2026   2032   3932     1  0.0000000  1.0460000  1
   2027   2026   2032   3932     1  0.0000000  0.0000000  3
   2027   2026   2032   2033     1  0.0000000  0.6508444  3
   2027   2026   2032   2034     1  0.0000000  0.6508444  3
   2028   2026   2032   3932     1  0.0000000  1.0460000  1
   2028   2026   2032   3932     1  0.0000000  0.0000000  3
   2028   2026   2032   2033     1  0.0000000  0.6508444  3
   2028   2026   2032   2034     1  0.0000000  0.6508444  3
   2032   3932   3926   3927     1  0.0000000  1.6038667  3
   2032   3932   3926   3928     1  0.0000000  1.6038667  3
   2033   2032   3932   3926     1  0.0000000  1.6038667  3
   2034   2032   3932   3926     1  0.0000000  1.6038667  3
   2035   3946   3940   3941     1  0.0000000  1.6038667  3
   2035   3946   3940   3942     1  0.0000000  1.6038667  3
   2036   2035   3946   3940     1  0.0000000  1.6038667  3
   2037   2035   3946   3940     1  0.0000000  1.6038667  3
   2040   2041   2053   2054     1  0.0000000  0.6508444  3
   2040   2041   2053   2055     1  0.0000000  0.6508444  3
   2040   2044   2056   2057     1  0.0000000  0.6508444  3
   2040   2044   2056   2058     1  0.0000000  0.6508444  3
   2040   2047   2050   2051     1  0.0000000  0.6508444  3
   2040   2047   2050   2052     1  0.0000000  0.6508444  3
   2041   2040   2044   2045     1  0.0000000  0.6508444  3
   2041   2040   2044   2046     1  0.0000000  0.6508444  3
   2041   2040   2047   2048     1  0.0000000  0.6508444  3
   2041   2040   2047   2049     1  0.0000000  0.6508444  3
   2041   2053   2065   2066     1  0.0000000  0.6508444  3
   2041   2053   2065   2067     1  0.0000000  0.6508444  3
   2042   2041   2040   2044     1  0.0000000  0.6508444  3
   2042   2041   2040   2047     1  0.0000000  0.6508444  3
   2042   2041   2040   2069     1  0.0000000  0.6508444  3
   2042   2041   2053   2065     1  0.0000000  0.6508444  3
   2042   2041   2053   2054     1  0.0000000  0.6508444  3
   2042   2041   2053   2055     1  0.0000000  0.6508444  3
   2043   2041   2040   2044     1  0.0000000  0.6508444  3
   2043   2041   2040   2047     1  0.0000000  0.6508444  3
   2043   2041   2040   2069     1  0.0000000  0.6508444  3
   2043   2041   2053   2065     1  0.0000000  0.6508444  3
   2043   2041   2053   2054     1  0.0000000  0.6508444  3
   2043   2041   2053   2055     1  0.0000000  0.6508444  3
   2044   2040   2047   2048     1  0.0000000  0.6508444  3
   2044   2040   2047   2049     1  0.0000000  0.6508444  3
   2044   2056   2062   2063     1  0.0000000  0.6508444  3
   2044   2056   2062   2064     1  0.0000000  0.6508444  3
   2045   2044   2040   2047     1  0.0000000  0.6508444  3
   2045   2044   2040   2069     1  0.0000000  0.6508444  3
   2045   2044   2056   2062     1  0.0000000  0.6508444  3
   2045   2044   2056   2057     1  0.0000000  0.6508444  3
   2045   2044   2056   2058     1  0.0000000  0.6508444  3
   2046   2044   2040   2047     1  0.0000000  0.6508444  3
   2046   2044   2040   2069     1  0.0000000  0.6508444  3
   2046   2044   2056   2062     1  0.0000000  0.6508444  3
   2046   2044   2056   2057     1  0.0000000  0.6508444  3
   2046   2044   2056   2058     1  0.0000000  0.6508444  3
   2047   2050   2059   2060     1  0.0000000  0.6508444  3
   2047   2050   2059   2061     1  0.0000000  0.6508444  3
   2048   2047   2040   2069     1  0.0000000  0.6508444  3
   2048   2047   2050   2059     1  0.0000000  0.6508444  3
   2048   2047   2050   2051     1  0.0000000  0.6508444  3
   2048   2047   2050   2052     1  0.0000000  0.6508444  3
   2049   2047   2040   2069     1  0.0000000  0.6508444  3
   2049   2047   2050   2059     1  0.0000000  0.6508444  3
   2049   2047   2050   2051     1  0.0000000  0.6508444  3
   2049   2047   2050   2052     1  0.0000000  0.6508444  3
   2050   2047   2040   2069     1  0.0000000  0.6508444  3
   2051   2050   2059   2068     1  0.0000000  1.0460000  1
   2051   2050   2059   2068     1  0.0000000  0.0000000  3
   2051   2050   2059   2060     1  0.0000000  0.6508444  3
   2051   2050   2059   2061     1  0.0000000  0.6508444  3
   2052   2050   2059   2068     1  0.0000000  1.0460000  1
   2052   2050   2059   2068     1  0.0000000  0.0000000  3
   2052   2050   2059   2060     1  0.0000000  0.6508444  3
   2052   2050   2059   2061     1  0.0000000  0.6508444  3
   2053   2041   2040   2069     1  0.0000000  0.6508444  3
   2054   2053   2065   3974     1  0.0000000  1.0460000  1
   2054   2053   2065   3974     1  0.0000000  0.0000000  3
   2054   2053   2065   2066     1  0.0000000  0.6508444  3
   2054   2053   2065   2067     1  0.0000000  0.6508444  3
   2055   2053   2065   3974     1  0.0000000  1.0460000  1
   2055   2053   2065   3974     1  0.0000000  0.0000000  3
   2055   2053   2065   2066     1  0.0000000  0.6508444  3
   2055   2053   2065   2067     1  0.0000000  0.6508444  3
   2056   2044   2040   2069     1  0.0000000  0.6508444  3
   2057   2056   2062   3960     1  0.0000000  1.0460000  1
   2057   2056   2062   3960     1  0.0000000  0.0000000  3
   2057   2056   2062   2063     1  0.0000000  0.6508444  3
   2057   2056   2062   2064     1  0.0000000  0.6508444  3
   2058   2056   2062   3960     1  0.0000000  1.0460000  1
   2058   2056   2062   3960     1  0.0000000  0.0000000  3
   2058   2056   2062   2063     1  0.0000000  0.6508444  3
   2058   2056   2062   2064     1  0.0000000  0.6508444  3
   2062   3960   3954   3955     1  0.0000000  1.6038667  3
   2062   3960   3954   3956     1  0.0000000  1.6038667  3
   2063   2062   3960   3954     1  0.0000000  1.6038667  3
   2064   2062   3960   3954     1  0.0000000  1.6038667  3
   2065   3974   3968   3969     1  0.0000000  1.6038667  3
   2065   3974   3968   3970     1  0.0000000  1.6038667  3
   2066   2065   3974   3968     1  0.0000000  1.6038667  3
   2067   2065   3974   3968     1  0.0000000  1.6038667  3
   2070   2071   2083   2084     1  0.0000000  0.6508444  3
   2070   2071   2083   2085     1  0.0000000  0.6508444  3
   2070   2074   2086   2087     1  0.0000000  0.6508444  3
   2070   2074   2086   2088     1  0.0000000  0.6508444  3
   2070   2077   2080   2081     1  0.0000000  0.6508444  3
   2070   2077   2080   2082     1  0.0000000  0.6508444  3
   2071   2070   2074   2075     1  0.0000000  0.6508444  3
   2071   2070   2074   2076     1  0.0000000  0.6508444  3
   2071   2070   2077   2078     1  0.0000000  0.6508444  3
   2071   2070   2077   2079     1  0.0000000  0.6508444  3
   2071   2083   2095   2096     1  0.0000000  0.6508444  3
   2071   2083   2095   2097     1  0.0000000  0.6508444  3
   2072   2071   2070   2074     1  0.0000000  0.6508444  3
   2072   2071   2070   2077     1  0.0000000  0.6508444  3
   2072   2071   2070   2099     1  0.0000000  0.6508444  3
   2072   2071   2083   2095     1  0.0000000  0.6508444  3
   2072   2071   2083   2084     1  0.0000000  0.6508444  3
   2072   2071   2083   2085     1  0.0000000  0.6508444  3
   2073   2071   2070   2074     1  0.0000000  0.6508444  3
   2073   2071   2070   2077     1  0.0000000  0.6508444  3
   2073   2071   2070   2099     1  0.0000000  0.6508444  3
   2073   2071   2083   2095     1  0.0000000  0.6508444  3
   2073   2071   2083   2084     1  0.0000000  0.6508444  3
   2073   2071   2083   2085     1  0.0000000  0.6508444  3
   2074   2070   2077   2078     1  0.0000000  0.6508444  3
   2074   2070   2077   2079     1  0.0000000  0.6508444  3
   2074   2086   2092   2093     1  0.0000000  0.6508444  3
   2074   2086   2092   2094     1  0.0000000  0.6508444  3
   2075   2074   2070   2077     1  0.0000000  0.6508444  3
   2075   2074   2070   2099     1  0.0000000  0.6508444  3
   2075   2074   2086   2092     1  0.0000000  0.6508444  3
   2075   2074   2086   2087     1  0.0000000  0.6508444  3
   2075   2074   2086   2088     1  0.0000000  0.6508444  3
   2076   2074   2070   2077     1  0.0000000  0.6508444  3
   2076   2074   2070   2099     1  0.0000000  0.6508444  3
   2076   2074   2086   2092     1  0.0000000  0.6508444  3
   2076   2074   2086   2087     1  0.0000000  0.6508444  3
   2076   2074   2086   2088     1  0.0000000  0.6508444  3
   2077   2080   2089   2090     1  0.0000000  0.6508444  3
   2077   2080   2089   2091     1  0.0000000  0.6508444  3
   2078   2077   2070   2099     1  0.0000000  0.6508444  3
   2078   2077   2080   2089     1  0.0000000  0.6508444  3
   2078   2077   2080   2081     1  0.0000000  0.6508444  3
   2078   2077   2080   2082     1  0.0000000  0.6508444  3
   2079   2077   2070   2099     1  0.0000000  0.6508444  3
   2079   2077   2080   2089     1  0.0000000  0.6508444  3
   2079   2077   2080   2081     1  0.0000000  0.6508444  3
   2079   2077   2080   2082     1  0.0000000  0.6508444  3
   2080   2077   2070   2099     1  0.0000000  0.6508444  3
   2081   2080   2089   2098     1  0.0000000  1.0460000  1
   2081   2080   2089   2098     1  0.0000000  0.0000000  3
   2081   2080   2089   2090     1  0.0000000  0.6508444  3
   2081   2080   2089   2091     1  0.0000000  0.6508444  3
   2082   2080   2089   2098     1  0.0000000  1.0460000  1
   2082   2080   2089   2098     1  0.0000000  0.0000000  3
   2082   2080   2089   2090     1  0.0000000  0.6508444  3
   2082   2080   2089   2091     1  0.0000000  0.6508444  3
   2083   2071   2070   2099     1  0.0000000  0.6508444  3
   2084   2083   2095   4002     1  0.0000000  1.0460000  1
   2084   2083   2095   4002     1  0.0000000  0.0000000  3
   2084   2083   2095   2096     1  0.0000000  0.6508444  3
   2084   2083   2095   2097     1  0.0000000  0.6508444  3
   2085   2083   2095   4002     1  0.0000000  1.0460000  1
   2085   2083   2095   4002     1  0.0000000  0.0000000  3
   2085   2083   2095   2096     1  0.0000000  0.6508444  3
   2085   2083   2095   2097     1  0.0000000  0.6508444  3
   2086   2074   2070   2099     1  0.0000000  0.6508444  3
   2087   2086   2092   3988     1  0.0000000  1.0460000  1
   2087   2086   2092   3988     1  0.0000000  0.0000000  3
   2087   2086   2092   2093     1  0.0000000  0.6508444  3
   2087   2086   2092   2094     1  0.0000000  0.6508444  3
   2088   2086   2092   3988     1  0.0000000  1.0460000  1
   2088   2086   2092   3988     1  0.0000000  0.0000000  3
   2088   2086   2092   2093     1  0.0000000  0.6508444  3
   2088   2086   2092   2094     1  0.0000000  0.6508444  3
   2092   3988   3982   3983     1  0.0000000  1.6038667  3
   2092   3988   3982   3984     1  0.0000000  1.6038667  3
   2093   2092   3988   3982     1  0.0000000  1.6038667  3
   2094   2092   3988   3982     1  0.0000000  1.6038667  3
   2095   4002   3996   3997     1  0.0000000  1.6038667  3
   2095   4002   3996   3998     1  0.0000000  1.6038667  3
   2096   2095   4002   3996     1  0.0000000  1.6038667  3
   2097   2095   4002   3996     1  0.0000000  1.6038667  3
   2100   2101   2113   2114     1  0.0000000  0.6508444  3
   2100   2101   2113   2115     1  0.0000000  0.6508444  3
   2100   2104   2116   2117     1  0.0000000  0.6508444  3
   2100   2104   2116   2118     1  0.0000000  0.6508444  3
   2100   2107   2110   2111     1  0.0000000  0.6508444  3
   2100   2107   2110   2112     1  0.0000000  0.6508444  3
   2101   2100   2104   2105     1  0.0000000  0.6508444  3
   2101   2100   2104   2106     1  0.0000000  0.6508444  3
   2101   2100   2107   2108     1  0.0000000  0.6508444  3
   2101   2100   2107   2109     1  0.0000000  0.6508444  3
   2101   2113   2125   2126     1  0.0000000  0.6508444  3
   2101   2113   2125   2127     1  0.0000000  0.6508444  3
   2102   2101   2100   2104     1  0.0000000  0.6508444  3
   2102   2101   2100   2107     1  0.0000000  0.6508444  3
   2102   2101   2100   2129     1  0.0000000  0.6508444  3
   2102   2101   2113   2125     1  0.0000000  0.6508444  3
   2102   2101   2113   2114     1  0.0000000  0.6508444  3
   2102   2101   2113   2115     1  0.0000000  0.6508444  3
   2103   2101   2100   2104     1  0.0000000  0.6508444  3
   2103   2101   2100   2107     1  0.0000000  0.6508444  3
   2103   2101   2100   2129     1  0.0000000  0.6508444  3
   2103   2101   2113   2125     1  0.0000000  0.6508444  3
   2103   2101   2113   2114     1  0.0000000  0.6508444  3
   2103   2101   2113   2115     1  0.0000000  0.6508444  3
   2104   2100   2107   2108     1  0.0000000  0.6508444  3
   2104   2100   2107   2109     1  0.0000000  0.6508444  3
   2104   2116   2122   2123     1  0.0000000  0.6508444  3
   2104   2116   2122   2124     1  0.0000000  0.6508444  3
   2105   2104   2100   2107     1  0.0000000  0.6508444  3
   2105   2104   2100   2129     1  0.0000000  0.6508444  3
   2105   2104   2116   2122     1  0.0000000  0.6508444  3
   2105   2104   2116   2117     1  0.0000000  0.6508444  3
   2105   2104   2116   2118     1  0.0000000  0.6508444  3
   2106   2104   2100   2107     1  0.0000000  0.6508444  3
   2106   2104   2100   2129     1  0.0000000  0.6508444  3
   2106   2104   2116   2122     1  0.0000000  0.6508444  3
   2106   2104   2116   2117     1  0.0000000  0.6508444  3
   2106   2104   2116   2118     1  0.0000000  0.6508444  3
   2107   2110   2119   2120     1  0.0000000  0.6508444  3
   2107   2110   2119   2121     1  0.0000000  0.6508444  3
   2108   2107   2100   2129     1  0.0000000  0.6508444  3
   2108   2107   2110   2119     1  0.0000000  0.6508444  3
   2108   2107   2110   2111     1  0.0000000  0.6508444  3
   2108   2107   2110   2112     1  0.0000000  0.6508444  3
   2109   2107   2100   2129     1  0.0000000  0.6508444  3
   2109   2107   2110   2119     1  0.0000000  0.6508444  3
   2109   2107   2110   2111     1  0.0000000  0.6508444  3
   2109   2107   2110   2112     1  0.0000000  0.6508444  3
   2110   2107   2100   2129     1  0.0000000  0.6508444  3
   2111   2110   2119   2128     1  0.0000000  1.0460000  1
   2111   2110   2119   2128     1  0.0000000  0.0000000  3
   2111   2110   2119   2120     1  0.0000000  0.6508444  3
   2111   2110   2119   2121     1  0.0000000  0.6508444  3
   2112   2110   2119   2128     1  0.0000000  1.0460000  1
   2112   2110   2119   2128     1  0.0000000  0.0000000  3
   2112   2110   2119   2120     1  0.0000000  0.6508444  3
   2112   2110   2119   2121     1  0.0000000  0.6508444  3
   2113   2101   2100   2129     1  0.0000000  0.6508444  3
   2114   2113   2125   4030     1  0.0000000  1.0460000  1
   2114   2113   2125   4030     1  0.0000000  0.0000000  3
   2114   2113   2125   2126     1  0.0000000  0.6508444  3
   2114   2113   2125   2127     1  0.0000000  0.6508444  3
   2115   2113   2125   4030     1  0.0000000  1.0460000  1
   2115   2113   2125   4030     1  0.0000000  0.0000000  3
   2115   2113   2125   2126     1  0.0000000  0.6508444  3
   2115   2113   2125   2127     1  0.0000000  0.6508444  3
   2116   2104   2100   2129     1  0.0000000  0.6508444  3
   2117   2116   2122   4016     1  0.0000000  1.0460000  1
   2117   2116   2122   4016     1  0.0000000  0.0000000  3
   2117   2116   2122   2123     1  0.0000000  0.6508444  3
   2117   2116   2122   2124     1  0.0000000  0.6508444  3
   2118   2116   2122   4016     1  0.0000000  1.0460000  1
   2118   2116   2122   4016     1  0.0000000  0.0000000  3
   2118   2116   2122   2123     1  0.0000000  0.6508444  3
   2118   2116   2122   2124     1  0.0000000  0.6508444  3
   2122   4016   4010   4011     1  0.0000000  1.6038667  3
   2122   4016   4010   4012     1  0.0000000  1.6038667  3
   2123   2122   4016   4010     1  0.0000000  1.6038667  3
   2124   2122   4016   4010     1  0.0000000  1.6038667  3
   2125   4030   4024   4025     1  0.0000000  1.6038667  3
   2125   4030   4024   4026     1  0.0000000  1.6038667  3
   2126   2125   4030   4024     1  0.0000000  1.6038667  3
   2127   2125   4030   4024     1  0.0000000  1.6038667  3
   2130   2131   2143   2144     1  0.0000000  0.6508444  3
   2130   2131   2143   2145     1  0.0000000  0.6508444  3
   2130   2134   2146   2147     1  0.0000000  0.6508444  3
   2130   2134   2146   2148     1  0.0000000  0.6508444  3
   2130   2137   2140   2141     1  0.0000000  0.6508444  3
   2130   2137   2140   2142     1  0.0000000  0.6508444  3
   2131   2130   2134   2135     1  0.0000000  0.6508444  3
   2131   2130   2134   2136     1  0.0000000  0.6508444  3
   2131   2130   2137   2138     1  0.0000000  0.6508444  3
   2131   2130   2137   2139     1  0.0000000  0.6508444  3
   2131   2143   2155   2156     1  0.0000000  0.6508444  3
   2131   2143   2155   2157     1  0.0000000  0.6508444  3
   2132   2131   2130   2134     1  0.0000000  0.6508444  3
   2132   2131   2130   2137     1  0.0000000  0.6508444  3
   2132   2131   2130   2159     1  0.0000000  0.6508444  3
   2132   2131   2143   2155     1  0.0000000  0.6508444  3
   2132   2131   2143   2144     1  0.0000000  0.6508444  3
   2132   2131   2143   2145     1  0.0000000  0.6508444  3
   2133   2131   2130   2134     1  0.0000000  0.6508444  3
   2133   2131   2130   2137     1  0.0000000  0.6508444  3
   2133   2131   2130   2159     1  0.0000000  0.6508444  3
   2133   2131   2143   2155     1  0.0000000  0.6508444  3
   2133   2131   2143   2144     1  0.0000000  0.6508444  3
   2133   2131   2143   2145     1  0.0000000  0.6508444  3
   2134   2130   2137   2138     1  0.0000000  0.6508444  3
   2134   2130   2137   2139     1  0.0000000  0.6508444  3
   2134   2146   2152   2153     1  0.0000000  0.6508444  3
   2134   2146   2152   2154     1  0.0000000  0.6508444  3
   2135   2134   2130   2137     1  0.0000000  0.6508444  3
   2135   2134   2130   2159     1  0.0000000  0.6508444  3
   2135   2134   2146   2152     1  0.0000000  0.6508444  3
   2135   2134   2146   2147     1  0.0000000  0.6508444  3
   2135   2134   2146   2148     1  0.0000000  0.6508444  3
   2136   2134   2130   2137     1  0.0000000  0.6508444  3
   2136   2134   2130   2159     1  0.0000000  0.6508444  3
   2136   2134   2146   2152     1  0.0000000  0.6508444  3
   2136   2134   2146   2147     1  0.0000000  0.6508444  3
   2136   2134   2146   2148     1  0.0000000  0.6508444  3
   2137   2140   2149   2150     1  0.0000000  0.6508444  3
   2137   2140   2149   2151     1  0.0000000  0.6508444  3
   2138   2137   2130   2159     1  0.0000000  0.6508444  3
   2138   2137   2140   2149     1  0.0000000  0.6508444  3
   2138   2137   2140   2141     1  0.0000000  0.6508444  3
   2138   2137   2140   2142     1  0.0000000  0.6508444  3
   2139   2137   2130   2159     1  0.0000000  0.6508444  3
   2139   2137   2140   2149     1  0.0000000  0.6508444  3
   2139   2137   2140   2141     1  0.0000000  0.6508444  3
   2139   2137   2140   2142     1  0.0000000  0.6508444  3
   2140   2137   2130   2159     1  0.0000000  0.6508444  3
   2141   2140   2149   2158     1  0.0000000  1.0460000  1
   2141   2140   2149   2158     1  0.0000000  0.0000000  3
   2141   2140   2149   2150     1  0.0000000  0.6508444  3
   2141   2140   2149   2151     1  0.0000000  0.6508444  3
   2142   2140   2149   2158     1  0.0000000  1.0460000  1
   2142   2140   2149   2158     1  0.0000000  0.0000000  3
   2142   2140   2149   2150     1  0.0000000  0.6508444  3
   2142   2140   2149   2151     1  0.0000000  0.6508444  3
   2143   2131   2130   2159     1  0.0000000  0.6508444  3
   2144   2143   2155   4058     1  0.0000000  1.0460000  1
   2144   2143   2155   4058     1  0.0000000  0.0000000  3
   2144   2143   2155   2156     1  0.0000000  0.6508444  3
   2144   2143   2155   2157     1  0.0000000  0.6508444  3
   2145   2143   2155   4058     1  0.0000000  1.0460000  1
   2145   2143   2155   4058     1  0.0000000  0.0000000  3
   2145   2143   2155   2156     1  0.0000000  0.6508444  3
   2145   2143   2155   2157     1  0.0000000  0.6508444  3
   2146   2134   2130   2159     1  0.0000000  0.6508444  3
   2147   2146   2152   4044     1  0.0000000  1.0460000  1
   2147   2146   2152   4044     1  0.0000000  0.0000000  3
   2147   2146   2152   2153     1  0.0000000  0.6508444  3
   2147   2146   2152   2154     1  0.0000000  0.6508444  3
   2148   2146   2152   4044     1  0.0000000  1.0460000  1
   2148   2146   2152   4044     1  0.0000000  0.0000000  3
   2148   2146   2152   2153     1  0.0000000  0.6508444  3
   2148   2146   2152   2154     1  0.0000000  0.6508444  3
   2152   4044   4038   4039     1  0.0000000  1.6038667  3
   2152   4044   4038   4040     1  0.0000000  1.6038667  3
   2153   2152   4044   4038     1  0.0000000  1.6038667  3
   2154   2152   4044   4038     1  0.0000000  1.6038667  3
   2155   4058   4052   4053     1  0.0000000  1.6038667  3
   2155   4058   4052   4054     1  0.0000000  1.6038667  3
   2156   2155   4058   4052     1  0.0000000  1.6038667  3
   2157   2155   4058   4052     1  0.0000000  1.6038667  3
   2160   2161   2173   2174     1  0.0000000  0.6508444  3
   2160   2161   2173   2175     1  0.0000000  0.6508444  3
   2160   2164   2176   2177     1  0.0000000  0.6508444  3
   2160   2164   2176   2178     1  0.0000000  0.6508444  3
   2160   2167   2170   2171     1  0.0000000  0.6508444  3
   2160   2167   2170   2172     1  0.0000000  0.6508444  3
   2161   2160   2164   2165     1  0.0000000  0.6508444  3
   2161   2160   2164   2166     1  0.0000000  0.6508444  3
   2161   2160   2167   2168     1  0.0000000  0.6508444  3
   2161   2160   2167   2169     1  0.0000000  0.6508444  3
   2161   2173   2185   2186     1  0.0000000  0.6508444  3
   2161   2173   2185   2187     1  0.0000000  0.6508444  3
   2162   2161   2160   2164     1  0.0000000  0.6508444  3
   2162   2161   2160   2167     1  0.0000000  0.6508444  3
   2162   2161   2160   2189     1  0.0000000  0.6508444  3
   2162   2161   2173   2185     1  0.0000000  0.6508444  3
   2162   2161   2173   2174     1  0.0000000  0.6508444  3
   2162   2161   2173   2175     1  0.0000000  0.6508444  3
   2163   2161   2160   2164     1  0.0000000  0.6508444  3
   2163   2161   2160   2167     1  0.0000000  0.6508444  3
   2163   2161   2160   2189     1  0.0000000  0.6508444  3
   2163   2161   2173   2185     1  0.0000000  0.6508444  3
   2163   2161   2173   2174     1  0.0000000  0.6508444  3
   2163   2161   2173   2175     1  0.0000000  0.6508444  3
   2164   2160   2167   2168     1  0.0000000  0.6508444  3
   2164   2160   2167   2169     1  0.0000000  0.6508444  3
   2164   2176   2182   2183     1  0.0000000  0.6508444  3
   2164   2176   2182   2184     1  0.0000000  0.6508444  3
   2165   2164   2160   2167     1  0.0000000  0.6508444  3
   2165   2164   2160   2189     1  0.0000000  0.6508444  3
   2165   2164   2176   2182     1  0.0000000  0.6508444  3
   2165   2164   2176   2177     1  0.0000000  0.6508444  3
   2165   2164   2176   2178     1  0.0000000  0.6508444  3
   2166   2164   2160   2167     1  0.0000000  0.6508444  3
   2166   2164   2160   2189     1  0.0000000  0.6508444  3
   2166   2164   2176   2182     1  0.0000000  0.6508444  3
   2166   2164   2176   2177     1  0.0000000  0.6508444  3
   2166   2164   2176   2178     1  0.0000000  0.6508444  3
   2167   2170   2179   2180     1  0.0000000  0.6508444  3
   2167   2170   2179   2181     1  0.0000000  0.6508444  3
   2168   2167   2160   2189     1  0.0000000  0.6508444  3
   2168   2167   2170   2179     1  0.0000000  0.6508444  3
   2168   2167   2170   2171     1  0.0000000  0.6508444  3
   2168   2167   2170   2172     1  0.0000000  0.6508444  3
   2169   2167   2160   2189     1  0.0000000  0.6508444  3
   2169   2167   2170   2179     1  0.0000000  0.6508444  3
   2169   2167   2170   2171     1  0.0000000  0.6508444  3
   2169   2167   2170   2172     1  0.0000000  0.6508444  3
   2170   2167   2160   2189     1  0.0000000  0.6508444  3
   2171   2170   2179   2188     1  0.0000000  1.0460000  1
   2171   2170   2179   2188     1  0.0000000  0.0000000  3
   2171   2170   2179   2180     1  0.0000000  0.6508444  3
   2171   2170   2179   2181     1  0.0000000  0.6508444  3
   2172   2170   2179   2188     1  0.0000000  1.0460000  1
   2172   2170   2179   2188     1  0.0000000  0.0000000  3
   2172   2170   2179   2180     1  0.0000000  0.6508444  3
   2172   2170   2179   2181     1  0.0000000  0.6508444  3
   2173   2161   2160   2189     1  0.0000000  0.6508444  3
   2174   2173   2185   4086     1  0.0000000  1.0460000  1
   2174   2173   2185   4086     1  0.0000000  0.0000000  3
   2174   2173   2185   2186     1  0.0000000  0.6508444  3
   2174   2173   2185   2187     1  0.0000000  0.6508444  3
   2175   2173   2185   4086     1  0.0000000  1.0460000  1
   2175   2173   2185   4086     1  0.0000000  0.0000000  3
   2175   2173   2185   2186     1  0.0000000  0.6508444  3
   2175   2173   2185   2187     1  0.0000000  0.6508444  3
   2176   2164   2160   2189     1  0.0000000  0.6508444  3
   2177   2176   2182   4072     1  0.0000000  1.0460000  1
   2177   2176   2182   4072     1  0.0000000  0.0000000  3
   2177   2176   2182   2183     1  0.0000000  0.6508444  3
   2177   2176   2182   2184     1  0.0000000  0.6508444  3
   2178   2176   2182   4072     1  0.0000000  1.0460000  1
   2178   2176   2182   4072     1  0.0000000  0.0000000  3
   2178   2176   2182   2183     1  0.0000000  0.6508444  3
   2178   2176   2182   2184     1  0.0000000  0.6508444  3
   2182   4072   4066   4067     1  0.0000000  1.6038667  3
   2182   4072   4066   4068     1  0.0000000  1.6038667  3
   2183   2182   4072   4066     1  0.0000000  1.6038667  3
   2184   2182   4072   4066     1  0.0000000  1.6038667  3
   2185   4086   4080   4081     1  0.0000000  1.6038667  3
   2185   4086   4080   4082     1  0.0000000  1.6038667  3
   2186   2185   4086   4080     1  0.0000000  1.6038667  3
   2187   2185   4086   4080     1  0.0000000  1.6038667  3
   2190   2191   2203   2204     1  0.0000000  0.6508444  3
   2190   2191   2203   2205     1  0.0000000  0.6508444  3
   2190   2194   2206   2207     1  0.0000000  0.6508444  3
   2190   2194   2206   2208     1  0.0000000  0.6508444  3
   2190   2197   2200   2201     1  0.0000000  0.6508444  3
   2190   2197   2200   2202     1  0.0000000  0.6508444  3
   2191   2190   2194   2195     1  0.0000000  0.6508444  3
   2191   2190   2194   2196     1  0.0000000  0.6508444  3
   2191   2190   2197   2198     1  0.0000000  0.6508444  3
   2191   2190   2197   2199     1  0.0000000  0.6508444  3
   2191   2203   2215   2216     1  0.0000000  0.6508444  3
   2191   2203   2215   2217     1  0.0000000  0.6508444  3
   2192   2191   2190   2194     1  0.0000000  0.6508444  3
   2192   2191   2190   2197     1  0.0000000  0.6508444  3
   2192   2191   2190   2219     1  0.0000000  0.6508444  3
   2192   2191   2203   2215     1  0.0000000  0.6508444  3
   2192   2191   2203   2204     1  0.0000000  0.6508444  3
   2192   2191   2203   2205     1  0.0000000  0.6508444  3
   2193   2191   2190   2194     1  0.0000000  0.6508444  3
   2193   2191   2190   2197     1  0.0000000  0.6508444  3
   2193   2191   2190   2219     1  0.0000000  0.6508444  3
   2193   2191   2203   2215     1  0.0000000  0.6508444  3
   2193   2191   2203   2204     1  0.0000000  0.6508444  3
   2193   2191   2203   2205     1  0.0000000  0.6508444  3
   2194   2190   2197   2198     1  0.0000000  0.6508444  3
   2194   2190   2197   2199     1  0.0000000  0.6508444  3
   2194   2206   2212   2213     1  0.0000000  0.6508444  3
   2194   2206   2212   2214     1  0.0000000  0.6508444  3
   2195   2194   2190   2197     1  0.0000000  0.6508444  3
   2195   2194   2190   2219     1  0.0000000  0.6508444  3
   2195   2194   2206   2212     1  0.0000000  0.6508444  3
   2195   2194   2206   2207     1  0.0000000  0.6508444  3
   2195   2194   2206   2208     1  0.0000000  0.6508444  3
   2196   2194   2190   2197     1  0.0000000  0.6508444  3
   2196   2194   2190   2219     1  0.0000000  0.6508444  3
   2196   2194   2206   2212     1  0.0000000  0.6508444  3
   2196   2194   2206   2207     1  0.0000000  0.6508444  3
   2196   2194   2206   2208     1  0.0000000  0.6508444  3
   2197   2200   2209   2210     1  0.0000000  0.6508444  3
   2197   2200   2209   2211     1  0.0000000  0.6508444  3
   2198   2197   2190   2219     1  0.0000000  0.6508444  3
   2198   2197   2200   2209     1  0.0000000  0.6508444  3
   2198   2197   2200   2201     1  0.0000000  0.6508444  3
   2198   2197   2200   2202     1  0.0000000  0.6508444  3
   2199   2197   2190   2219     1  0.0000000  0.6508444  3
   2199   2197   2200   2209     1  0.0000000  0.6508444  3
   2199   2197   2200   2201     1  0.0000000  0.6508444  3
   2199   2197   2200   2202     1  0.0000000  0.6508444  3
   2200   2197   2190   2219     1  0.0000000  0.6508444  3
   2201   2200   2209   2218     1  0.0000000  1.0460000  1
   2201   2200   2209   2218     1  0.0000000  0.0000000  3
   2201   2200   2209   2210     1  0.0000000  0.6508444  3
   2201   2200   2209   2211     1  0.0000000  0.6508444  3
   2202   2200   2209   2218     1  0.0000000  1.0460000  1
   2202   2200   2209   2218     1  0.0000000  0.0000000  3
   2202   2200   2209   2210     1  0.0000000  0.6508444  3
   2202   2200   2209   2211     1  0.0000000  0.6508444  3
   2203   2191   2190   2219     1  0.0000000  0.6508444  3
   2204   2203   2215   4114     1  0.0000000  1.0460000  1
   2204   2203   2215   4114     1  0.0000000  0.0000000  3
   2204   2203   2215   2216     1  0.0000000  0.6508444  3
   2204   2203   2215   2217     1  0.0000000  0.6508444  3
   2205   2203   2215   4114     1  0.0000000  1.0460000  1
   2205   2203   2215   4114     1  0.0000000  0.0000000  3
   2205   2203   2215   2216     1  0.0000000  0.6508444  3
   2205   2203   2215   2217     1  0.0000000  0.6508444  3
   2206   2194   2190   2219     1  0.0000000  0.6508444  3
   2207   2206   2212   4100     1  0.0000000  1.0460000  1
   2207   2206   2212   4100     1  0.0000000  0.0000000  3
   2207   2206   2212   2213     1  0.0000000  0.6508444  3
   2207   2206   2212   2214     1  0.0000000  0.6508444  3
   2208   2206   2212   4100     1  0.0000000  1.0460000  1
   2208   2206   2212   4100     1  0.0000000  0.0000000  3
   2208   2206   2212   2213     1  0.0000000  0.6508444  3
   2208   2206   2212   2214     1  0.0000000  0.6508444  3
   2212   4100   4094   4095     1  0.0000000  1.6038667  3
   2212   4100   4094   4096     1  0.0000000  1.6038667  3
   2213   2212   4100   4094     1  0.0000000  1.6038667  3
   2214   2212   4100   4094     1  0.0000000  1.6038667  3
   2215   4114   4108   4109     1  0.0000000  1.6038667  3
   2215   4114   4108   4110     1  0.0000000  1.6038667  3
   2216   2215   4114   4108     1  0.0000000  1.6038667  3
   2217   2215   4114   4108     1  0.0000000  1.6038667  3
   2220   2221   2233   2234     1  0.0000000  0.6508444  3
   2220   2221   2233   2235     1  0.0000000  0.6508444  3
   2220   2224   2236   2237     1  0.0000000  0.6508444  3
   2220   2224   2236   2238     1  0.0000000  0.6508444  3
   2220   2227   2230   2231     1  0.0000000  0.6508444  3
   2220   2227   2230   2232     1  0.0000000  0.6508444  3
   2221   2220   2224   2225     1  0.0000000  0.6508444  3
   2221   2220   2224   2226     1  0.0000000  0.6508444  3
   2221   2220   2227   2228     1  0.0000000  0.6508444  3
   2221   2220   2227   2229     1  0.0000000  0.6508444  3
   2221   2233   2245   2246     1  0.0000000  0.6508444  3
   2221   2233   2245   2247     1  0.0000000  0.6508444  3
   2222   2221   2220   2224     1  0.0000000  0.6508444  3
   2222   2221   2220   2227     1  0.0000000  0.6508444  3
   2222   2221   2220   2249     1  0.0000000  0.6508444  3
   2222   2221   2233   2245     1  0.0000000  0.6508444  3
   2222   2221   2233   2234     1  0.0000000  0.6508444  3
   2222   2221   2233   2235     1  0.0000000  0.6508444  3
   2223   2221   2220   2224     1  0.0000000  0.6508444  3
   2223   2221   2220   2227     1  0.0000000  0.6508444  3
   2223   2221   2220   2249     1  0.0000000  0.6508444  3
   2223   2221   2233   2245     1  0.0000000  0.6508444  3
   2223   2221   2233   2234     1  0.0000000  0.6508444  3
   2223   2221   2233   2235     1  0.0000000  0.6508444  3
   2224   2220   2227   2228     1  0.0000000  0.6508444  3
   2224   2220   2227   2229     1  0.0000000  0.6508444  3
   2224   2236   2242   2243     1  0.0000000  0.6508444  3
   2224   2236   2242   2244     1  0.0000000  0.6508444  3
   2225   2224   2220   2227     1  0.0000000  0.6508444  3
   2225   2224   2220   2249     1  0.0000000  0.6508444  3
   2225   2224   2236   2242     1  0.0000000  0.6508444  3
   2225   2224   2236   2237     1  0.0000000  0.6508444  3
   2225   2224   2236   2238     1  0.0000000  0.6508444  3
   2226   2224   2220   2227     1  0.0000000  0.6508444  3
   2226   2224   2220   2249     1  0.0000000  0.6508444  3
   2226   2224   2236   2242     1  0.0000000  0.6508444  3
   2226   2224   2236   2237     1  0.0000000  0.6508444  3
   2226   2224   2236   2238     1  0.0000000  0.6508444  3
   2227   2230   2239   2240     1  0.0000000  0.6508444  3
   2227   2230   2239   2241     1  0.0000000  0.6508444  3
   2228   2227   2220   2249     1  0.0000000  0.6508444  3
   2228   2227   2230   2239     1  0.0000000  0.6508444  3
   2228   2227   2230   2231     1  0.0000000  0.6508444  3
   2228   2227   2230   2232     1  0.0000000  0.6508444  3
   2229   2227   2220   2249     1  0.0000000  0.6508444  3
   2229   2227   2230   2239     1  0.0000000  0.6508444  3
   2229   2227   2230   2231     1  0.0000000  0.6508444  3
   2229   2227   2230   2232     1  0.0000000  0.6508444  3
   2230   2227   2220   2249     1  0.0000000  0.6508444  3
   2231   2230   2239   2248     1  0.0000000  1.0460000  1
   2231   2230   2239   2248     1  0.0000000  0.0000000  3
   2231   2230   2239   2240     1  0.0000000  0.6508444  3
   2231   2230   2239   2241     1  0.0000000  0.6508444  3
   2232   2230   2239   2248     1  0.0000000  1.0460000  1
   2232   2230   2239   2248     1  0.0000000  0.0000000  3
   2232   2230   2239   2240     1  0.0000000  0.6508444  3
   2232   2230   2239   2241     1  0.0000000  0.6508444  3
   2233   2221   2220   2249     1  0.0000000  0.6508444  3
   2234   2233   2245   4142     1  0.0000000  1.0460000  1
   2234   2233   2245   4142     1  0.0000000  0.0000000  3
   2234   2233   2245   2246     1  0.0000000  0.6508444  3
   2234   2233   2245   2247     1  0.0000000  0.6508444  3
   2235   2233   2245   4142     1  0.0000000  1.0460000  1
   2235   2233   2245   4142     1  0.0000000  0.0000000  3
   2235   2233   2245   2246     1  0.0000000  0.6508444  3
   2235   2233   2245   2247     1  0.0000000  0.6508444  3
   2236   2224   2220   2249     1  0.0000000  0.6508444  3
   2237   2236   2242   4128     1  0.0000000  1.0460000  1
   2237   2236   2242   4128     1  0.0000000  0.0000000  3
   2237   2236   2242   2243     1  0.0000000  0.6508444  3
   2237   2236   2242   2244     1  0.0000000  0.6508444  3
   2238   2236   2242   4128     1  0.0000000  1.0460000  1
   2238   2236   2242   4128     1  0.0000000  0.0000000  3
   2238   2236   2242   2243     1  0.0000000  0.6508444  3
   2238   2236   2242   2244     1  0.0000000  0.6508444  3
   2242   4128   4122   4123     1  0.0000000  1.6038667  3
   2242   4128   4122   4124     1  0.0000000  1.6038667  3
   2243   2242   4128   4122     1  0.0000000  1.6038667  3
   2244   2242   4128   4122     1  0.0000000  1.6038667  3
   2245   4142   4136   4137     1  0.0000000  1.6038667  3
   2245   4142   4136   4138     1  0.0000000  1.6038667  3
   2246   2245   4142   4136     1  0.0000000  1.6038667  3
   2247   2245   4142   4136     1  0.0000000  1.6038667  3
   2250   2251   2263   2264     1  0.0000000  0.6508444  3
   2250   2251   2263   2265     1  0.0000000  0.6508444  3
   2250   2254   2266   2267     1  0.0000000  0.6508444  3
   2250   2254   2266   2268     1  0.0000000  0.6508444  3
   2250   2257   2260   2261     1  0.0000000  0.6508444  3
   2250   2257   2260   2262     1  0.0000000  0.6508444  3
   2251   2250   2254   2255     1  0.0000000  0.6508444  3
   2251   2250   2254   2256     1  0.0000000  0.6508444  3
   2251   2250   2257   2258     1  0.0000000  0.6508444  3
   2251   2250   2257   2259     1  0.0000000  0.6508444  3
   2251   2263   2275   2276     1  0.0000000  0.6508444  3
   2251   2263   2275   2277     1  0.0000000  0.6508444  3
   2252   2251   2250   2254     1  0.0000000  0.6508444  3
   2252   2251   2250   2257     1  0.0000000  0.6508444  3
   2252   2251   2250   2279     1  0.0000000  0.6508444  3
   2252   2251   2263   2275     1  0.0000000  0.6508444  3
   2252   2251   2263   2264     1  0.0000000  0.6508444  3
   2252   2251   2263   2265     1  0.0000000  0.6508444  3
   2253   2251   2250   2254     1  0.0000000  0.6508444  3
   2253   2251   2250   2257     1  0.0000000  0.6508444  3
   2253   2251   2250   2279     1  0.0000000  0.6508444  3
   2253   2251   2263   2275     1  0.0000000  0.6508444  3
   2253   2251   2263   2264     1  0.0000000  0.6508444  3
   2253   2251   2263   2265     1  0.0000000  0.6508444  3
   2254   2250   2257   2258     1  0.0000000  0.6508444  3
   2254   2250   2257   2259     1  0.0000000  0.6508444  3
   2254   2266   2272   2273     1  0.0000000  0.6508444  3
   2254   2266   2272   2274     1  0.0000000  0.6508444  3
   2255   2254   2250   2257     1  0.0000000  0.6508444  3
   2255   2254   2250   2279     1  0.0000000  0.6508444  3
   2255   2254   2266   2272     1  0.0000000  0.6508444  3
   2255   2254   2266   2267     1  0.0000000  0.6508444  3
   2255   2254   2266   2268     1  0.0000000  0.6508444  3
   2256   2254   2250   2257     1  0.0000000  0.6508444  3
   2256   2254   2250   2279     1  0.0000000  0.6508444  3
   2256   2254   2266   2272     1  0.0000000  0.6508444  3
   2256   2254   2266   2267     1  0.0000000  0.6508444  3
   2256   2254   2266   2268     1  0.0000000  0.6508444  3
   2257   2260   2269   2270     1  0.0000000  0.6508444  3
   2257   2260   2269   2271     1  0.0000000  0.6508444  3
   2258   2257   2250   2279     1  0.0000000  0.6508444  3
   2258   2257   2260   2269     1  0.0000000  0.6508444  3
   2258   2257   2260   2261     1  0.0000000  0.6508444  3
   2258   2257   2260   2262     1  0.0000000  0.6508444  3
   2259   2257   2250   2279     1  0.0000000  0.6508444  3
   2259   2257   2260   2269     1  0.0000000  0.6508444  3
   2259   2257   2260   2261     1  0.0000000  0.6508444  3
   2259   2257   2260   2262     1  0.0000000  0.6508444  3
   2260   2257   2250   2279     1  0.0000000  0.6508444  3
   2261   2260   2269   2278     1  0.0000000  1.0460000  1
   2261   2260   2269   2278     1  0.0000000  0.0000000  3
   2261   2260   2269   2270     1  0.0000000  0.6508444  3
   2261   2260   2269   2271     1  0.0000000  0.6508444  3
   2262   2260   2269   2278     1  0.0000000  1.0460000  1
   2262   2260   2269   2278     1  0.0000000  0.0000000  3
   2262   2260   2269   2270     1  0.0000000  0.6508444  3
   2262   2260   2269   2271     1  0.0000000  0.6508444  3
   2263   2251   2250   2279     1  0.0000000  0.6508444  3
   2264   2263   2275   4170     1  0.0000000  1.0460000  1
   2264   2263   2275   4170     1  0.0000000  0.0000000  3
   2264   2263   2275   2276     1  0.0000000  0.6508444  3
   2264   2263   2275   2277     1  0.0000000  0.6508444  3
   2265   2263   2275   4170     1  0.0000000  1.0460000  1
   2265   2263   2275   4170     1  0.0000000  0.0000000  3
   2265   2263   2275   2276     1  0.0000000  0.6508444  3
   2265   2263   2275   2277     1  0.0000000  0.6508444  3
   2266   2254   2250   2279     1  0.0000000  0.6508444  3
   2267   2266   2272   4156     1  0.0000000  1.0460000  1
   2267   2266   2272   4156     1  0.0000000  0.0000000  3
   2267   2266   2272   2273     1  0.0000000  0.6508444  3
   2267   2266   2272   2274     1  0.0000000  0.6508444  3
   2268   2266   2272   4156     1  0.0000000  1.0460000  1
   2268   2266   2272   4156     1  0.0000000  0.0000000  3
   2268   2266   2272   2273     1  0.0000000  0.6508444  3
   2268   2266   2272   2274     1  0.0000000  0.6508444  3
   2272   4156   4150   4151     1  0.0000000  1.6038667  3
   2272   4156   4150   4152     1  0.0000000  1.6038667  3
   2273   2272   4156   4150     1  0.0000000  1.6038667  3
   2274   2272   4156   4150     1  0.0000000  1.6038667  3
   2275   4170   4164   4165     1  0.0000000  1.6038667  3
   2275   4170   4164   4166     1  0.0000000  1.6038667  3
   2276   2275   4170   4164     1  0.0000000  1.6038667  3
   2277   2275   4170   4164     1  0.0000000  1.6038667  3
   2280   2281   2293   2294     1  0.0000000  0.6508444  3
   2280   2281   2293   2295     1  0.0000000  0.6508444  3
   2280   2284   2296   2297     1  0.0000000  0.6508444  3
   2280   2284   2296   2298     1  0.0000000  0.6508444  3
   2280   2287   2290   2291     1  0.0000000  0.6508444  3
   2280   2287   2290   2292     1  0.0000000  0.6508444  3
   2281   2280   2284   2285     1  0.0000000  0.6508444  3
   2281   2280   2284   2286     1  0.0000000  0.6508444  3
   2281   2280   2287   2288     1  0.0000000  0.6508444  3
   2281   2280   2287   2289     1  0.0000000  0.6508444  3
   2281   2293   2305   2306     1  0.0000000  0.6508444  3
   2281   2293   2305   2307     1  0.0000000  0.6508444  3
   2282   2281   2280   2284     1  0.0000000  0.6508444  3
   2282   2281   2280   2287     1  0.0000000  0.6508444  3
   2282   2281   2280   2309     1  0.0000000  0.6508444  3
   2282   2281   2293   2305     1  0.0000000  0.6508444  3
   2282   2281   2293   2294     1  0.0000000  0.6508444  3
   2282   2281   2293   2295     1  0.0000000  0.6508444  3
   2283   2281   2280   2284     1  0.0000000  0.6508444  3
   2283   2281   2280   2287     1  0.0000000  0.6508444  3
   2283   2281   2280   2309     1  0.0000000  0.6508444  3
   2283   2281   2293   2305     1  0.0000000  0.6508444  3
   2283   2281   2293   2294     1  0.0000000  0.6508444  3
   2283   2281   2293   2295     1  0.0000000  0.6508444  3
   2284   2280   2287   2288     1  0.0000000  0.6508444  3
   2284   2280   2287   2289     1  0.0000000  0.6508444  3
   2284   2296   2302   2303     1  0.0000000  0.6508444  3
   2284   2296   2302   2304     1  0.0000000  0.6508444  3
   2285   2284   2280   2287     1  0.0000000  0.6508444  3
   2285   2284   2280   2309     1  0.0000000  0.6508444  3
   2285   2284   2296   2302     1  0.0000000  0.6508444  3
   2285   2284   2296   2297     1  0.0000000  0.6508444  3
   2285   2284   2296   2298     1  0.0000000  0.6508444  3
   2286   2284   2280   2287     1  0.0000000  0.6508444  3
   2286   2284   2280   2309     1  0.0000000  0.6508444  3
   2286   2284   2296   2302     1  0.0000000  0.6508444  3
   2286   2284   2296   2297     1  0.0000000  0.6508444  3
   2286   2284   2296   2298     1  0.0000000  0.6508444  3
   2287   2290   2299   2300     1  0.0000000  0.6508444  3
   2287   2290   2299   2301     1  0.0000000  0.6508444  3
   2288   2287   2280   2309     1  0.0000000  0.6508444  3
   2288   2287   2290   2299     1  0.0000000  0.6508444  3
   2288   2287   2290   2291     1  0.0000000  0.6508444  3
   2288   2287   2290   2292     1  0.0000000  0.6508444  3
   2289   2287   2280   2309     1  0.0000000  0.6508444  3
   2289   2287   2290   2299     1  0.0000000  0.6508444  3
   2289   2287   2290   2291     1  0.0000000  0.6508444  3
   2289   2287   2290   2292     1  0.0000000  0.6508444  3
   2290   2287   2280   2309     1  0.0000000  0.6508444  3
   2291   2290   2299   2308     1  0.0000000  1.0460000  1
   2291   2290   2299   2308     1  0.0000000  0.0000000  3
   2291   2290   2299   2300     1  0.0000000  0.6508444  3
   2291   2290   2299   2301     1  0.0000000  0.6508444  3
   2292   2290   2299   2308     1  0.0000000  1.0460000  1
   2292   2290   2299   2308     1  0.0000000  0.0000000  3
   2292   2290   2299   2300     1  0.0000000  0.6508444  3
   2292   2290   2299   2301     1  0.0000000  0.6508444  3
   2293   2281   2280   2309     1  0.0000000  0.6508444  3
   2294   2293   2305   4198     1  0.0000000  1.0460000  1
   2294   2293   2305   4198     1  0.0000000  0.0000000  3
   2294   2293   2305   2306     1  0.0000000  0.6508444  3
   2294   2293   2305   2307     1  0.0000000  0.6508444  3
   2295   2293   2305   4198     1  0.0000000  1.0460000  1
   2295   2293   2305   4198     1  0.0000000  0.0000000  3
   2295   2293   2305   2306     1  0.0000000  0.6508444  3
   2295   2293   2305   2307     1  0.0000000  0.6508444  3
   2296   2284   2280   2309     1  0.0000000  0.6508444  3
   2297   2296   2302   4184     1  0.0000000  1.0460000  1
   2297   2296   2302   4184     1  0.0000000  0.0000000  3
   2297   2296   2302   2303     1  0.0000000  0.6508444  3
   2297   2296   2302   2304     1  0.0000000  0.6508444  3
   2298   2296   2302   4184     1  0.0000000  1.0460000  1
   2298   2296   2302   4184     1  0.0000000  0.0000000  3
   2298   2296   2302   2303     1  0.0000000  0.6508444  3
   2298   2296   2302   2304     1  0.0000000  0.6508444  3
   2302   4184   4178   4179     1  0.0000000  1.6038667  3
   2302   4184   4178   4180     1  0.0000000  1.6038667  3
   2303   2302   4184   4178     1  0.0000000  1.6038667  3
   2304   2302   4184   4178     1  0.0000000  1.6038667  3
   2305   4198   4192   4193     1  0.0000000  1.6038667  3
   2305   4198   4192   4194     1  0.0000000  1.6038667  3
   2306   2305   4198   4192     1  0.0000000  1.6038667  3
   2307   2305   4198   4192     1  0.0000000  1.6038667  3
   2310   2311   2323   2324     1  0.0000000  0.6508444  3
   2310   2311   2323   2325     1  0.0000000  0.6508444  3
   2310   2314   2326   2327     1  0.0000000  0.6508444  3
   2310   2314   2326   2328     1  0.0000000  0.6508444  3
   2310   2317   2320   2321     1  0.0000000  0.6508444  3
   2310   2317   2320   2322     1  0.0000000  0.6508444  3
   2311   2310   2314   2315     1  0.0000000  0.6508444  3
   2311   2310   2314   2316     1  0.0000000  0.6508444  3
   2311   2310   2317   2318     1  0.0000000  0.6508444  3
   2311   2310   2317   2319     1  0.0000000  0.6508444  3
   2311   2323   2335   2336     1  0.0000000  0.6508444  3
   2311   2323   2335   2337     1  0.0000000  0.6508444  3
   2312   2311   2310   2314     1  0.0000000  0.6508444  3
   2312   2311   2310   2317     1  0.0000000  0.6508444  3
   2312   2311   2310   2339     1  0.0000000  0.6508444  3
   2312   2311   2323   2335     1  0.0000000  0.6508444  3
   2312   2311   2323   2324     1  0.0000000  0.6508444  3
   2312   2311   2323   2325     1  0.0000000  0.6508444  3
   2313   2311   2310   2314     1  0.0000000  0.6508444  3
   2313   2311   2310   2317     1  0.0000000  0.6508444  3
   2313   2311   2310   2339     1  0.0000000  0.6508444  3
   2313   2311   2323   2335     1  0.0000000  0.6508444  3
   2313   2311   2323   2324     1  0.0000000  0.6508444  3
   2313   2311   2323   2325     1  0.0000000  0.6508444  3
   2314   2310   2317   2318     1  0.0000000  0.6508444  3
   2314   2310   2317   2319     1  0.0000000  0.6508444  3
   2314   2326   2332   2333     1  0.0000000  0.6508444  3
   2314   2326   2332   2334     1  0.0000000  0.6508444  3
   2315   2314   2310   2317     1  0.0000000  0.6508444  3
   2315   2314   2310   2339     1  0.0000000  0.6508444  3
   2315   2314   2326   2332     1  0.0000000  0.6508444  3
   2315   2314   2326   2327     1  0.0000000  0.6508444  3
   2315   2314   2326   2328     1  0.0000000  0.6508444  3
   2316   2314   2310   2317     1  0.0000000  0.6508444  3
   2316   2314   2310   2339     1  0.0000000  0.6508444  3
   2316   2314   2326   2332     1  0.0000000  0.6508444  3
   2316   2314   2326   2327     1  0.0000000  0.6508444  3
   2316   2314   2326   2328     1  0.0000000  0.6508444  3
   2317   2320   2329   2330     1  0.0000000  0.6508444  3
   2317   2320   2329   2331     1  0.0000000  0.6508444  3
   2318   2317   2310   2339     1  0.0000000  0.6508444  3
   2318   2317   2320   2329     1  0.0000000  0.6508444  3
   2318   2317   2320   2321     1  0.0000000  0.6508444  3
   2318   2317   2320   2322     1  0.0000000  0.6508444  3
   2319   2317   2310   2339     1  0.0000000  0.6508444  3
   2319   2317   2320   2329     1  0.0000000  0.6508444  3
   2319   2317   2320   2321     1  0.0000000  0.6508444  3
   2319   2317   2320   2322     1  0.0000000  0.6508444  3
   2320   2317   2310   2339     1  0.0000000  0.6508444  3
   2321   2320   2329   2338     1  0.0000000  1.0460000  1
   2321   2320   2329   2338     1  0.0000000  0.0000000  3
   2321   2320   2329   2330     1  0.0000000  0.6508444  3
   2321   2320   2329   2331     1  0.0000000  0.6508444  3
   2322   2320   2329   2338     1  0.0000000  1.0460000  1
   2322   2320   2329   2338     1  0.0000000  0.0000000  3
   2322   2320   2329   2330     1  0.0000000  0.6508444  3
   2322   2320   2329   2331     1  0.0000000  0.6508444  3
   2323   2311   2310   2339     1  0.0000000  0.6508444  3
   2324   2323   2335   4226     1  0.0000000  1.0460000  1
   2324   2323   2335   4226     1  0.0000000  0.0000000  3
   2324   2323   2335   2336     1  0.0000000  0.6508444  3
   2324   2323   2335   2337     1  0.0000000  0.6508444  3
   2325   2323   2335   4226     1  0.0000000  1.0460000  1
   2325   2323   2335   4226     1  0.0000000  0.0000000  3
   2325   2323   2335   2336     1  0.0000000  0.6508444  3
   2325   2323   2335   2337     1  0.0000000  0.6508444  3
   2326   2314   2310   2339     1  0.0000000  0.6508444  3
   2327   2326   2332   4212     1  0.0000000  1.0460000  1
   2327   2326   2332   4212     1  0.0000000  0.0000000  3
   2327   2326   2332   2333     1  0.0000000  0.6508444  3
   2327   2326   2332   2334     1  0.0000000  0.6508444  3
   2328   2326   2332   4212     1  0.0000000  1.0460000  1
   2328   2326   2332   4212     1  0.0000000  0.0000000  3
   2328   2326   2332   2333     1  0.0000000  0.6508444  3
   2328   2326   2332   2334     1  0.0000000  0.6508444  3
   2332   4212   4206   4207     1  0.0000000  1.6038667  3
   2332   4212   4206   4208     1  0.0000000  1.6038667  3
   2333   2332   4212   4206     1  0.0000000  1.6038667  3
   2334   2332   4212   4206     1  0.0000000  1.6038667  3
   2335   4226   4220   4221     1  0.0000000  1.6038667  3
   2335   4226   4220   4222     1  0.0000000  1.6038667  3
   2336   2335   4226   4220     1  0.0000000  1.6038667  3
   2337   2335   4226   4220     1  0.0000000  1.6038667  3
   2340   2341   2353   2354     1  0.0000000  0.6508444  3
   2340   2341   2353   2355     1  0.0000000  0.6508444  3
   2340   2344   2356   2357     1  0.0000000  0.6508444  3
   2340   2344   2356   2358     1  0.0000000  0.6508444  3
   2340   2347   2350   2351     1  0.0000000  0.6508444  3
   2340   2347   2350   2352     1  0.0000000  0.6508444  3
   2341   2340   2344   2345     1  0.0000000  0.6508444  3
   2341   2340   2344   2346     1  0.0000000  0.6508444  3
   2341   2340   2347   2348     1  0.0000000  0.6508444  3
   2341   2340   2347   2349     1  0.0000000  0.6508444  3
   2341   2353   2365   2366     1  0.0000000  0.6508444  3
   2341   2353   2365   2367     1  0.0000000  0.6508444  3
   2342   2341   2340   2344     1  0.0000000  0.6508444  3
   2342   2341   2340   2347     1  0.0000000  0.6508444  3
   2342   2341   2340   2369     1  0.0000000  0.6508444  3
   2342   2341   2353   2365     1  0.0000000  0.6508444  3
   2342   2341   2353   2354     1  0.0000000  0.6508444  3
   2342   2341   2353   2355     1  0.0000000  0.6508444  3
   2343   2341   2340   2344     1  0.0000000  0.6508444  3
   2343   2341   2340   2347     1  0.0000000  0.6508444  3
   2343   2341   2340   2369     1  0.0000000  0.6508444  3
   2343   2341   2353   2365     1  0.0000000  0.6508444  3
   2343   2341   2353   2354     1  0.0000000  0.6508444  3
   2343   2341   2353   2355     1  0.0000000  0.6508444  3
   2344   2340   2347   2348     1  0.0000000  0.6508444  3
   2344   2340   2347   2349     1  0.0000000  0.6508444  3
   2344   2356   2362   2363     1  0.0000000  0.6508444  3
   2344   2356   2362   2364     1  0.0000000  0.6508444  3
   2345   2344   2340   2347     1  0.0000000  0.6508444  3
   2345   2344   2340   2369     1  0.0000000  0.6508444  3
   2345   2344   2356   2362     1  0.0000000  0.6508444  3
   2345   2344   2356   2357     1  0.0000000  0.6508444  3
   2345   2344   2356   2358     1  0.0000000  0.6508444  3
   2346   2344   2340   2347     1  0.0000000  0.6508444  3
   2346   2344   2340   2369     1  0.0000000  0.6508444  3
   2346   2344   2356   2362     1  0.0000000  0.6508444  3
   2346   2344   2356   2357     1  0.0000000  0.6508444  3
   2346   2344   2356   2358     1  0.0000000  0.6508444  3
   2347   2350   2359   2360     1  0.0000000  0.6508444  3
   2347   2350   2359   2361     1  0.0000000  0.6508444  3
   2348   2347   2340   2369     1  0.0000000  0.6508444  3
   2348   2347   2350   2359     1  0.0000000  0.6508444  3
   2348   2347   2350   2351     1  0.0000000  0.6508444  3
   2348   2347   2350   2352     1  0.0000000  0.6508444  3
   2349   2347   2340   2369     1  0.0000000  0.6508444  3
   2349   2347   2350   2359     1  0.0000000  0.6508444  3
   2349   2347   2350   2351     1  0.0000000  0.6508444  3
   2349   2347   2350   2352     1  0.0000000  0.6508444  3
   2350   2347   2340   2369     1  0.0000000  0.6508444  3
   2351   2350   2359   2368     1  0.0000000  1.0460000  1
   2351   2350   2359   2368     1  0.0000000  0.0000000  3
   2351   2350   2359   2360     1  0.0000000  0.6508444  3
   2351   2350   2359   2361     1  0.0000000  0.6508444  3
   2352   2350   2359   2368     1  0.0000000  1.0460000  1
   2352   2350   2359   2368     1  0.0000000  0.0000000  3
   2352   2350   2359   2360     1  0.0000000  0.6508444  3
   2352   2350   2359   2361     1  0.0000000  0.6508444  3
   2353   2341   2340   2369     1  0.0000000  0.6508444  3
   2354   2353   2365   4254     1  0.0000000  1.0460000  1
   2354   2353   2365   4254     1  0.0000000  0.0000000  3
   2354   2353   2365   2366     1  0.0000000  0.6508444  3
   2354   2353   2365   2367     1  0.0000000  0.6508444  3
   2355   2353   2365   4254     1  0.0000000  1.0460000  1
   2355   2353   2365   4254     1  0.0000000  0.0000000  3
   2355   2353   2365   2366     1  0.0000000  0.6508444  3
   2355   2353   2365   2367     1  0.0000000  0.6508444  3
   2356   2344   2340   2369     1  0.0000000  0.6508444  3
   2357   2356   2362   4240     1  0.0000000  1.0460000  1
   2357   2356   2362   4240     1  0.0000000  0.0000000  3
   2357   2356   2362   2363     1  0.0000000  0.6508444  3
   2357   2356   2362   2364     1  0.0000000  0.6508444  3
   2358   2356   2362   4240     1  0.0000000  1.0460000  1
   2358   2356   2362   4240     1  0.0000000  0.0000000  3
   2358   2356   2362   2363     1  0.0000000  0.6508444  3
   2358   2356   2362   2364     1  0.0000000  0.6508444  3
   2362   4240   4234   4235     1  0.0000000  1.6038667  3
   2362   4240   4234   4236     1  0.0000000  1.6038667  3
   2363   2362   4240   4234     1  0.0000000  1.6038667  3
   2364   2362   4240   4234     1  0.0000000  1.6038667  3
   2365   4254   4248   4249     1  0.0000000  1.6038667  3
   2365   4254   4248   4250     1  0.0000000  1.6038667  3
   2366   2365   4254   4248     1  0.0000000  1.6038667  3
   2367   2365   4254   4248     1  0.0000000  1.6038667  3
   2370   2371   2383   2384     1  0.0000000  0.6508444  3
   2370   2371   2383   2385     1  0.0000000  0.6508444  3
   2370   2374   2386   2387     1  0.0000000  0.6508444  3
   2370   2374   2386   2388     1  0.0000000  0.6508444  3
   2370   2377   2380   2381     1  0.0000000  0.6508444  3
   2370   2377   2380   2382     1  0.0000000  0.6508444  3
   2371   2370   2374   2375     1  0.0000000  0.6508444  3
   2371   2370   2374   2376     1  0.0000000  0.6508444  3
   2371   2370   2377   2378     1  0.0000000  0.6508444  3
   2371   2370   2377   2379     1  0.0000000  0.6508444  3
   2371   2383   2395   2396     1  0.0000000  0.6508444  3
   2371   2383   2395   2397     1  0.0000000  0.6508444  3
   2372   2371   2370   2374     1  0.0000000  0.6508444  3
   2372   2371   2370   2377     1  0.0000000  0.6508444  3
   2372   2371   2370   2399     1  0.0000000  0.6508444  3
   2372   2371   2383   2395     1  0.0000000  0.6508444  3
   2372   2371   2383   2384     1  0.0000000  0.6508444  3
   2372   2371   2383   2385     1  0.0000000  0.6508444  3
   2373   2371   2370   2374     1  0.0000000  0.6508444  3
   2373   2371   2370   2377     1  0.0000000  0.6508444  3
   2373   2371   2370   2399     1  0.0000000  0.6508444  3
   2373   2371   2383   2395     1  0.0000000  0.6508444  3
   2373   2371   2383   2384     1  0.0000000  0.6508444  3
   2373   2371   2383   2385     1  0.0000000  0.6508444  3
   2374   2370   2377   2378     1  0.0000000  0.6508444  3
   2374   2370   2377   2379     1  0.0000000  0.6508444  3
   2374   2386   2392   2393     1  0.0000000  0.6508444  3
   2374   2386   2392   2394     1  0.0000000  0.6508444  3
   2375   2374   2370   2377     1  0.0000000  0.6508444  3
   2375   2374   2370   2399     1  0.0000000  0.6508444  3
   2375   2374   2386   2392     1  0.0000000  0.6508444  3
   2375   2374   2386   2387     1  0.0000000  0.6508444  3
   2375   2374   2386   2388     1  0.0000000  0.6508444  3
   2376   2374   2370   2377     1  0.0000000  0.6508444  3
   2376   2374   2370   2399     1  0.0000000  0.6508444  3
   2376   2374   2386   2392     1  0.0000000  0.6508444  3
   2376   2374   2386   2387     1  0.0000000  0.6508444  3
   2376   2374   2386   2388     1  0.0000000  0.6508444  3
   2377   2380   2389   2390     1  0.0000000  0.6508444  3
   2377   2380   2389   2391     1  0.0000000  0.6508444  3
   2378   2377   2370   2399     1  0.0000000  0.6508444  3
   2378   2377   2380   2389     1  0.0000000  0.6508444  3
   2378   2377   2380   2381     1  0.0000000  0.6508444  3
   2378   2377   2380   2382     1  0.0000000  0.6508444  3
   2379   2377   2370   2399     1  0.0000000  0.6508444  3
   2379   2377   2380   2389     1  0.0000000  0.6508444  3
   2379   2377   2380   2381     1  0.0000000  0.6508444  3
   2379   2377   2380   2382     1  0.0000000  0.6508444  3
   2380   2377   2370   2399     1  0.0000000  0.6508444  3
   2381   2380   2389   2398     1  0.0000000  1.0460000  1
   2381   2380   2389   2398     1  0.0000000  0.0000000  3
   2381   2380   2389   2390     1  0.0000000  0.6508444  3
   2381   2380   2389   2391     1  0.0000000  0.6508444  3
   2382   2380   2389   2398     1  0.0000000  1.0460000  1
   2382   2380   2389   2398     1  0.0000000  0.0000000  3
   2382   2380   2389   2390     1  0.0000000  0.6508444  3
   2382   2380   2389   2391     1  0.0000000  0.6508444  3
   2383   2371   2370   2399     1  0.0000000  0.6508444  3
   2384   2383   2395   4282     1  0.0000000  1.0460000  1
   2384   2383   2395   4282     1  0.0000000  0.0000000  3
   2384   2383   2395   2396     1  0.0000000  0.6508444  3
   2384   2383   2395   2397     1  0.0000000  0.6508444  3
   2385   2383   2395   4282     1  0.0000000  1.0460000  1
   2385   2383   2395   4282     1  0.0000000  0.0000000  3
   2385   2383   2395   2396     1  0.0000000  0.6508444  3
   2385   2383   2395   2397     1  0.0000000  0.6508444  3
   2386   2374   2370   2399     1  0.0000000  0.6508444  3
   2387   2386   2392   4268     1  0.0000000  1.0460000  1
   2387   2386   2392   4268     1  0.0000000  0.0000000  3
   2387   2386   2392   2393     1  0.0000000  0.6508444  3
   2387   2386   2392   2394     1  0.0000000  0.6508444  3
   2388   2386   2392   4268     1  0.0000000  1.0460000  1
   2388   2386   2392   4268     1  0.0000000  0.0000000  3
   2388   2386   2392   2393     1  0.0000000  0.6508444  3
   2388   2386   2392   2394     1  0.0000000  0.6508444  3
   2392   4268   4262   4263     1  0.0000000  1.6038667  3
   2392   4268   4262   4264     1  0.0000000  1.6038667  3
   2393   2392   4268   4262     1  0.0000000  1.6038667  3
   2394   2392   4268   4262     1  0.0000000  1.6038667  3
   2395   4282   4276   4277     1  0.0000000  1.6038667  3
   2395   4282   4276   4278     1  0.0000000  1.6038667  3
   2396   2395   4282   4276     1  0.0000000  1.6038667  3
   2397   2395   4282   4276     1  0.0000000  1.6038667  3
   2400   2401   2413   2414     1  0.0000000  0.6508444  3
   2400   2401   2413   2415     1  0.0000000  0.6508444  3
   2400   2404   2416   2417     1  0.0000000  0.6508444  3
   2400   2404   2416   2418     1  0.0000000  0.6508444  3
   2400   2407   2410   2411     1  0.0000000  0.6508444  3
   2400   2407   2410   2412     1  0.0000000  0.6508444  3
   2401   2400   2404   2405     1  0.0000000  0.6508444  3
   2401   2400   2404   2406     1  0.0000000  0.6508444  3
   2401   2400   2407   2408     1  0.0000000  0.6508444  3
   2401   2400   2407   2409     1  0.0000000  0.6508444  3
   2401   2413   2425   2426     1  0.0000000  0.6508444  3
   2401   2413   2425   2427     1  0.0000000  0.6508444  3
   2402   2401   2400   2404     1  0.0000000  0.6508444  3
   2402   2401   2400   2407     1  0.0000000  0.6508444  3
   2402   2401   2400   2429     1  0.0000000  0.6508444  3
   2402   2401   2413   2425     1  0.0000000  0.6508444  3
   2402   2401   2413   2414     1  0.0000000  0.6508444  3
   2402   2401   2413   2415     1  0.0000000  0.6508444  3
   2403   2401   2400   2404     1  0.0000000  0.6508444  3
   2403   2401   2400   2407     1  0.0000000  0.6508444  3
   2403   2401   2400   2429     1  0.0000000  0.6508444  3
   2403   2401   2413   2425     1  0.0000000  0.6508444  3
   2403   2401   2413   2414     1  0.0000000  0.6508444  3
   2403   2401   2413   2415     1  0.0000000  0.6508444  3
   2404   2400   2407   2408     1  0.0000000  0.6508444  3
   2404   2400   2407   2409     1  0.0000000  0.6508444  3
   2404   2416   2422   2423     1  0.0000000  0.6508444  3
   2404   2416   2422   2424     1  0.0000000  0.6508444  3
   2405   2404   2400   2407     1  0.0000000  0.6508444  3
   2405   2404   2400   2429     1  0.0000000  0.6508444  3
   2405   2404   2416   2422     1  0.0000000  0.6508444  3
   2405   2404   2416   2417     1  0.0000000  0.6508444  3
   2405   2404   2416   2418     1  0.0000000  0.6508444  3
   2406   2404   2400   2407     1  0.0000000  0.6508444  3
   2406   2404   2400   2429     1  0.0000000  0.6508444  3
   2406   2404   2416   2422     1  0.0000000  0.6508444  3
   2406   2404   2416   2417     1  0.0000000  0.6508444  3
   2406   2404   2416   2418     1  0.0000000  0.6508444  3
   2407   2410   2419   2420     1  0.0000000  0.6508444  3
   2407   2410   2419   2421     1  0.0000000  0.6508444  3
   2408   2407   2400   2429     1  0.0000000  0.6508444  3
   2408   2407   2410   2419     1  0.0000000  0.6508444  3
   2408   2407   2410   2411     1  0.0000000  0.6508444  3
   2408   2407   2410   2412     1  0.0000000  0.6508444  3
   2409   2407   2400   2429     1  0.0000000  0.6508444  3
   2409   2407   2410   2419     1  0.0000000  0.6508444  3
   2409   2407   2410   2411     1  0.0000000  0.6508444  3
   2409   2407   2410   2412     1  0.0000000  0.6508444  3
   2410   2407   2400   2429     1  0.0000000  0.6508444  3
   2411   2410   2419   2428     1  0.0000000  1.0460000  1
   2411   2410   2419   2428     1  0.0000000  0.0000000  3
   2411   2410   2419   2420     1  0.0000000  0.6508444  3
   2411   2410   2419   2421     1  0.0000000  0.6508444  3
   2412   2410   2419   2428     1  0.0000000  1.0460000  1
   2412   2410   2419   2428     1  0.0000000  0.0000000  3
   2412   2410   2419   2420     1  0.0000000  0.6508444  3
   2412   2410   2419   2421     1  0.0000000  0.6508444  3
   2413   2401   2400   2429     1  0.0000000  0.6508444  3
   2414   2413   2425   4310     1  0.0000000  1.0460000  1
   2414   2413   2425   4310     1  0.0000000  0.0000000  3
   2414   2413   2425   2426     1  0.0000000  0.6508444  3
   2414   2413   2425   2427     1  0.0000000  0.6508444  3
   2415   2413   2425   4310     1  0.0000000  1.0460000  1
   2415   2413   2425   4310     1  0.0000000  0.0000000  3
   2415   2413   2425   2426     1  0.0000000  0.6508444  3
   2415   2413   2425   2427     1  0.0000000  0.6508444  3
   2416   2404   2400   2429     1  0.0000000  0.6508444  3
   2417   2416   2422   4296     1  0.0000000  1.0460000  1
   2417   2416   2422   4296     1  0.0000000  0.0000000  3
   2417   2416   2422   2423     1  0.0000000  0.6508444  3
   2417   2416   2422   2424     1  0.0000000  0.6508444  3
   2418   2416   2422   4296     1  0.0000000  1.0460000  1
   2418   2416   2422   4296     1  0.0000000  0.0000000  3
   2418   2416   2422   2423     1  0.0000000  0.6508444  3
   2418   2416   2422   2424     1  0.0000000  0.6508444  3
   2422   4296   4290   4291     1  0.0000000  1.6038667  3
   2422   4296   4290   4292     1  0.0000000  1.6038667  3
   2423   2422   4296   4290     1  0.0000000  1.6038667  3
   2424   2422   4296   4290     1  0.0000000  1.6038667  3
   2425   4310   4304   4305     1  0.0000000  1.6038667  3
   2425   4310   4304   4306     1  0.0000000  1.6038667  3
   2426   2425   4310   4304     1  0.0000000  1.6038667  3
   2427   2425   4310   4304     1  0.0000000  1.6038667  3
   2430   2431   2443   2444     1  0.0000000  0.6508444  3
   2430   2431   2443   2445     1  0.0000000  0.6508444  3
   2430   2434   2446   2447     1  0.0000000  0.6508444  3
   2430   2434   2446   2448     1  0.0000000  0.6508444  3
   2430   2437   2440   2441     1  0.0000000  0.6508444  3
   2430   2437   2440   2442     1  0.0000000  0.6508444  3
   2431   2430   2434   2435     1  0.0000000  0.6508444  3
   2431   2430   2434   2436     1  0.0000000  0.6508444  3
   2431   2430   2437   2438     1  0.0000000  0.6508444  3
   2431   2430   2437   2439     1  0.0000000  0.6508444  3
   2431   2443   2455   2456     1  0.0000000  0.6508444  3
   2431   2443   2455   2457     1  0.0000000  0.6508444  3
   2432   2431   2430   2434     1  0.0000000  0.6508444  3
   2432   2431   2430   2437     1  0.0000000  0.6508444  3
   2432   2431   2430   2459     1  0.0000000  0.6508444  3
   2432   2431   2443   2455     1  0.0000000  0.6508444  3
   2432   2431   2443   2444     1  0.0000000  0.6508444  3
   2432   2431   2443   2445     1  0.0000000  0.6508444  3
   2433   2431   2430   2434     1  0.0000000  0.6508444  3
   2433   2431   2430   2437     1  0.0000000  0.6508444  3
   2433   2431   2430   2459     1  0.0000000  0.6508444  3
   2433   2431   2443   2455     1  0.0000000  0.6508444  3
   2433   2431   2443   2444     1  0.0000000  0.6508444  3
   2433   2431   2443   2445     1  0.0000000  0.6508444  3
   2434   2430   2437   2438     1  0.0000000  0.6508444  3
   2434   2430   2437   2439     1  0.0000000  0.6508444  3
   2434   2446   2452   2453     1  0.0000000  0.6508444  3
   2434   2446   2452   2454     1  0.0000000  0.6508444  3
   2435   2434   2430   2437     1  0.0000000  0.6508444  3
   2435   2434   2430   2459     1  0.0000000  0.6508444  3
   2435   2434   2446   2452     1  0.0000000  0.6508444  3
   2435   2434   2446   2447     1  0.0000000  0.6508444  3
   2435   2434   2446   2448     1  0.0000000  0.6508444  3
   2436   2434   2430   2437     1  0.0000000  0.6508444  3
   2436   2434   2430   2459     1  0.0000000  0.6508444  3
   2436   2434   2446   2452     1  0.0000000  0.6508444  3
   2436   2434   2446   2447     1  0.0000000  0.6508444  3
   2436   2434   2446   2448     1  0.0000000  0.6508444  3
   2437   2440   2449   2450     1  0.0000000  0.6508444  3
   2437   2440   2449   2451     1  0.0000000  0.6508444  3
   2438   2437   2430   2459     1  0.0000000  0.6508444  3
   2438   2437   2440   2449     1  0.0000000  0.6508444  3
   2438   2437   2440   2441     1  0.0000000  0.6508444  3
   2438   2437   2440   2442     1  0.0000000  0.6508444  3
   2439   2437   2430   2459     1  0.0000000  0.6508444  3
   2439   2437   2440   2449     1  0.0000000  0.6508444  3
   2439   2437   2440   2441     1  0.0000000  0.6508444  3
   2439   2437   2440   2442     1  0.0000000  0.6508444  3
   2440   2437   2430   2459     1  0.0000000  0.6508444  3
   2441   2440   2449   2458     1  0.0000000  1.0460000  1
   2441   2440   2449   2458     1  0.0000000  0.0000000  3
   2441   2440   2449   2450     1  0.0000000  0.6508444  3
   2441   2440   2449   2451     1  0.0000000  0.6508444  3
   2442   2440   2449   2458     1  0.0000000  1.0460000  1
   2442   2440   2449   2458     1  0.0000000  0.0000000  3
   2442   2440   2449   2450     1  0.0000000  0.6508444  3
   2442   2440   2449   2451     1  0.0000000  0.6508444  3
   2443   2431   2430   2459     1  0.0000000  0.6508444  3
   2444   2443   2455   4338     1  0.0000000  1.0460000  1
   2444   2443   2455   4338     1  0.0000000  0.0000000  3
   2444   2443   2455   2456     1  0.0000000  0.6508444  3
   2444   2443   2455   2457     1  0.0000000  0.6508444  3
   2445   2443   2455   4338     1  0.0000000  1.0460000  1
   2445   2443   2455   4338     1  0.0000000  0.0000000  3
   2445   2443   2455   2456     1  0.0000000  0.6508444  3
   2445   2443   2455   2457     1  0.0000000  0.6508444  3
   2446   2434   2430   2459     1  0.0000000  0.6508444  3
   2447   2446   2452   4324     1  0.0000000  1.0460000  1
   2447   2446   2452   4324     1  0.0000000  0.0000000  3
   2447   2446   2452   2453     1  0.0000000  0.6508444  3
   2447   2446   2452   2454     1  0.0000000  0.6508444  3
   2448   2446   2452   4324     1  0.0000000  1.0460000  1
   2448   2446   2452   4324     1  0.0000000  0.0000000  3
   2448   2446   2452   2453     1  0.0000000  0.6508444  3
   2448   2446   2452   2454     1  0.0000000  0.6508444  3
   2452   4324   4318   4319     1  0.0000000  1.6038667  3
   2452   4324   4318   4320     1  0.0000000  1.6038667  3
   2453   2452   4324   4318     1  0.0000000  1.6038667  3
   2454   2452   4324   4318     1  0.0000000  1.6038667  3
   2455   4338   4332   4333     1  0.0000000  1.6038667  3
   2455   4338   4332   4334     1  0.0000000  1.6038667  3
   2456   2455   4338   4332     1  0.0000000  1.6038667  3
   2457   2455   4338   4332     1  0.0000000  1.6038667  3
   2460   2461   2473   2474     1  0.0000000  0.6508444  3
   2460   2461   2473   2475     1  0.0000000  0.6508444  3
   2460   2464   2476   2477     1  0.0000000  0.6508444  3
   2460   2464   2476   2478     1  0.0000000  0.6508444  3
   2460   2467   2470   2471     1  0.0000000  0.6508444  3
   2460   2467   2470   2472     1  0.0000000  0.6508444  3
   2461   2460   2464   2465     1  0.0000000  0.6508444  3
   2461   2460   2464   2466     1  0.0000000  0.6508444  3
   2461   2460   2467   2468     1  0.0000000  0.6508444  3
   2461   2460   2467   2469     1  0.0000000  0.6508444  3
   2461   2473   2485   2486     1  0.0000000  0.6508444  3
   2461   2473   2485   2487     1  0.0000000  0.6508444  3
   2462   2461   2460   2464     1  0.0000000  0.6508444  3
   2462   2461   2460   2467     1  0.0000000  0.6508444  3
   2462   2461   2460   2489     1  0.0000000  0.6508444  3
   2462   2461   2473   2485     1  0.0000000  0.6508444  3
   2462   2461   2473   2474     1  0.0000000  0.6508444  3
   2462   2461   2473   2475     1  0.0000000  0.6508444  3
   2463   2461   2460   2464     1  0.0000000  0.6508444  3
   2463   2461   2460   2467     1  0.0000000  0.6508444  3
   2463   2461   2460   2489     1  0.0000000  0.6508444  3
   2463   2461   2473   2485     1  0.0000000  0.6508444  3
   2463   2461   2473   2474     1  0.0000000  0.6508444  3
   2463   2461   2473   2475     1  0.0000000  0.6508444  3
   2464   2460   2467   2468     1  0.0000000  0.6508444  3
   2464   2460   2467   2469     1  0.0000000  0.6508444  3
   2464   2476   2482   2483     1  0.0000000  0.6508444  3
   2464   2476   2482   2484     1  0.0000000  0.6508444  3
   2465   2464   2460   2467     1  0.0000000  0.6508444  3
   2465   2464   2460   2489     1  0.0000000  0.6508444  3
   2465   2464   2476   2482     1  0.0000000  0.6508444  3
   2465   2464   2476   2477     1  0.0000000  0.6508444  3
   2465   2464   2476   2478     1  0.0000000  0.6508444  3
   2466   2464   2460   2467     1  0.0000000  0.6508444  3
   2466   2464   2460   2489     1  0.0000000  0.6508444  3
   2466   2464   2476   2482     1  0.0000000  0.6508444  3
   2466   2464   2476   2477     1  0.0000000  0.6508444  3
   2466   2464   2476   2478     1  0.0000000  0.6508444  3
   2467   2470   2479   2480     1  0.0000000  0.6508444  3
   2467   2470   2479   2481     1  0.0000000  0.6508444  3
   2468   2467   2460   2489     1  0.0000000  0.6508444  3
   2468   2467   2470   2479     1  0.0000000  0.6508444  3
   2468   2467   2470   2471     1  0.0000000  0.6508444  3
   2468   2467   2470   2472     1  0.0000000  0.6508444  3
   2469   2467   2460   2489     1  0.0000000  0.6508444  3
   2469   2467   2470   2479     1  0.0000000  0.6508444  3
   2469   2467   2470   2471     1  0.0000000  0.6508444  3
   2469   2467   2470   2472     1  0.0000000  0.6508444  3
   2470   2467   2460   2489     1  0.0000000  0.6508444  3
   2471   2470   2479   2488     1  0.0000000  1.0460000  1
   2471   2470   2479   2488     1  0.0000000  0.0000000  3
   2471   2470   2479   2480     1  0.0000000  0.6508444  3
   2471   2470   2479   2481     1  0.0000000  0.6508444  3
   2472   2470   2479   2488     1  0.0000000  1.0460000  1
   2472   2470   2479   2488     1  0.0000000  0.0000000  3
   2472   2470   2479   2480     1  0.0000000  0.6508444  3
   2472   2470   2479   2481     1  0.0000000  0.6508444  3
   2473   2461   2460   2489     1  0.0000000  0.6508444  3
   2474   2473   2485   4366     1  0.0000000  1.0460000  1
   2474   2473   2485   4366     1  0.0000000  0.0000000  3
   2474   2473   2485   2486     1  0.0000000  0.6508444  3
   2474   2473   2485   2487     1  0.0000000  0.6508444  3
   2475   2473   2485   4366     1  0.0000000  1.0460000  1
   2475   2473   2485   4366     1  0.0000000  0.0000000  3
   2475   2473   2485   2486     1  0.0000000  0.6508444  3
   2475   2473   2485   2487     1  0.0000000  0.6508444  3
   2476   2464   2460   2489     1  0.0000000  0.6508444  3
   2477   2476   2482   4352     1  0.0000000  1.0460000  1
   2477   2476   2482   4352     1  0.0000000  0.0000000  3
   2477   2476   2482   2483     1  0.0000000  0.6508444  3
   2477   2476   2482   2484     1  0.0000000  0.6508444  3
   2478   2476   2482   4352     1  0.0000000  1.0460000  1
   2478   2476   2482   4352     1  0.0000000  0.0000000  3
   2478   2476   2482   2483     1  0.0000000  0.6508444  3
   2478   2476   2482   2484     1  0.0000000  0.6508444  3
   2482   4352   4346   4347     1  0.0000000  1.6038667  3
   2482   4352   4346   4348     1  0.0000000  1.6038667  3
   2483   2482   4352   4346     1  0.0000000  1.6038667  3
   2484   2482   4352   4346     1  0.0000000  1.6038667  3
   2485   4366   4360   4361     1  0.0000000  1.6038667  3
   2485   4366   4360   4362     1  0.0000000  1.6038667  3
   2486   2485   4366   4360     1  0.0000000  1.6038667  3
   2487   2485   4366   4360     1  0.0000000  1.6038667  3
   2490   2491   2503   2504     1  0.0000000  0.6508444  3
   2490   2491   2503   2505     1  0.0000000  0.6508444  3
   2490   2494   2506   2507     1  0.0000000  0.6508444  3
   2490   2494   2506   2508     1  0.0000000  0.6508444  3
   2490   2497   2500   2501     1  0.0000000  0.6508444  3
   2490   2497   2500   2502     1  0.0000000  0.6508444  3
   2491   2490   2494   2495     1  0.0000000  0.6508444  3
   2491   2490   2494   2496     1  0.0000000  0.6508444  3
   2491   2490   2497   2498     1  0.0000000  0.6508444  3
   2491   2490   2497   2499     1  0.0000000  0.6508444  3
   2491   2503   2515   2516     1  0.0000000  0.6508444  3
   2491   2503   2515   2517     1  0.0000000  0.6508444  3
   2492   2491   2490   2494     1  0.0000000  0.6508444  3
   2492   2491   2490   2497     1  0.0000000  0.6508444  3
   2492   2491   2490   2519     1  0.0000000  0.6508444  3
   2492   2491   2503   2515     1  0.0000000  0.6508444  3
   2492   2491   2503   2504     1  0.0000000  0.6508444  3
   2492   2491   2503   2505     1  0.0000000  0.6508444  3
   2493   2491   2490   2494     1  0.0000000  0.6508444  3
   2493   2491   2490   2497     1  0.0000000  0.6508444  3
   2493   2491   2490   2519     1  0.0000000  0.6508444  3
   2493   2491   2503   2515     1  0.0000000  0.6508444  3
   2493   2491   2503   2504     1  0.0000000  0.6508444  3
   2493   2491   2503   2505     1  0.0000000  0.6508444  3
   2494   2490   2497   2498     1  0.0000000  0.6508444  3
   2494   2490   2497   2499     1  0.0000000  0.6508444  3
   2494   2506   2512   2513     1  0.0000000  0.6508444  3
   2494   2506   2512   2514     1  0.0000000  0.6508444  3
   2495   2494   2490   2497     1  0.0000000  0.6508444  3
   2495   2494   2490   2519     1  0.0000000  0.6508444  3
   2495   2494   2506   2512     1  0.0000000  0.6508444  3
   2495   2494   2506   2507     1  0.0000000  0.6508444  3
   2495   2494   2506   2508     1  0.0000000  0.6508444  3
   2496   2494   2490   2497     1  0.0000000  0.6508444  3
   2496   2494   2490   2519     1  0.0000000  0.6508444  3
   2496   2494   2506   2512     1  0.0000000  0.6508444  3
   2496   2494   2506   2507     1  0.0000000  0.6508444  3
   2496   2494   2506   2508     1  0.0000000  0.6508444  3
   2497   2500   2509   2510     1  0.0000000  0.6508444  3
   2497   2500   2509   2511     1  0.0000000  0.6508444  3
   2498   2497   2490   2519     1  0.0000000  0.6508444  3
   2498   2497   2500   2509     1  0.0000000  0.6508444  3
   2498   2497   2500   2501     1  0.0000000  0.6508444  3
   2498   2497   2500   2502     1  0.0000000  0.6508444  3
   2499   2497   2490   2519     1  0.0000000  0.6508444  3
   2499   2497   2500   2509     1  0.0000000  0.6508444  3
   2499   2497   2500   2501     1  0.0000000  0.6508444  3
   2499   2497   2500   2502     1  0.0000000  0.6508444  3
   2500   2497   2490   2519     1  0.0000000  0.6508444  3
   2501   2500   2509   2518     1  0.0000000  1.0460000  1
   2501   2500   2509   2518     1  0.0000000  0.0000000  3
   2501   2500   2509   2510     1  0.0000000  0.6508444  3
   2501   2500   2509   2511     1  0.0000000  0.6508444  3
   2502   2500   2509   2518     1  0.0000000  1.0460000  1
   2502   2500   2509   2518     1  0.0000000  0.0000000  3
   2502   2500   2509   2510     1  0.0000000  0.6508444  3
   2502   2500   2509   2511     1  0.0000000  0.6508444  3
   2503   2491   2490   2519     1  0.0000000  0.6508444  3
   2504   2503   2515   4394     1  0.0000000  1.0460000  1
   2504   2503   2515   4394     1  0.0000000  0.0000000  3
   2504   2503   2515   2516     1  0.0000000  0.6508444  3
   2504   2503   2515   2517     1  0.0000000  0.6508444  3
   2505   2503   2515   4394     1  0.0000000  1.0460000  1
   2505   2503   2515   4394     1  0.0000000  0.0000000  3
   2505   2503   2515   2516     1  0.0000000  0.6508444  3
   2505   2503   2515   2517     1  0.0000000  0.6508444  3
   2506   2494   2490   2519     1  0.0000000  0.6508444  3
   2507   2506   2512   4380     1  0.0000000  1.0460000  1
   2507   2506   2512   4380     1  0.0000000  0.0000000  3
   2507   2506   2512   2513     1  0.0000000  0.6508444  3
   2507   2506   2512   2514     1  0.0000000  0.6508444  3
   2508   2506   2512   4380     1  0.0000000  1.0460000  1
   2508   2506   2512   4380     1  0.0000000  0.0000000  3
   2508   2506   2512   2513     1  0.0000000  0.6508444  3
   2508   2506   2512   2514     1  0.0000000  0.6508444  3
   2512   4380   4374   4375     1  0.0000000  1.6038667  3
   2512   4380   4374   4376     1  0.0000000  1.6038667  3
   2513   2512   4380   4374     1  0.0000000  1.6038667  3
   2514   2512   4380   4374     1  0.0000000  1.6038667  3
   2515   4394   4388   4389     1  0.0000000  1.6038667  3
   2515   4394   4388   4390     1  0.0000000  1.6038667  3
   2516   2515   4394   4388     1  0.0000000  1.6038667  3
   2517   2515   4394   4388     1  0.0000000  1.6038667  3
   2520   2521   2533   2534     1  0.0000000  0.6508444  3
   2520   2521   2533   2535     1  0.0000000  0.6508444  3
   2520   2524   2536   2537     1  0.0000000  0.6508444  3
   2520   2524   2536   2538     1  0.0000000  0.6508444  3
   2520   2527   2530   2531     1  0.0000000  0.6508444  3
   2520   2527   2530   2532     1  0.0000000  0.6508444  3
   2521   2520   2524   2525     1  0.0000000  0.6508444  3
   2521   2520   2524   2526     1  0.0000000  0.6508444  3
   2521   2520   2527   2528     1  0.0000000  0.6508444  3
   2521   2520   2527   2529     1  0.0000000  0.6508444  3
   2521   2533   2545   2546     1  0.0000000  0.6508444  3
   2521   2533   2545   2547     1  0.0000000  0.6508444  3
   2522   2521   2520   2524     1  0.0000000  0.6508444  3
   2522   2521   2520   2527     1  0.0000000  0.6508444  3
   2522   2521   2520   2549     1  0.0000000  0.6508444  3
   2522   2521   2533   2545     1  0.0000000  0.6508444  3
   2522   2521   2533   2534     1  0.0000000  0.6508444  3
   2522   2521   2533   2535     1  0.0000000  0.6508444  3
   2523   2521   2520   2524     1  0.0000000  0.6508444  3
   2523   2521   2520   2527     1  0.0000000  0.6508444  3
   2523   2521   2520   2549     1  0.0000000  0.6508444  3
   2523   2521   2533   2545     1  0.0000000  0.6508444  3
   2523   2521   2533   2534     1  0.0000000  0.6508444  3
   2523   2521   2533   2535     1  0.0000000  0.6508444  3
   2524   2520   2527   2528     1  0.0000000  0.6508444  3
   2524   2520   2527   2529     1  0.0000000  0.6508444  3
   2524   2536   2542   2543     1  0.0000000  0.6508444  3
   2524   2536   2542   2544     1  0.0000000  0.6508444  3
   2525   2524   2520   2527     1  0.0000000  0.6508444  3
   2525   2524   2520   2549     1  0.0000000  0.6508444  3
   2525   2524   2536   2542     1  0.0000000  0.6508444  3
   2525   2524   2536   2537     1  0.0000000  0.6508444  3
   2525   2524   2536   2538     1  0.0000000  0.6508444  3
   2526   2524   2520   2527     1  0.0000000  0.6508444  3
   2526   2524   2520   2549     1  0.0000000  0.6508444  3
   2526   2524   2536   2542     1  0.0000000  0.6508444  3
   2526   2524   2536   2537     1  0.0000000  0.6508444  3
   2526   2524   2536   2538     1  0.0000000  0.6508444  3
   2527   2530   2539   2540     1  0.0000000  0.6508444  3
   2527   2530   2539   2541     1  0.0000000  0.6508444  3
   2528   2527   2520   2549     1  0.0000000  0.6508444  3
   2528   2527   2530   2539     1  0.0000000  0.6508444  3
   2528   2527   2530   2531     1  0.0000000  0.6508444  3
   2528   2527   2530   2532     1  0.0000000  0.6508444  3
   2529   2527   2520   2549     1  0.0000000  0.6508444  3
   2529   2527   2530   2539     1  0.0000000  0.6508444  3
   2529   2527   2530   2531     1  0.0000000  0.6508444  3
   2529   2527   2530   2532     1  0.0000000  0.6508444  3
   2530   2527   2520   2549     1  0.0000000  0.6508444  3
   2531   2530   2539   2548     1  0.0000000  1.0460000  1
   2531   2530   2539   2548     1  0.0000000  0.0000000  3
   2531   2530   2539   2540     1  0.0000000  0.6508444  3
   2531   2530   2539   2541     1  0.0000000  0.6508444  3
   2532   2530   2539   2548     1  0.0000000  1.0460000  1
   2532   2530   2539   2548     1  0.0000000  0.0000000  3
   2532   2530   2539   2540     1  0.0000000  0.6508444  3
   2532   2530   2539   2541     1  0.0000000  0.6508444  3
   2533   2521   2520   2549     1  0.0000000  0.6508444  3
   2534   2533   2545   4422     1  0.0000000  1.0460000  1
   2534   2533   2545   4422     1  0.0000000  0.0000000  3
   2534   2533   2545   2546     1  0.0000000  0.6508444  3
   2534   2533   2545   2547     1  0.0000000  0.6508444  3
   2535   2533   2545   4422     1  0.0000000  1.0460000  1
   2535   2533   2545   4422     1  0.0000000  0.0000000  3
   2535   2533   2545   2546     1  0.0000000  0.6508444  3
   2535   2533   2545   2547     1  0.0000000  0.6508444  3
   2536   2524   2520   2549     1  0.0000000  0.6508444  3
   2537   2536   2542   4408     1  0.0000000  1.0460000  1
   2537   2536   2542   4408     1  0.0000000  0.0000000  3
   2537   2536   2542   2543     1  0.0000000  0.6508444  3
   2537   2536   2542   2544     1  0.0000000  0.6508444  3
   2538   2536   2542   4408     1  0.0000000  1.0460000  1
   2538   2536   2542   4408     1  0.0000000  0.0000000  3
   2538   2536   2542   2543     1  0.0000000  0.6508444  3
   2538   2536   2542   2544     1  0.0000000  0.6508444  3
   2542   4408   4402   4403     1  0.0000000  1.6038667  3
   2542   4408   4402   4404     1  0.0000000  1.6038667  3
   2543   2542   4408   4402     1  0.0000000  1.6038667  3
   2544   2542   4408   4402     1  0.0000000  1.6038667  3
   2545   4422   4416   4417     1  0.0000000  1.6038667  3
   2545   4422   4416   4418     1  0.0000000  1.6038667  3
   2546   2545   4422   4416     1  0.0000000  1.6038667  3
   2547   2545   4422   4416     1  0.0000000  1.6038667  3
   2550   2551   2563   2564     1  0.0000000  0.6508444  3
   2550   2551   2563   2565     1  0.0000000  0.6508444  3
   2550   2554   2566   2567     1  0.0000000  0.6508444  3
   2550   2554   2566   2568     1  0.0000000  0.6508444  3
   2550   2557   2560   2561     1  0.0000000  0.6508444  3
   2550   2557   2560   2562     1  0.0000000  0.6508444  3
   2551   2550   2554   2555     1  0.0000000  0.6508444  3
   2551   2550   2554   2556     1  0.0000000  0.6508444  3
   2551   2550   2557   2558     1  0.0000000  0.6508444  3
   2551   2550   2557   2559     1  0.0000000  0.6508444  3
   2551   2563   2575   2576     1  0.0000000  0.6508444  3
   2551   2563   2575   2577     1  0.0000000  0.6508444  3
   2552   2551   2550   2554     1  0.0000000  0.6508444  3
   2552   2551   2550   2557     1  0.0000000  0.6508444  3
   2552   2551   2550   2579     1  0.0000000  0.6508444  3
   2552   2551   2563   2575     1  0.0000000  0.6508444  3
   2552   2551   2563   2564     1  0.0000000  0.6508444  3
   2552   2551   2563   2565     1  0.0000000  0.6508444  3
   2553   2551   2550   2554     1  0.0000000  0.6508444  3
   2553   2551   2550   2557     1  0.0000000  0.6508444  3
   2553   2551   2550   2579     1  0.0000000  0.6508444  3
   2553   2551   2563   2575     1  0.0000000  0.6508444  3
   2553   2551   2563   2564     1  0.0000000  0.6508444  3
   2553   2551   2563   2565     1  0.0000000  0.6508444  3
   2554   2550   2557   2558     1  0.0000000  0.6508444  3
   2554   2550   2557   2559     1  0.0000000  0.6508444  3
   2554   2566   2572   2573     1  0.0000000  0.6508444  3
   2554   2566   2572   2574     1  0.0000000  0.6508444  3
   2555   2554   2550   2557     1  0.0000000  0.6508444  3
   2555   2554   2550   2579     1  0.0000000  0.6508444  3
   2555   2554   2566   2572     1  0.0000000  0.6508444  3
   2555   2554   2566   2567     1  0.0000000  0.6508444  3
   2555   2554   2566   2568     1  0.0000000  0.6508444  3
   2556   2554   2550   2557     1  0.0000000  0.6508444  3
   2556   2554   2550   2579     1  0.0000000  0.6508444  3
   2556   2554   2566   2572     1  0.0000000  0.6508444  3
   2556   2554   2566   2567     1  0.0000000  0.6508444  3
   2556   2554   2566   2568     1  0.0000000  0.6508444  3
   2557   2560   2569   2570     1  0.0000000  0.6508444  3
   2557   2560   2569   2571     1  0.0000000  0.6508444  3
   2558   2557   2550   2579     1  0.0000000  0.6508444  3
   2558   2557   2560   2569     1  0.0000000  0.6508444  3
   2558   2557   2560   2561     1  0.0000000  0.6508444  3
   2558   2557   2560   2562     1  0.0000000  0.6508444  3
   2559   2557   2550   2579     1  0.0000000  0.6508444  3
   2559   2557   2560   2569     1  0.0000000  0.6508444  3
   2559   2557   2560   2561     1  0.0000000  0.6508444  3
   2559   2557   2560   2562     1  0.0000000  0.6508444  3
   2560   2557   2550   2579     1  0.0000000  0.6508444  3
   2561   2560   2569   2578     1  0.0000000  1.0460000  1
   2561   2560   2569   2578     1  0.0000000  0.0000000  3
   2561   2560   2569   2570     1  0.0000000  0.6508444  3
   2561   2560   2569   2571     1  0.0000000  0.6508444  3
   2562   2560   2569   2578     1  0.0000000  1.0460000  1
   2562   2560   2569   2578     1  0.0000000  0.0000000  3
   2562   2560   2569   2570     1  0.0000000  0.6508444  3
   2562   2560   2569   2571     1  0.0000000  0.6508444  3
   2563   2551   2550   2579     1  0.0000000  0.6508444  3
   2564   2563   2575   4450     1  0.0000000  1.0460000  1
   2564   2563   2575   4450     1  0.0000000  0.0000000  3
   2564   2563   2575   2576     1  0.0000000  0.6508444  3
   2564   2563   2575   2577     1  0.0000000  0.6508444  3
   2565   2563   2575   4450     1  0.0000000  1.0460000  1
   2565   2563   2575   4450     1  0.0000000  0.0000000  3
   2565   2563   2575   2576     1  0.0000000  0.6508444  3
   2565   2563   2575   2577     1  0.0000000  0.6508444  3
   2566   2554   2550   2579     1  0.0000000  0.6508444  3
   2567   2566   2572   4436     1  0.0000000  1.0460000  1
   2567   2566   2572   4436     1  0.0000000  0.0000000  3
   2567   2566   2572   2573     1  0.0000000  0.6508444  3
   2567   2566   2572   2574     1  0.0000000  0.6508444  3
   2568   2566   2572   4436     1  0.0000000  1.0460000  1
   2568   2566   2572   4436     1  0.0000000  0.0000000  3
   2568   2566   2572   2573     1  0.0000000  0.6508444  3
   2568   2566   2572   2574     1  0.0000000  0.6508444  3
   2572   4436   4430   4431     1  0.0000000  1.6038667  3
   2572   4436   4430   4432     1  0.0000000  1.6038667  3
   2573   2572   4436   4430     1  0.0000000  1.6038667  3
   2574   2572   4436   4430     1  0.0000000  1.6038667  3
   2575   4450   4444   4445     1  0.0000000  1.6038667  3
   2575   4450   4444   4446     1  0.0000000  1.6038667  3
   2576   2575   4450   4444     1  0.0000000  1.6038667  3
   2577   2575   4450   4444     1  0.0000000  1.6038667  3
   2580   2581   2593   2594     1  0.0000000  0.6508444  3
   2580   2581   2593   2595     1  0.0000000  0.6508444  3
   2580   2584   2596   2597     1  0.0000000  0.6508444  3
   2580   2584   2596   2598     1  0.0000000  0.6508444  3
   2580   2587   2590   2591     1  0.0000000  0.6508444  3
   2580   2587   2590   2592     1  0.0000000  0.6508444  3
   2581   2580   2584   2585     1  0.0000000  0.6508444  3
   2581   2580   2584   2586     1  0.0000000  0.6508444  3
   2581   2580   2587   2588     1  0.0000000  0.6508444  3
   2581   2580   2587   2589     1  0.0000000  0.6508444  3
   2581   2593   2605   2606     1  0.0000000  0.6508444  3
   2581   2593   2605   2607     1  0.0000000  0.6508444  3
   2582   2581   2580   2584     1  0.0000000  0.6508444  3
   2582   2581   2580   2587     1  0.0000000  0.6508444  3
   2582   2581   2580   2609     1  0.0000000  0.6508444  3
   2582   2581   2593   2605     1  0.0000000  0.6508444  3
   2582   2581   2593   2594     1  0.0000000  0.6508444  3
   2582   2581   2593   2595     1  0.0000000  0.6508444  3
   2583   2581   2580   2584     1  0.0000000  0.6508444  3
   2583   2581   2580   2587     1  0.0000000  0.6508444  3
   2583   2581   2580   2609     1  0.0000000  0.6508444  3
   2583   2581   2593   2605     1  0.0000000  0.6508444  3
   2583   2581   2593   2594     1  0.0000000  0.6508444  3
   2583   2581   2593   2595     1  0.0000000  0.6508444  3
   2584   2580   2587   2588     1  0.0000000  0.6508444  3
   2584   2580   2587   2589     1  0.0000000  0.6508444  3
   2584   2596   2602   2603     1  0.0000000  0.6508444  3
   2584   2596   2602   2604     1  0.0000000  0.6508444  3
   2585   2584   2580   2587     1  0.0000000  0.6508444  3
   2585   2584   2580   2609     1  0.0000000  0.6508444  3
   2585   2584   2596   2602     1  0.0000000  0.6508444  3
   2585   2584   2596   2597     1  0.0000000  0.6508444  3
   2585   2584   2596   2598     1  0.0000000  0.6508444  3
   2586   2584   2580   2587     1  0.0000000  0.6508444  3
   2586   2584   2580   2609     1  0.0000000  0.6508444  3
   2586   2584   2596   2602     1  0.0000000  0.6508444  3
   2586   2584   2596   2597     1  0.0000000  0.6508444  3
   2586   2584   2596   2598     1  0.0000000  0.6508444  3
   2587   2590   2599   2600     1  0.0000000  0.6508444  3
   2587   2590   2599   2601     1  0.0000000  0.6508444  3
   2588   2587   2580   2609     1  0.0000000  0.6508444  3
   2588   2587   2590   2599     1  0.0000000  0.6508444  3
   2588   2587   2590   2591     1  0.0000000  0.6508444  3
   2588   2587   2590   2592     1  0.0000000  0.6508444  3
   2589   2587   2580   2609     1  0.0000000  0.6508444  3
   2589   2587   2590   2599     1  0.0000000  0.6508444  3
   2589   2587   2590   2591     1  0.0000000  0.6508444  3
   2589   2587   2590   2592     1  0.0000000  0.6508444  3
   2590   2587   2580   2609     1  0.0000000  0.6508444  3
   2591   2590   2599   2608     1  0.0000000  1.0460000  1
   2591   2590   2599   2608     1  0.0000000  0.0000000  3
   2591   2590   2599   2600     1  0.0000000  0.6508444  3
   2591   2590   2599   2601     1  0.0000000  0.6508444  3
   2592   2590   2599   2608     1  0.0000000  1.0460000  1
   2592   2590   2599   2608     1  0.0000000  0.0000000  3
   2592   2590   2599   2600     1  0.0000000  0.6508444  3
   2592   2590   2599   2601     1  0.0000000  0.6508444  3
   2593   2581   2580   2609     1  0.0000000  0.6508444  3
   2594   2593   2605   4478     1  0.0000000  1.0460000  1
   2594   2593   2605   4478     1  0.0000000  0.0000000  3
   2594   2593   2605   2606     1  0.0000000  0.6508444  3
   2594   2593   2605   2607     1  0.0000000  0.6508444  3
   2595   2593   2605   4478     1  0.0000000  1.0460000  1
   2595   2593   2605   4478     1  0.0000000  0.0000000  3
   2595   2593   2605   2606     1  0.0000000  0.6508444  3
   2595   2593   2605   2607     1  0.0000000  0.6508444  3
   2596   2584   2580   2609     1  0.0000000  0.6508444  3
   2597   2596   2602   4464     1  0.0000000  1.0460000  1
   2597   2596   2602   4464     1  0.0000000  0.0000000  3
   2597   2596   2602   2603     1  0.0000000  0.6508444  3
   2597   2596   2602   2604     1  0.0000000  0.6508444  3
   2598   2596   2602   4464     1  0.0000000  1.0460000  1
   2598   2596   2602   4464     1  0.0000000  0.0000000  3
   2598   2596   2602   2603     1  0.0000000  0.6508444  3
   2598   2596   2602   2604     1  0.0000000  0.6508444  3
   2602   4464   4458   4459     1  0.0000000  1.6038667  3
   2602   4464   4458   4460     1  0.0000000  1.6038667  3
   2603   2602   4464   4458     1  0.0000000  1.6038667  3
   2604   2602   4464   4458     1  0.0000000  1.6038667  3
   2605   4478   4472   4473     1  0.0000000  1.6038667  3
   2605   4478   4472   4474     1  0.0000000  1.6038667  3
   2606   2605   4478   4472     1  0.0000000  1.6038667  3
   2607   2605   4478   4472     1  0.0000000  1.6038667  3
   2610   2611   2623   2624     1  0.0000000  0.6508444  3
   2610   2611   2623   2625     1  0.0000000  0.6508444  3
   2610   2614   2626   2627     1  0.0000000  0.6508444  3
   2610   2614   2626   2628     1  0.0000000  0.6508444  3
   2610   2617   2620   2621     1  0.0000000  0.6508444  3
   2610   2617   2620   2622     1  0.0000000  0.6508444  3
   2611   2610   2614   2615     1  0.0000000  0.6508444  3
   2611   2610   2614   2616     1  0.0000000  0.6508444  3
   2611   2610   2617   2618     1  0.0000000  0.6508444  3
   2611   2610   2617   2619     1  0.0000000  0.6508444  3
   2611   2623   2635   2636     1  0.0000000  0.6508444  3
   2611   2623   2635   2637     1  0.0000000  0.6508444  3
   2612   2611   2610   2614     1  0.0000000  0.6508444  3
   2612   2611   2610   2617     1  0.0000000  0.6508444  3
   2612   2611   2610   2639     1  0.0000000  0.6508444  3
   2612   2611   2623   2635     1  0.0000000  0.6508444  3
   2612   2611   2623   2624     1  0.0000000  0.6508444  3
   2612   2611   2623   2625     1  0.0000000  0.6508444  3
   2613   2611   2610   2614     1  0.0000000  0.6508444  3
   2613   2611   2610   2617     1  0.0000000  0.6508444  3
   2613   2611   2610   2639     1  0.0000000  0.6508444  3
   2613   2611   2623   2635     1  0.0000000  0.6508444  3
   2613   2611   2623   2624     1  0.0000000  0.6508444  3
   2613   2611   2623   2625     1  0.0000000  0.6508444  3
   2614   2610   2617   2618     1  0.0000000  0.6508444  3
   2614   2610   2617   2619     1  0.0000000  0.6508444  3
   2614   2626   2632   2633     1  0.0000000  0.6508444  3
   2614   2626   2632   2634     1  0.0000000  0.6508444  3
   2615   2614   2610   2617     1  0.0000000  0.6508444  3
   2615   2614   2610   2639     1  0.0000000  0.6508444  3
   2615   2614   2626   2632     1  0.0000000  0.6508444  3
   2615   2614   2626   2627     1  0.0000000  0.6508444  3
   2615   2614   2626   2628     1  0.0000000  0.6508444  3
   2616   2614   2610   2617     1  0.0000000  0.6508444  3
   2616   2614   2610   2639     1  0.0000000  0.6508444  3
   2616   2614   2626   2632     1  0.0000000  0.6508444  3
   2616   2614   2626   2627     1  0.0000000  0.6508444  3
   2616   2614   2626   2628     1  0.0000000  0.6508444  3
   2617   2620   2629   2630     1  0.0000000  0.6508444  3
   2617   2620   2629   2631     1  0.0000000  0.6508444  3
   2618   2617   2610   2639     1  0.0000000  0.6508444  3
   2618   2617   2620   2629     1  0.0000000  0.6508444  3
   2618   2617   2620   2621     1  0.0000000  0.6508444  3
   2618   2617   2620   2622     1  0.0000000  0.6508444  3
   2619   2617   2610   2639     1  0.0000000  0.6508444  3
   2619   2617   2620   2629     1  0.0000000  0.6508444  3
   2619   2617   2620   2621     1  0.0000000  0.6508444  3
   2619   2617   2620   2622     1  0.0000000  0.6508444  3
   2620   2617   2610   2639     1  0.0000000  0.6508444  3
   2621   2620   2629   2638     1  0.0000000  1.0460000  1
   2621   2620   2629   2638     1  0.0000000  0.0000000  3
   2621   2620   2629   2630     1  0.0000000  0.6508444  3
   2621   2620   2629   2631     1  0.0000000  0.6508444  3
   2622   2620   2629   2638     1  0.0000000  1.0460000  1
   2622   2620   2629   2638     1  0.0000000  0.0000000  3
   2622   2620   2629   2630     1  0.0000000  0.6508444  3
   2622   2620   2629   2631     1  0.0000000  0.6508444  3
   2623   2611   2610   2639     1  0.0000000  0.6508444  3
   2624   2623   2635   4506     1  0.0000000  1.0460000  1
   2624   2623   2635   4506     1  0.0000000  0.0000000  3
   2624   2623   2635   2636     1  0.0000000  0.6508444  3
   2624   2623   2635   2637     1  0.0000000  0.6508444  3
   2625   2623   2635   4506     1  0.0000000  1.0460000  1
   2625   2623   2635   4506     1  0.0000000  0.0000000  3
   2625   2623   2635   2636     1  0.0000000  0.6508444  3
   2625   2623   2635   2637     1  0.0000000  0.6508444  3
   2626   2614   2610   2639     1  0.0000000  0.6508444  3
   2627   2626   2632   4492     1  0.0000000  1.0460000  1
   2627   2626   2632   4492     1  0.0000000  0.0000000  3
   2627   2626   2632   2633     1  0.0000000  0.6508444  3
   2627   2626   2632   2634     1  0.0000000  0.6508444  3
   2628   2626   2632   4492     1  0.0000000  1.0460000  1
   2628   2626   2632   4492     1  0.0000000  0.0000000  3
   2628   2626   2632   2633     1  0.0000000  0.6508444  3
   2628   2626   2632   2634     1  0.0000000  0.6508444  3
   2632   4492   4486   4487     1  0.0000000  1.6038667  3
   2632   4492   4486   4488     1  0.0000000  1.6038667  3
   2633   2632   4492   4486     1  0.0000000  1.6038667  3
   2634   2632   4492   4486     1  0.0000000  1.6038667  3
   2635   4506   4500   4501     1  0.0000000  1.6038667  3
   2635   4506   4500   4502     1  0.0000000  1.6038667  3
   2636   2635   4506   4500     1  0.0000000  1.6038667  3
   2637   2635   4506   4500     1  0.0000000  1.6038667  3
   2640   2641   2653   2654     1  0.0000000  0.6508444  3
   2640   2641   2653   2655     1  0.0000000  0.6508444  3
   2640   2644   2656   2657     1  0.0000000  0.6508444  3
   2640   2644   2656   2658     1  0.0000000  0.6508444  3
   2640   2647   2650   2651     1  0.0000000  0.6508444  3
   2640   2647   2650   2652     1  0.0000000  0.6508444  3
   2641   2640   2644   2645     1  0.0000000  0.6508444  3
   2641   2640   2644   2646     1  0.0000000  0.6508444  3
   2641   2640   2647   2648     1  0.0000000  0.6508444  3
   2641   2640   2647   2649     1  0.0000000  0.6508444  3
   2641   2653   2665   2666     1  0.0000000  0.6508444  3
   2641   2653   2665   2667     1  0.0000000  0.6508444  3
   2642   2641   2640   2644     1  0.0000000  0.6508444  3
   2642   2641   2640   2647     1  0.0000000  0.6508444  3
   2642   2641   2640   2669     1  0.0000000  0.6508444  3
   2642   2641   2653   2665     1  0.0000000  0.6508444  3
   2642   2641   2653   2654     1  0.0000000  0.6508444  3
   2642   2641   2653   2655     1  0.0000000  0.6508444  3
   2643   2641   2640   2644     1  0.0000000  0.6508444  3
   2643   2641   2640   2647     1  0.0000000  0.6508444  3
   2643   2641   2640   2669     1  0.0000000  0.6508444  3
   2643   2641   2653   2665     1  0.0000000  0.6508444  3
   2643   2641   2653   2654     1  0.0000000  0.6508444  3
   2643   2641   2653   2655     1  0.0000000  0.6508444  3
   2644   2640   2647   2648     1  0.0000000  0.6508444  3
   2644   2640   2647   2649     1  0.0000000  0.6508444  3
   2644   2656   2662   2663     1  0.0000000  0.6508444  3
   2644   2656   2662   2664     1  0.0000000  0.6508444  3
   2645   2644   2640   2647     1  0.0000000  0.6508444  3
   2645   2644   2640   2669     1  0.0000000  0.6508444  3
   2645   2644   2656   2662     1  0.0000000  0.6508444  3
   2645   2644   2656   2657     1  0.0000000  0.6508444  3
   2645   2644   2656   2658     1  0.0000000  0.6508444  3
   2646   2644   2640   2647     1  0.0000000  0.6508444  3
   2646   2644   2640   2669     1  0.0000000  0.6508444  3
   2646   2644   2656   2662     1  0.0000000  0.6508444  3
   2646   2644   2656   2657     1  0.0000000  0.6508444  3
   2646   2644   2656   2658     1  0.0000000  0.6508444  3
   2647   2650   2659   2660     1  0.0000000  0.6508444  3
   2647   2650   2659   2661     1  0.0000000  0.6508444  3
   2648   2647   2640   2669     1  0.0000000  0.6508444  3
   2648   2647   2650   2659     1  0.0000000  0.6508444  3
   2648   2647   2650   2651     1  0.0000000  0.6508444  3
   2648   2647   2650   2652     1  0.0000000  0.6508444  3
   2649   2647   2640   2669     1  0.0000000  0.6508444  3
   2649   2647   2650   2659     1  0.0000000  0.6508444  3
   2649   2647   2650   2651     1  0.0000000  0.6508444  3
   2649   2647   2650   2652     1  0.0000000  0.6508444  3
   2650   2647   2640   2669     1  0.0000000  0.6508444  3
   2651   2650   2659   2668     1  0.0000000  1.0460000  1
   2651   2650   2659   2668     1  0.0000000  0.0000000  3
   2651   2650   2659   2660     1  0.0000000  0.6508444  3
   2651   2650   2659   2661     1  0.0000000  0.6508444  3
   2652   2650   2659   2668     1  0.0000000  1.0460000  1
   2652   2650   2659   2668     1  0.0000000  0.0000000  3
   2652   2650   2659   2660     1  0.0000000  0.6508444  3
   2652   2650   2659   2661     1  0.0000000  0.6508444  3
   2653   2641   2640   2669     1  0.0000000  0.6508444  3
   2654   2653   2665   4534     1  0.0000000  1.0460000  1
   2654   2653   2665   4534     1  0.0000000  0.0000000  3
   2654   2653   2665   2666     1  0.0000000  0.6508444  3
   2654   2653   2665   2667     1  0.0000000  0.6508444  3
   2655   2653   2665   4534     1  0.0000000  1.0460000  1
   2655   2653   2665   4534     1  0.0000000  0.0000000  3
   2655   2653   2665   2666     1  0.0000000  0.6508444  3
   2655   2653   2665   2667     1  0.0000000  0.6508444  3
   2656   2644   2640   2669     1  0.0000000  0.6508444  3
   2657   2656   2662   4520     1  0.0000000  1.0460000  1
   2657   2656   2662   4520     1  0.0000000  0.0000000  3
   2657   2656   2662   2663     1  0.0000000  0.6508444  3
   2657   2656   2662   2664     1  0.0000000  0.6508444  3
   2658   2656   2662   4520     1  0.0000000  1.0460000  1
   2658   2656   2662   4520     1  0.0000000  0.0000000  3
   2658   2656   2662   2663     1  0.0000000  0.6508444  3
   2658   2656   2662   2664     1  0.0000000  0.6508444  3
   2662   4520   4514   4515     1  0.0000000  1.6038667  3
   2662   4520   4514   4516     1  0.0000000  1.6038667  3
   2663   2662   4520   4514     1  0.0000000  1.6038667  3
   2664   2662   4520   4514     1  0.0000000  1.6038667  3
   2665   4534   4528   4529     1  0.0000000  1.6038667  3
   2665   4534   4528   4530     1  0.0000000  1.6038667  3
   2666   2665   4534   4528     1  0.0000000  1.6038667  3
   2667   2665   4534   4528     1  0.0000000  1.6038667  3
   2670   2671   2683   2684     1  0.0000000  0.6508444  3
   2670   2671   2683   2685     1  0.0000000  0.6508444  3
   2670   2674   2686   2687     1  0.0000000  0.6508444  3
   2670   2674   2686   2688     1  0.0000000  0.6508444  3
   2670   2677   2680   2681     1  0.0000000  0.6508444  3
   2670   2677   2680   2682     1  0.0000000  0.6508444  3
   2671   2670   2674   2675     1  0.0000000  0.6508444  3
   2671   2670   2674   2676     1  0.0000000  0.6508444  3
   2671   2670   2677   2678     1  0.0000000  0.6508444  3
   2671   2670   2677   2679     1  0.0000000  0.6508444  3
   2671   2683   2695   2696     1  0.0000000  0.6508444  3
   2671   2683   2695   2697     1  0.0000000  0.6508444  3
   2672   2671   2670   2674     1  0.0000000  0.6508444  3
   2672   2671   2670   2677     1  0.0000000  0.6508444  3
   2672   2671   2670   2699     1  0.0000000  0.6508444  3
   2672   2671   2683   2695     1  0.0000000  0.6508444  3
   2672   2671   2683   2684     1  0.0000000  0.6508444  3
   2672   2671   2683   2685     1  0.0000000  0.6508444  3
   2673   2671   2670   2674     1  0.0000000  0.6508444  3
   2673   2671   2670   2677     1  0.0000000  0.6508444  3
   2673   2671   2670   2699     1  0.0000000  0.6508444  3
   2673   2671   2683   2695     1  0.0000000  0.6508444  3
   2673   2671   2683   2684     1  0.0000000  0.6508444  3
   2673   2671   2683   2685     1  0.0000000  0.6508444  3
   2674   2670   2677   2678     1  0.0000000  0.6508444  3
   2674   2670   2677   2679     1  0.0000000  0.6508444  3
   2674   2686   2692   2693     1  0.0000000  0.6508444  3
   2674   2686   2692   2694     1  0.0000000  0.6508444  3
   2675   2674   2670   2677     1  0.0000000  0.6508444  3
   2675   2674   2670   2699     1  0.0000000  0.6508444  3
   2675   2674   2686   2692     1  0.0000000  0.6508444  3
   2675   2674   2686   2687     1  0.0000000  0.6508444  3
   2675   2674   2686   2688     1  0.0000000  0.6508444  3
   2676   2674   2670   2677     1  0.0000000  0.6508444  3
   2676   2674   2670   2699     1  0.0000000  0.6508444  3
   2676   2674   2686   2692     1  0.0000000  0.6508444  3
   2676   2674   2686   2687     1  0.0000000  0.6508444  3
   2676   2674   2686   2688     1  0.0000000  0.6508444  3
   2677   2680   2689   2690     1  0.0000000  0.6508444  3
   2677   2680   2689   2691     1  0.0000000  0.6508444  3
   2678   2677   2670   2699     1  0.0000000  0.6508444  3
   2678   2677   2680   2689     1  0.0000000  0.6508444  3
   2678   2677   2680   2681     1  0.0000000  0.6508444  3
   2678   2677   2680   2682     1  0.0000000  0.6508444  3
   2679   2677   2670   2699     1  0.0000000  0.6508444  3
   2679   2677   2680   2689     1  0.0000000  0.6508444  3
   2679   2677   2680   2681     1  0.0000000  0.6508444  3
   2679   2677   2680   2682     1  0.0000000  0.6508444  3
   2680   2677   2670   2699     1  0.0000000  0.6508444  3
   2681   2680   2689   2698     1  0.0000000  1.0460000  1
   2681   2680   2689   2698     1  0.0000000  0.0000000  3
   2681   2680   2689   2690     1  0.0000000  0.6508444  3
   2681   2680   2689   2691     1  0.0000000  0.6508444  3
   2682   2680   2689   2698     1  0.0000000  1.0460000  1
   2682   2680   2689   2698     1  0.0000000  0.0000000  3
   2682   2680   2689   2690     1  0.0000000  0.6508444  3
   2682   2680   2689   2691     1  0.0000000  0.6508444  3
   2683   2671   2670   2699     1  0.0000000  0.6508444  3
   2684   2683   2695   4562     1  0.0000000  1.0460000  1
   2684   2683   2695   4562     1  0.0000000  0.0000000  3
   2684   2683   2695   2696     1  0.0000000  0.6508444  3
   2684   2683   2695   2697     1  0.0000000  0.6508444  3
   2685   2683   2695   4562     1  0.0000000  1.0460000  1
   2685   2683   2695   4562     1  0.0000000  0.0000000  3
   2685   2683   2695   2696     1  0.0000000  0.6508444  3
   2685   2683   2695   2697     1  0.0000000  0.6508444  3
   2686   2674   2670   2699     1  0.0000000  0.6508444  3
   2687   2686   2692   4548     1  0.0000000  1.0460000  1
   2687   2686   2692   4548     1  0.0000000  0.0000000  3
   2687   2686   2692   2693     1  0.0000000  0.6508444  3
   2687   2686   2692   2694     1  0.0000000  0.6508444  3
   2688   2686   2692   4548     1  0.0000000  1.0460000  1
   2688   2686   2692   4548     1  0.0000000  0.0000000  3
   2688   2686   2692   2693     1  0.0000000  0.6508444  3
   2688   2686   2692   2694     1  0.0000000  0.6508444  3
   2692   4548   4542   4543     1  0.0000000  1.6038667  3
   2692   4548   4542   4544     1  0.0000000  1.6038667  3
   2693   2692   4548   4542     1  0.0000000  1.6038667  3
   2694   2692   4548   4542     1  0.0000000  1.6038667  3
   2695   4562   4556   4557     1  0.0000000  1.6038667  3
   2695   4562   4556   4558     1  0.0000000  1.6038667  3
   2696   2695   4562   4556     1  0.0000000  1.6038667  3
   2697   2695   4562   4556     1  0.0000000  1.6038667  3
   2700   2701   2713   2714     1  0.0000000  0.6508444  3
   2700   2701   2713   2715     1  0.0000000  0.6508444  3
   2700   2704   2716   2717     1  0.0000000  0.6508444  3
   2700   2704   2716   2718     1  0.0000000  0.6508444  3
   2700   2707   2710   2711     1  0.0000000  0.6508444  3
   2700   2707   2710   2712     1  0.0000000  0.6508444  3
   2701   2700   2704   2705     1  0.0000000  0.6508444  3
   2701   2700   2704   2706     1  0.0000000  0.6508444  3
   2701   2700   2707   2708     1  0.0000000  0.6508444  3
   2701   2700   2707   2709     1  0.0000000  0.6508444  3
   2701   2713   2725   2726     1  0.0000000  0.6508444  3
   2701   2713   2725   2727     1  0.0000000  0.6508444  3
   2702   2701   2700   2704     1  0.0000000  0.6508444  3
   2702   2701   2700   2707     1  0.0000000  0.6508444  3
   2702   2701   2700   2729     1  0.0000000  0.6508444  3
   2702   2701   2713   2725     1  0.0000000  0.6508444  3
   2702   2701   2713   2714     1  0.0000000  0.6508444  3
   2702   2701   2713   2715     1  0.0000000  0.6508444  3
   2703   2701   2700   2704     1  0.0000000  0.6508444  3
   2703   2701   2700   2707     1  0.0000000  0.6508444  3
   2703   2701   2700   2729     1  0.0000000  0.6508444  3
   2703   2701   2713   2725     1  0.0000000  0.6508444  3
   2703   2701   2713   2714     1  0.0000000  0.6508444  3
   2703   2701   2713   2715     1  0.0000000  0.6508444  3
   2704   2700   2707   2708     1  0.0000000  0.6508444  3
   2704   2700   2707   2709     1  0.0000000  0.6508444  3
   2704   2716   2722   2723     1  0.0000000  0.6508444  3
   2704   2716   2722   2724     1  0.0000000  0.6508444  3
   2705   2704   2700   2707     1  0.0000000  0.6508444  3
   2705   2704   2700   2729     1  0.0000000  0.6508444  3
   2705   2704   2716   2722     1  0.0000000  0.6508444  3
   2705   2704   2716   2717     1  0.0000000  0.6508444  3
   2705   2704   2716   2718     1  0.0000000  0.6508444  3
   2706   2704   2700   2707     1  0.0000000  0.6508444  3
   2706   2704   2700   2729     1  0.0000000  0.6508444  3
   2706   2704   2716   2722     1  0.0000000  0.6508444  3
   2706   2704   2716   2717     1  0.0000000  0.6508444  3
   2706   2704   2716   2718     1  0.0000000  0.6508444  3
   2707   2710   2719   2720     1  0.0000000  0.6508444  3
   2707   2710   2719   2721     1  0.0000000  0.6508444  3
   2708   2707   2700   2729     1  0.0000000  0.6508444  3
   2708   2707   2710   2719     1  0.0000000  0.6508444  3
   2708   2707   2710   2711     1  0.0000000  0.6508444  3
   2708   2707   2710   2712     1  0.0000000  0.6508444  3
   2709   2707   2700   2729     1  0.0000000  0.6508444  3
   2709   2707   2710   2719     1  0.0000000  0.6508444  3
   2709   2707   2710   2711     1  0.0000000  0.6508444  3
   2709   2707   2710   2712     1  0.0000000  0.6508444  3
   2710   2707   2700   2729     1  0.0000000  0.6508444  3
   2711   2710   2719   2728     1  0.0000000  1.0460000  1
   2711   2710   2719   2728     1  0.0000000  0.0000000  3
   2711   2710   2719   2720     1  0.0000000  0.6508444  3
   2711   2710   2719   2721     1  0.0000000  0.6508444  3
   2712   2710   2719   2728     1  0.0000000  1.0460000  1
   2712   2710   2719   2728     1  0.0000000  0.0000000  3
   2712   2710   2719   2720     1  0.0000000  0.6508444  3
   2712   2710   2719   2721     1  0.0000000  0.6508444  3
   2713   2701   2700   2729     1  0.0000000  0.6508444  3
   2714   2713   2725   4590     1  0.0000000  1.0460000  1
   2714   2713   2725   4590     1  0.0000000  0.0000000  3
   2714   2713   2725   2726     1  0.0000000  0.6508444  3
   2714   2713   2725   2727     1  0.0000000  0.6508444  3
   2715   2713   2725   4590     1  0.0000000  1.0460000  1
   2715   2713   2725   4590     1  0.0000000  0.0000000  3
   2715   2713   2725   2726     1  0.0000000  0.6508444  3
   2715   2713   2725   2727     1  0.0000000  0.6508444  3
   2716   2704   2700   2729     1  0.0000000  0.6508444  3
   2717   2716   2722   4576     1  0.0000000  1.0460000  1
   2717   2716   2722   4576     1  0.0000000  0.0000000  3
   2717   2716   2722   2723     1  0.0000000  0.6508444  3
   2717   2716   2722   2724     1  0.0000000  0.6508444  3
   2718   2716   2722   4576     1  0.0000000  1.0460000  1
   2718   2716   2722   4576     1  0.0000000  0.0000000  3
   2718   2716   2722   2723     1  0.0000000  0.6508444  3
   2718   2716   2722   2724     1  0.0000000  0.6508444  3
   2722   4576   4570   4571     1  0.0000000  1.6038667  3
   2722   4576   4570   4572     1  0.0000000  1.6038667  3
   2723   2722   4576   4570     1  0.0000000  1.6038667  3
   2724   2722   4576   4570     1  0.0000000  1.6038667  3
   2725   4590   4584   4585     1  0.0000000  1.6038667  3
   2725   4590   4584   4586     1  0.0000000  1.6038667  3
   2726   2725   4590   4584     1  0.0000000  1.6038667  3
   2727   2725   4590   4584     1  0.0000000  1.6038667  3
   2730   2731   2743   2744     1  0.0000000  0.6508444  3
   2730   2731   2743   2745     1  0.0000000  0.6508444  3
   2730   2734   2746   2747     1  0.0000000  0.6508444  3
   2730   2734   2746   2748     1  0.0000000  0.6508444  3
   2730   2737   2740   2741     1  0.0000000  0.6508444  3
   2730   2737   2740   2742     1  0.0000000  0.6508444  3
   2731   2730   2734   2735     1  0.0000000  0.6508444  3
   2731   2730   2734   2736     1  0.0000000  0.6508444  3
   2731   2730   2737   2738     1  0.0000000  0.6508444  3
   2731   2730   2737   2739     1  0.0000000  0.6508444  3
   2731   2743   2755   2756     1  0.0000000  0.6508444  3
   2731   2743   2755   2757     1  0.0000000  0.6508444  3
   2732   2731   2730   2734     1  0.0000000  0.6508444  3
   2732   2731   2730   2737     1  0.0000000  0.6508444  3
   2732   2731   2730   2759     1  0.0000000  0.6508444  3
   2732   2731   2743   2755     1  0.0000000  0.6508444  3
   2732   2731   2743   2744     1  0.0000000  0.6508444  3
   2732   2731   2743   2745     1  0.0000000  0.6508444  3
   2733   2731   2730   2734     1  0.0000000  0.6508444  3
   2733   2731   2730   2737     1  0.0000000  0.6508444  3
   2733   2731   2730   2759     1  0.0000000  0.6508444  3
   2733   2731   2743   2755     1  0.0000000  0.6508444  3
   2733   2731   2743   2744     1  0.0000000  0.6508444  3
   2733   2731   2743   2745     1  0.0000000  0.6508444  3
   2734   2730   2737   2738     1  0.0000000  0.6508444  3
   2734   2730   2737   2739     1  0.0000000  0.6508444  3
   2734   2746   2752   2753     1  0.0000000  0.6508444  3
   2734   2746   2752   2754     1  0.0000000  0.6508444  3
   2735   2734   2730   2737     1  0.0000000  0.6508444  3
   2735   2734   2730   2759     1  0.0000000  0.6508444  3
   2735   2734   2746   2752     1  0.0000000  0.6508444  3
   2735   2734   2746   2747     1  0.0000000  0.6508444  3
   2735   2734   2746   2748     1  0.0000000  0.6508444  3
   2736   2734   2730   2737     1  0.0000000  0.6508444  3
   2736   2734   2730   2759     1  0.0000000  0.6508444  3
   2736   2734   2746   2752     1  0.0000000  0.6508444  3
   2736   2734   2746   2747     1  0.0000000  0.6508444  3
   2736   2734   2746   2748     1  0.0000000  0.6508444  3
   2737   2740   2749   2750     1  0.0000000  0.6508444  3
   2737   2740   2749   2751     1  0.0000000  0.6508444  3
   2738   2737   2730   2759     1  0.0000000  0.6508444  3
   2738   2737   2740   2749     1  0.0000000  0.6508444  3
   2738   2737   2740   2741     1  0.0000000  0.6508444  3
   2738   2737   2740   2742     1  0.0000000  0.6508444  3
   2739   2737   2730   2759     1  0.0000000  0.6508444  3
   2739   2737   2740   2749     1  0.0000000  0.6508444  3
   2739   2737   2740   2741     1  0.0000000  0.6508444  3
   2739   2737   2740   2742     1  0.0000000  0.6508444  3
   2740   2737   2730   2759     1  0.0000000  0.6508444  3
   2741   2740   2749   2758     1  0.0000000  1.0460000  1
   2741   2740   2749   2758     1  0.0000000  0.0000000  3
   2741   2740   2749   2750     1  0.0000000  0.6508444  3
   2741   2740   2749   2751     1  0.0000000  0.6508444  3
   2742   2740   2749   2758     1  0.0000000  1.0460000  1
   2742   2740   2749   2758     1  0.0000000  0.0000000  3
   2742   2740   2749   2750     1  0.0000000  0.6508444  3
   2742   2740   2749   2751     1  0.0000000  0.6508444  3
   2743   2731   2730   2759     1  0.0000000  0.6508444  3
   2744   2743   2755   4618     1  0.0000000  1.0460000  1
   2744   2743   2755   4618     1  0.0000000  0.0000000  3
   2744   2743   2755   2756     1  0.0000000  0.6508444  3
   2744   2743   2755   2757     1  0.0000000  0.6508444  3
   2745   2743   2755   4618     1  0.0000000  1.0460000  1
   2745   2743   2755   4618     1  0.0000000  0.0000000  3
   2745   2743   2755   2756     1  0.0000000  0.6508444  3
   2745   2743   2755   2757     1  0.0000000  0.6508444  3
   2746   2734   2730   2759     1  0.0000000  0.6508444  3
   2747   2746   2752   4604     1  0.0000000  1.0460000  1
   2747   2746   2752   4604     1  0.0000000  0.0000000  3
   2747   2746   2752   2753     1  0.0000000  0.6508444  3
   2747   2746   2752   2754     1  0.0000000  0.6508444  3
   2748   2746   2752   4604     1  0.0000000  1.0460000  1
   2748   2746   2752   4604     1  0.0000000  0.0000000  3
   2748   2746   2752   2753     1  0.0000000  0.6508444  3
   2748   2746   2752   2754     1  0.0000000  0.6508444  3
   2752   4604   4598   4599     1  0.0000000  1.6038667  3
   2752   4604   4598   4600     1  0.0000000  1.6038667  3
   2753   2752   4604   4598     1  0.0000000  1.6038667  3
   2754   2752   4604   4598     1  0.0000000  1.6038667  3
   2755   4618   4612   4613     1  0.0000000  1.6038667  3
   2755   4618   4612   4614     1  0.0000000  1.6038667  3
   2756   2755   4618   4612     1  0.0000000  1.6038667  3
   2757   2755   4618   4612     1  0.0000000  1.6038667  3
   2760   2761   2773   2774     1  0.0000000  0.6508444  3
   2760   2761   2773   2775     1  0.0000000  0.6508444  3
   2760   2764   2776   2777     1  0.0000000  0.6508444  3
   2760   2764   2776   2778     1  0.0000000  0.6508444  3
   2760   2767   2770   2771     1  0.0000000  0.6508444  3
   2760   2767   2770   2772     1  0.0000000  0.6508444  3
   2761   2760   2764   2765     1  0.0000000  0.6508444  3
   2761   2760   2764   2766     1  0.0000000  0.6508444  3
   2761   2760   2767   2768     1  0.0000000  0.6508444  3
   2761   2760   2767   2769     1  0.0000000  0.6508444  3
   2761   2773   2785   2786     1  0.0000000  0.6508444  3
   2761   2773   2785   2787     1  0.0000000  0.6508444  3
   2762   2761   2760   2764     1  0.0000000  0.6508444  3
   2762   2761   2760   2767     1  0.0000000  0.6508444  3
   2762   2761   2760   2789     1  0.0000000  0.6508444  3
   2762   2761   2773   2785     1  0.0000000  0.6508444  3
   2762   2761   2773   2774     1  0.0000000  0.6508444  3
   2762   2761   2773   2775     1  0.0000000  0.6508444  3
   2763   2761   2760   2764     1  0.0000000  0.6508444  3
   2763   2761   2760   2767     1  0.0000000  0.6508444  3
   2763   2761   2760   2789     1  0.0000000  0.6508444  3
   2763   2761   2773   2785     1  0.0000000  0.6508444  3
   2763   2761   2773   2774     1  0.0000000  0.6508444  3
   2763   2761   2773   2775     1  0.0000000  0.6508444  3
   2764   2760   2767   2768     1  0.0000000  0.6508444  3
   2764   2760   2767   2769     1  0.0000000  0.6508444  3
   2764   2776   2782   2783     1  0.0000000  0.6508444  3
   2764   2776   2782   2784     1  0.0000000  0.6508444  3
   2765   2764   2760   2767     1  0.0000000  0.6508444  3
   2765   2764   2760   2789     1  0.0000000  0.6508444  3
   2765   2764   2776   2782     1  0.0000000  0.6508444  3
   2765   2764   2776   2777     1  0.0000000  0.6508444  3
   2765   2764   2776   2778     1  0.0000000  0.6508444  3
   2766   2764   2760   2767     1  0.0000000  0.6508444  3
   2766   2764   2760   2789     1  0.0000000  0.6508444  3
   2766   2764   2776   2782     1  0.0000000  0.6508444  3
   2766   2764   2776   2777     1  0.0000000  0.6508444  3
   2766   2764   2776   2778     1  0.0000000  0.6508444  3
   2767   2770   2779   2780     1  0.0000000  0.6508444  3
   2767   2770   2779   2781     1  0.0000000  0.6508444  3
   2768   2767   2760   2789     1  0.0000000  0.6508444  3
   2768   2767   2770   2779     1  0.0000000  0.6508444  3
   2768   2767   2770   2771     1  0.0000000  0.6508444  3
   2768   2767   2770   2772     1  0.0000000  0.6508444  3
   2769   2767   2760   2789     1  0.0000000  0.6508444  3
   2769   2767   2770   2779     1  0.0000000  0.6508444  3
   2769   2767   2770   2771     1  0.0000000  0.6508444  3
   2769   2767   2770   2772     1  0.0000000  0.6508444  3
   2770   2767   2760   2789     1  0.0000000  0.6508444  3
   2771   2770   2779   2788     1  0.0000000  1.0460000  1
   2771   2770   2779   2788     1  0.0000000  0.0000000  3
   2771   2770   2779   2780     1  0.0000000  0.6508444  3
   2771   2770   2779   2781     1  0.0000000  0.6508444  3
   2772   2770   2779   2788     1  0.0000000  1.0460000  1
   2772   2770   2779   2788     1  0.0000000  0.0000000  3
   2772   2770   2779   2780     1  0.0000000  0.6508444  3
   2772   2770   2779   2781     1  0.0000000  0.6508444  3
   2773   2761   2760   2789     1  0.0000000  0.6508444  3
   2774   2773   2785   4646     1  0.0000000  1.0460000  1
   2774   2773   2785   4646     1  0.0000000  0.0000000  3
   2774   2773   2785   2786     1  0.0000000  0.6508444  3
   2774   2773   2785   2787     1  0.0000000  0.6508444  3
   2775   2773   2785   4646     1  0.0000000  1.0460000  1
   2775   2773   2785   4646     1  0.0000000  0.0000000  3
   2775   2773   2785   2786     1  0.0000000  0.6508444  3
   2775   2773   2785   2787     1  0.0000000  0.6508444  3
   2776   2764   2760   2789     1  0.0000000  0.6508444  3
   2777   2776   2782   4632     1  0.0000000  1.0460000  1
   2777   2776   2782   4632     1  0.0000000  0.0000000  3
   2777   2776   2782   2783     1  0.0000000  0.6508444  3
   2777   2776   2782   2784     1  0.0000000  0.6508444  3
   2778   2776   2782   4632     1  0.0000000  1.0460000  1
   2778   2776   2782   4632     1  0.0000000  0.0000000  3
   2778   2776   2782   2783     1  0.0000000  0.6508444  3
   2778   2776   2782   2784     1  0.0000000  0.6508444  3
   2782   4632   4626   4627     1  0.0000000  1.6038667  3
   2782   4632   4626   4628     1  0.0000000  1.6038667  3
   2783   2782   4632   4626     1  0.0000000  1.6038667  3
   2784   2782   4632   4626     1  0.0000000  1.6038667  3
   2785   4646   4640   4641     1  0.0000000  1.6038667  3
   2785   4646   4640   4642     1  0.0000000  1.6038667  3
   2786   2785   4646   4640     1  0.0000000  1.6038667  3
   2787   2785   4646   4640     1  0.0000000  1.6038667  3
   2790   2791   2803   2804     1  0.0000000  0.6508444  3
   2790   2791   2803   2805     1  0.0000000  0.6508444  3
   2790   2794   2806   2807     1  0.0000000  0.6508444  3
   2790   2794   2806   2808     1  0.0000000  0.6508444  3
   2790   2797   2800   2801     1  0.0000000  0.6508444  3
   2790   2797   2800   2802     1  0.0000000  0.6508444  3
   2791   2790   2794   2795     1  0.0000000  0.6508444  3
   2791   2790   2794   2796     1  0.0000000  0.6508444  3
   2791   2790   2797   2798     1  0.0000000  0.6508444  3
   2791   2790   2797   2799     1  0.0000000  0.6508444  3
   2791   2803   2815   2816     1  0.0000000  0.6508444  3
   2791   2803   2815   2817     1  0.0000000  0.6508444  3
   2792   2791   2790   2794     1  0.0000000  0.6508444  3
   2792   2791   2790   2797     1  0.0000000  0.6508444  3
   2792   2791   2790   2819     1  0.0000000  0.6508444  3
   2792   2791   2803   2815     1  0.0000000  0.6508444  3
   2792   2791   2803   2804     1  0.0000000  0.6508444  3
   2792   2791   2803   2805     1  0.0000000  0.6508444  3
   2793   2791   2790   2794     1  0.0000000  0.6508444  3
   2793   2791   2790   2797     1  0.0000000  0.6508444  3
   2793   2791   2790   2819     1  0.0000000  0.6508444  3
   2793   2791   2803   2815     1  0.0000000  0.6508444  3
   2793   2791   2803   2804     1  0.0000000  0.6508444  3
   2793   2791   2803   2805     1  0.0000000  0.6508444  3
   2794   2790   2797   2798     1  0.0000000  0.6508444  3
   2794   2790   2797   2799     1  0.0000000  0.6508444  3
   2794   2806   2812   2813     1  0.0000000  0.6508444  3
   2794   2806   2812   2814     1  0.0000000  0.6508444  3
   2795   2794   2790   2797     1  0.0000000  0.6508444  3
   2795   2794   2790   2819     1  0.0000000  0.6508444  3
   2795   2794   2806   2812     1  0.0000000  0.6508444  3
   2795   2794   2806   2807     1  0.0000000  0.6508444  3
   2795   2794   2806   2808     1  0.0000000  0.6508444  3
   2796   2794   2790   2797     1  0.0000000  0.6508444  3
   2796   2794   2790   2819     1  0.0000000  0.6508444  3
   2796   2794   2806   2812     1  0.0000000  0.6508444  3
   2796   2794   2806   2807     1  0.0000000  0.6508444  3
   2796   2794   2806   2808     1  0.0000000  0.6508444  3
   2797   2800   2809   2810     1  0.0000000  0.6508444  3
   2797   2800   2809   2811     1  0.0000000  0.6508444  3
   2798   2797   2790   2819     1  0.0000000  0.6508444  3
   2798   2797   2800   2809     1  0.0000000  0.6508444  3
   2798   2797   2800   2801     1  0.0000000  0.6508444  3
   2798   2797   2800   2802     1  0.0000000  0.6508444  3
   2799   2797   2790   2819     1  0.0000000  0.6508444  3
   2799   2797   2800   2809     1  0.0000000  0.6508444  3
   2799   2797   2800   2801     1  0.0000000  0.6508444  3
   2799   2797   2800   2802     1  0.0000000  0.6508444  3
   2800   2797   2790   2819     1  0.0000000  0.6508444  3
   2801   2800   2809   2818     1  0.0000000  1.0460000  1
   2801   2800   2809   2818     1  0.0000000  0.0000000  3
   2801   2800   2809   2810     1  0.0000000  0.6508444  3
   2801   2800   2809   2811     1  0.0000000  0.6508444  3
   2802   2800   2809   2818     1  0.0000000  1.0460000  1
   2802   2800   2809   2818     1  0.0000000  0.0000000  3
   2802   2800   2809   2810     1  0.0000000  0.6508444  3
   2802   2800   2809   2811     1  0.0000000  0.6508444  3
   2803   2791   2790   2819     1  0.0000000  0.6508444  3
   2804   2803   2815   4674     1  0.0000000  1.0460000  1
   2804   2803   2815   4674     1  0.0000000  0.0000000  3
   2804   2803   2815   2816     1  0.0000000  0.6508444  3
   2804   2803   2815   2817     1  0.0000000  0.6508444  3
   2805   2803   2815   4674     1  0.0000000  1.0460000  1
   2805   2803   2815   4674     1  0.0000000  0.0000000  3
   2805   2803   2815   2816     1  0.0000000  0.6508444  3
   2805   2803   2815   2817     1  0.0000000  0.6508444  3
   2806   2794   2790   2819     1  0.0000000  0.6508444  3
   2807   2806   2812   4660     1  0.0000000  1.0460000  1
   2807   2806   2812   4660     1  0.0000000  0.0000000  3
   2807   2806   2812   2813     1  0.0000000  0.6508444  3
   2807   2806   2812   2814     1  0.0000000  0.6508444  3
   2808   2806   2812   4660     1  0.0000000  1.0460000  1
   2808   2806   2812   4660     1  0.0000000  0.0000000  3
   2808   2806   2812   2813     1  0.0000000  0.6508444  3
   2808   2806   2812   2814     1  0.0000000  0.6508444  3
   2812   4660   4654   4655     1  0.0000000  1.6038667  3
   2812   4660   4654   4656     1  0.0000000  1.6038667  3
   2813   2812   4660   4654     1  0.0000000  1.6038667  3
   2814   2812   4660   4654     1  0.0000000  1.6038667  3
   2815   4674   4668   4669     1  0.0000000  1.6038667  3
   2815   4674   4668   4670     1  0.0000000  1.6038667  3
   2816   2815   4674   4668     1  0.0000000  1.6038667  3
   2817   2815   4674   4668     1  0.0000000  1.6038667  3
   2820   2821   2833   2834     1  0.0000000  0.6508444  3
   2820   2821   2833   2835     1  0.0000000  0.6508444  3
   2820   2824   2836   2837     1  0.0000000  0.6508444  3
   2820   2824   2836   2838     1  0.0000000  0.6508444  3
   2820   2827   2830   2831     1  0.0000000  0.6508444  3
   2820   2827   2830   2832     1  0.0000000  0.6508444  3
   2821   2820   2824   2825     1  0.0000000  0.6508444  3
   2821   2820   2824   2826     1  0.0000000  0.6508444  3
   2821   2820   2827   2828     1  0.0000000  0.6508444  3
   2821   2820   2827   2829     1  0.0000000  0.6508444  3
   2821   2833   2845   2846     1  0.0000000  0.6508444  3
   2821   2833   2845   2847     1  0.0000000  0.6508444  3
   2822   2821   2820   2824     1  0.0000000  0.6508444  3
   2822   2821   2820   2827     1  0.0000000  0.6508444  3
   2822   2821   2820   2849     1  0.0000000  0.6508444  3
   2822   2821   2833   2845     1  0.0000000  0.6508444  3
   2822   2821   2833   2834     1  0.0000000  0.6508444  3
   2822   2821   2833   2835     1  0.0000000  0.6508444  3
   2823   2821   2820   2824     1  0.0000000  0.6508444  3
   2823   2821   2820   2827     1  0.0000000  0.6508444  3
   2823   2821   2820   2849     1  0.0000000  0.6508444  3
   2823   2821   2833   2845     1  0.0000000  0.6508444  3
   2823   2821   2833   2834     1  0.0000000  0.6508444  3
   2823   2821   2833   2835     1  0.0000000  0.6508444  3
   2824   2820   2827   2828     1  0.0000000  0.6508444  3
   2824   2820   2827   2829     1  0.0000000  0.6508444  3
   2824   2836   2842   2843     1  0.0000000  0.6508444  3
   2824   2836   2842   2844     1  0.0000000  0.6508444  3
   2825   2824   2820   2827     1  0.0000000  0.6508444  3
   2825   2824   2820   2849     1  0.0000000  0.6508444  3
   2825   2824   2836   2842     1  0.0000000  0.6508444  3
   2825   2824   2836   2837     1  0.0000000  0.6508444  3
   2825   2824   2836   2838     1  0.0000000  0.6508444  3
   2826   2824   2820   2827     1  0.0000000  0.6508444  3
   2826   2824   2820   2849     1  0.0000000  0.6508444  3
   2826   2824   2836   2842     1  0.0000000  0.6508444  3
   2826   2824   2836   2837     1  0.0000000  0.6508444  3
   2826   2824   2836   2838     1  0.0000000  0.6508444  3
   2827   2830   2839   2840     1  0.0000000  0.6508444  3
   2827   2830   2839   2841     1  0.0000000  0.6508444  3
   2828   2827   2820   2849     1  0.0000000  0.6508444  3
   2828   2827   2830   2839     1  0.0000000  0.6508444  3
   2828   2827   2830   2831     1  0.0000000  0.6508444  3
   2828   2827   2830   2832     1  0.0000000  0.6508444  3
   2829   2827   2820   2849     1  0.0000000  0.6508444  3
   2829   2827   2830   2839     1  0.0000000  0.6508444  3
   2829   2827   2830   2831     1  0.0000000  0.6508444  3
   2829   2827   2830   2832     1  0.0000000  0.6508444  3
   2830   2827   2820   2849     1  0.0000000  0.6508444  3
   2831   2830   2839   2848     1  0.0000000  1.0460000  1
   2831   2830   2839   2848     1  0.0000000  0.0000000  3
   2831   2830   2839   2840     1  0.0000000  0.6508444  3
   2831   2830   2839   2841     1  0.0000000  0.6508444  3
   2832   2830   2839   2848     1  0.0000000  1.0460000  1
   2832   2830   2839   2848     1  0.0000000  0.0000000  3
   2832   2830   2839   2840     1  0.0000000  0.6508444  3
   2832   2830   2839   2841     1  0.0000000  0.6508444  3
   2833   2821   2820   2849     1  0.0000000  0.6508444  3
   2834   2833   2845   4702     1  0.0000000  1.0460000  1
   2834   2833   2845   4702     1  0.0000000  0.0000000  3
   2834   2833   2845   2846     1  0.0000000  0.6508444  3
   2834   2833   2845   2847     1  0.0000000  0.6508444  3
   2835   2833   2845   4702     1  0.0000000  1.0460000  1
   2835   2833   2845   4702     1  0.0000000  0.0000000  3
   2835   2833   2845   2846     1  0.0000000  0.6508444  3
   2835   2833   2845   2847     1  0.0000000  0.6508444  3
   2836   2824   2820   2849     1  0.0000000  0.6508444  3
   2837   2836   2842   4688     1  0.0000000  1.0460000  1
   2837   2836   2842   4688     1  0.0000000  0.0000000  3
   2837   2836   2842   2843     1  0.0000000  0.6508444  3
   2837   2836   2842   2844     1  0.0000000  0.6508444  3
   2838   2836   2842   4688     1  0.0000000  1.0460000  1
   2838   2836   2842   4688     1  0.0000000  0.0000000  3
   2838   2836   2842   2843     1  0.0000000  0.6508444  3
   2838   2836   2842   2844     1  0.0000000  0.6508444  3
   2842   4688   4682   4683     1  0.0000000  1.6038667  3
   2842   4688   4682   4684     1  0.0000000  1.6038667  3
   2843   2842   4688   4682     1  0.0000000  1.6038667  3
   2844   2842   4688   4682     1  0.0000000  1.6038667  3
   2845   4702   4696   4697     1  0.0000000  1.6038667  3
   2845   4702   4696   4698     1  0.0000000  1.6038667  3
   2846   2845   4702   4696     1  0.0000000  1.6038667  3
   2847   2845   4702   4696     1  0.0000000  1.6038667  3
   2850   2851   2863   2864     1  0.0000000  0.6508444  3
   2850   2851   2863   2865     1  0.0000000  0.6508444  3
   2850   2854   2866   2867     1  0.0000000  0.6508444  3
   2850   2854   2866   2868     1  0.0000000  0.6508444  3
   2850   2857   2860   2861     1  0.0000000  0.6508444  3
   2850   2857   2860   2862     1  0.0000000  0.6508444  3
   2851   2850   2854   2855     1  0.0000000  0.6508444  3
   2851   2850   2854   2856     1  0.0000000  0.6508444  3
   2851   2850   2857   2858     1  0.0000000  0.6508444  3
   2851   2850   2857   2859     1  0.0000000  0.6508444  3
   2851   2863   2875   2876     1  0.0000000  0.6508444  3
   2851   2863   2875   2877     1  0.0000000  0.6508444  3
   2852   2851   2850   2854     1  0.0000000  0.6508444  3
   2852   2851   2850   2857     1  0.0000000  0.6508444  3
   2852   2851   2850   2879     1  0.0000000  0.6508444  3
   2852   2851   2863   2875     1  0.0000000  0.6508444  3
   2852   2851   2863   2864     1  0.0000000  0.6508444  3
   2852   2851   2863   2865     1  0.0000000  0.6508444  3
   2853   2851   2850   2854     1  0.0000000  0.6508444  3
   2853   2851   2850   2857     1  0.0000000  0.6508444  3
   2853   2851   2850   2879     1  0.0000000  0.6508444  3
   2853   2851   2863   2875     1  0.0000000  0.6508444  3
   2853   2851   2863   2864     1  0.0000000  0.6508444  3
   2853   2851   2863   2865     1  0.0000000  0.6508444  3
   2854   2850   2857   2858     1  0.0000000  0.6508444  3
   2854   2850   2857   2859     1  0.0000000  0.6508444  3
   2854   2866   2872   2873     1  0.0000000  0.6508444  3
   2854   2866   2872   2874     1  0.0000000  0.6508444  3
   2855   2854   2850   2857     1  0.0000000  0.6508444  3
   2855   2854   2850   2879     1  0.0000000  0.6508444  3
   2855   2854   2866   2872     1  0.0000000  0.6508444  3
   2855   2854   2866   2867     1  0.0000000  0.6508444  3
   2855   2854   2866   2868     1  0.0000000  0.6508444  3
   2856   2854   2850   2857     1  0.0000000  0.6508444  3
   2856   2854   2850   2879     1  0.0000000  0.6508444  3
   2856   2854   2866   2872     1  0.0000000  0.6508444  3
   2856   2854   2866   2867     1  0.0000000  0.6508444  3
   2856   2854   2866   2868     1  0.0000000  0.6508444  3
   2857   2860   2869   2870     1  0.0000000  0.6508444  3
   2857   2860   2869   2871     1  0.0000000  0.6508444  3
   2858   2857   2850   2879     1  0.0000000  0.6508444  3
   2858   2857   2860   2869     1  0.0000000  0.6508444  3
   2858   2857   2860   2861     1  0.0000000  0.6508444  3
   2858   2857   2860   2862     1  0.0000000  0.6508444  3
   2859   2857   2850   2879     1  0.0000000  0.6508444  3
   2859   2857   2860   2869     1  0.0000000  0.6508444  3
   2859   2857   2860   2861     1  0.0000000  0.6508444  3
   2859   2857   2860   2862     1  0.0000000  0.6508444  3
   2860   2857   2850   2879     1  0.0000000  0.6508444  3
   2861   2860   2869   2878     1  0.0000000  1.0460000  1
   2861   2860   2869   2878     1  0.0000000  0.0000000  3
   2861   2860   2869   2870     1  0.0000000  0.6508444  3
   2861   2860   2869   2871     1  0.0000000  0.6508444  3
   2862   2860   2869   2878     1  0.0000000  1.0460000  1
   2862   2860   2869   2878     1  0.0000000  0.0000000  3
   2862   2860   2869   2870     1  0.0000000  0.6508444  3
   2862   2860   2869   2871     1  0.0000000  0.6508444  3
   2863   2851   2850   2879     1  0.0000000  0.6508444  3
   2864   2863   2875   4730     1  0.0000000  1.0460000  1
   2864   2863   2875   4730     1  0.0000000  0.0000000  3
   2864   2863   2875   2876     1  0.0000000  0.6508444  3
   2864   2863   2875   2877     1  0.0000000  0.6508444  3
   2865   2863   2875   4730     1  0.0000000  1.0460000  1
   2865   2863   2875   4730     1  0.0000000  0.0000000  3
   2865   2863   2875   2876     1  0.0000000  0.6508444  3
   2865   2863   2875   2877     1  0.0000000  0.6508444  3
   2866   2854   2850   2879     1  0.0000000  0.6508444  3
   2867   2866   2872   4716     1  0.0000000  1.0460000  1
   2867   2866   2872   4716     1  0.0000000  0.0000000  3
   2867   2866   2872   2873     1  0.0000000  0.6508444  3
   2867   2866   2872   2874     1  0.0000000  0.6508444  3
   2868   2866   2872   4716     1  0.0000000  1.0460000  1
   2868   2866   2872   4716     1  0.0000000  0.0000000  3
   2868   2866   2872   2873     1  0.0000000  0.6508444  3
   2868   2866   2872   2874     1  0.0000000  0.6508444  3
   2872   4716   4710   4711     1  0.0000000  1.6038667  3
   2872   4716   4710   4712     1  0.0000000  1.6038667  3
   2873   2872   4716   4710     1  0.0000000  1.6038667  3
   2874   2872   4716   4710     1  0.0000000  1.6038667  3
   2875   4730   4724   4725     1  0.0000000  1.6038667  3
   2875   4730   4724   4726     1  0.0000000  1.6038667  3
   2876   2875   4730   4724     1  0.0000000  1.6038667  3
   2877   2875   4730   4724     1  0.0000000  1.6038667  3
   2880   2881   2893   2894     1  0.0000000  0.6508444  3
   2880   2881   2893   2895     1  0.0000000  0.6508444  3
   2880   2884   2896   2897     1  0.0000000  0.6508444  3
   2880   2884   2896   2898     1  0.0000000  0.6508444  3
   2880   2887   2890   2891     1  0.0000000  0.6508444  3
   2880   2887   2890   2892     1  0.0000000  0.6508444  3
   2881   2880   2884   2885     1  0.0000000  0.6508444  3
   2881   2880   2884   2886     1  0.0000000  0.6508444  3
   2881   2880   2887   2888     1  0.0000000  0.6508444  3
   2881   2880   2887   2889     1  0.0000000  0.6508444  3
   2881   2893   2905   2906     1  0.0000000  0.6508444  3
   2881   2893   2905   2907     1  0.0000000  0.6508444  3
   2882   2881   2880   2884     1  0.0000000  0.6508444  3
   2882   2881   2880   2887     1  0.0000000  0.6508444  3
   2882   2881   2880   2909     1  0.0000000  0.6508444  3
   2882   2881   2893   2905     1  0.0000000  0.6508444  3
   2882   2881   2893   2894     1  0.0000000  0.6508444  3
   2882   2881   2893   2895     1  0.0000000  0.6508444  3
   2883   2881   2880   2884     1  0.0000000  0.6508444  3
   2883   2881   2880   2887     1  0.0000000  0.6508444  3
   2883   2881   2880   2909     1  0.0000000  0.6508444  3
   2883   2881   2893   2905     1  0.0000000  0.6508444  3
   2883   2881   2893   2894     1  0.0000000  0.6508444  3
   2883   2881   2893   2895     1  0.0000000  0.6508444  3
   2884   2880   2887   2888     1  0.0000000  0.6508444  3
   2884   2880   2887   2889     1  0.0000000  0.6508444  3
   2884   2896   2902   2903     1  0.0000000  0.6508444  3
   2884   2896   2902   2904     1  0.0000000  0.6508444  3
   2885   2884   2880   2887     1  0.0000000  0.6508444  3
   2885   2884   2880   2909     1  0.0000000  0.6508444  3
   2885   2884   2896   2902     1  0.0000000  0.6508444  3
   2885   2884   2896   2897     1  0.0000000  0.6508444  3
   2885   2884   2896   2898     1  0.0000000  0.6508444  3
   2886   2884   2880   2887     1  0.0000000  0.6508444  3
   2886   2884   2880   2909     1  0.0000000  0.6508444  3
   2886   2884   2896   2902     1  0.0000000  0.6508444  3
   2886   2884   2896   2897     1  0.0000000  0.6508444  3
   2886   2884   2896   2898     1  0.0000000  0.6508444  3
   2887   2890   2899   2900     1  0.0000000  0.6508444  3
   2887   2890   2899   2901     1  0.0000000  0.6508444  3
   2888   2887   2880   2909     1  0.0000000  0.6508444  3
   2888   2887   2890   2899     1  0.0000000  0.6508444  3
   2888   2887   2890   2891     1  0.0000000  0.6508444  3
   2888   2887   2890   2892     1  0.0000000  0.6508444  3
   2889   2887   2880   2909     1  0.0000000  0.6508444  3
   2889   2887   2890   2899     1  0.0000000  0.6508444  3
   2889   2887   2890   2891     1  0.0000000  0.6508444  3
   2889   2887   2890   2892     1  0.0000000  0.6508444  3
   2890   2887   2880   2909     1  0.0000000  0.6508444  3
   2891   2890   2899   2908     1  0.0000000  1.0460000  1
   2891   2890   2899   2908     1  0.0000000  0.0000000  3
   2891   2890   2899   2900     1  0.0000000  0.6508444  3
   2891   2890   2899   2901     1  0.0000000  0.6508444  3
   2892   2890   2899   2908     1  0.0000000  1.0460000  1
   2892   2890   2899   2908     1  0.0000000  0.0000000  3
   2892   2890   2899   2900     1  0.0000000  0.6508444  3
   2892   2890   2899   2901     1  0.0000000  0.6508444  3
   2893   2881   2880   2909     1  0.0000000  0.6508444  3
   2894   2893   2905   4758     1  0.0000000  1.0460000  1
   2894   2893   2905   4758     1  0.0000000  0.0000000  3
   2894   2893   2905   2906     1  0.0000000  0.6508444  3
   2894   2893   2905   2907     1  0.0000000  0.6508444  3
   2895   2893   2905   4758     1  0.0000000  1.0460000  1
   2895   2893   2905   4758     1  0.0000000  0.0000000  3
   2895   2893   2905   2906     1  0.0000000  0.6508444  3
   2895   2893   2905   2907     1  0.0000000  0.6508444  3
   2896   2884   2880   2909     1  0.0000000  0.6508444  3
   2897   2896   2902   4744     1  0.0000000  1.0460000  1
   2897   2896   2902   4744     1  0.0000000  0.0000000  3
   2897   2896   2902   2903     1  0.0000000  0.6508444  3
   2897   2896   2902   2904     1  0.0000000  0.6508444  3
   2898   2896   2902   4744     1  0.0000000  1.0460000  1
   2898   2896   2902   4744     1  0.0000000  0.0000000  3
   2898   2896   2902   2903     1  0.0000000  0.6508444  3
   2898   2896   2902   2904     1  0.0000000  0.6508444  3
   2902   4744   4738   4739     1  0.0000000  1.6038667  3
   2902   4744   4738   4740     1  0.0000000  1.6038667  3
   2903   2902   4744   4738     1  0.0000000  1.6038667  3
   2904   2902   4744   4738     1  0.0000000  1.6038667  3
   2905   4758   4752   4753     1  0.0000000  1.6038667  3
   2905   4758   4752   4754     1  0.0000000  1.6038667  3
   2906   2905   4758   4752     1  0.0000000  1.6038667  3
   2907   2905   4758   4752     1  0.0000000  1.6038667  3
   2910   2911   2923   2924     1  0.0000000  0.6508444  3
   2910   2911   2923   2925     1  0.0000000  0.6508444  3
   2910   2914   2926   2927     1  0.0000000  0.6508444  3
   2910   2914   2926   2928     1  0.0000000  0.6508444  3
   2910   2917   2920   2921     1  0.0000000  0.6508444  3
   2910   2917   2920   2922     1  0.0000000  0.6508444  3
   2911   2910   2914   2915     1  0.0000000  0.6508444  3
   2911   2910   2914   2916     1  0.0000000  0.6508444  3
   2911   2910   2917   2918     1  0.0000000  0.6508444  3
   2911   2910   2917   2919     1  0.0000000  0.6508444  3
   2911   2923   2935   2936     1  0.0000000  0.6508444  3
   2911   2923   2935   2937     1  0.0000000  0.6508444  3
   2912   2911   2910   2914     1  0.0000000  0.6508444  3
   2912   2911   2910   2917     1  0.0000000  0.6508444  3
   2912   2911   2910   2939     1  0.0000000  0.6508444  3
   2912   2911   2923   2935     1  0.0000000  0.6508444  3
   2912   2911   2923   2924     1  0.0000000  0.6508444  3
   2912   2911   2923   2925     1  0.0000000  0.6508444  3
   2913   2911   2910   2914     1  0.0000000  0.6508444  3
   2913   2911   2910   2917     1  0.0000000  0.6508444  3
   2913   2911   2910   2939     1  0.0000000  0.6508444  3
   2913   2911   2923   2935     1  0.0000000  0.6508444  3
   2913   2911   2923   2924     1  0.0000000  0.6508444  3
   2913   2911   2923   2925     1  0.0000000  0.6508444  3
   2914   2910   2917   2918     1  0.0000000  0.6508444  3
   2914   2910   2917   2919     1  0.0000000  0.6508444  3
   2914   2926   2932   2933     1  0.0000000  0.6508444  3
   2914   2926   2932   2934     1  0.0000000  0.6508444  3
   2915   2914   2910   2917     1  0.0000000  0.6508444  3
   2915   2914   2910   2939     1  0.0000000  0.6508444  3
   2915   2914   2926   2932     1  0.0000000  0.6508444  3
   2915   2914   2926   2927     1  0.0000000  0.6508444  3
   2915   2914   2926   2928     1  0.0000000  0.6508444  3
   2916   2914   2910   2917     1  0.0000000  0.6508444  3
   2916   2914   2910   2939     1  0.0000000  0.6508444  3
   2916   2914   2926   2932     1  0.0000000  0.6508444  3
   2916   2914   2926   2927     1  0.0000000  0.6508444  3
   2916   2914   2926   2928     1  0.0000000  0.6508444  3
   2917   2920   2929   2930     1  0.0000000  0.6508444  3
   2917   2920   2929   2931     1  0.0000000  0.6508444  3
   2918   2917   2910   2939     1  0.0000000  0.6508444  3
   2918   2917   2920   2929     1  0.0000000  0.6508444  3
   2918   2917   2920   2921     1  0.0000000  0.6508444  3
   2918   2917   2920   2922     1  0.0000000  0.6508444  3
   2919   2917   2910   2939     1  0.0000000  0.6508444  3
   2919   2917   2920   2929     1  0.0000000  0.6508444  3
   2919   2917   2920   2921     1  0.0000000  0.6508444  3
   2919   2917   2920   2922     1  0.0000000  0.6508444  3
   2920   2917   2910   2939     1  0.0000000  0.6508444  3
   2921   2920   2929   2938     1  0.0000000  1.0460000  1
   2921   2920   2929   2938     1  0.0000000  0.0000000  3
   2921   2920   2929   2930     1  0.0000000  0.6508444  3
   2921   2920   2929   2931     1  0.0000000  0.6508444  3
   2922   2920   2929   2938     1  0.0000000  1.0460000  1
   2922   2920   2929   2938     1  0.0000000  0.0000000  3
   2922   2920   2929   2930     1  0.0000000  0.6508444  3
   2922   2920   2929   2931     1  0.0000000  0.6508444  3
   2923   2911   2910   2939     1  0.0000000  0.6508444  3
   2924   2923   2935   4786     1  0.0000000  1.0460000  1
   2924   2923   2935   4786     1  0.0000000  0.0000000  3
   2924   2923   2935   2936     1  0.0000000  0.6508444  3
   2924   2923   2935   2937     1  0.0000000  0.6508444  3
   2925   2923   2935   4786     1  0.0000000  1.0460000  1
   2925   2923   2935   4786     1  0.0000000  0.0000000  3
   2925   2923   2935   2936     1  0.0000000  0.6508444  3
   2925   2923   2935   2937     1  0.0000000  0.6508444  3
   2926   2914   2910   2939     1  0.0000000  0.6508444  3
   2927   2926   2932   4772     1  0.0000000  1.0460000  1
   2927   2926   2932   4772     1  0.0000000  0.0000000  3
   2927   2926   2932   2933     1  0.0000000  0.6508444  3
   2927   2926   2932   2934     1  0.0000000  0.6508444  3
   2928   2926   2932   4772     1  0.0000000  1.0460000  1
   2928   2926   2932   4772     1  0.0000000  0.0000000  3
   2928   2926   2932   2933     1  0.0000000  0.6508444  3
   2928   2926   2932   2934     1  0.0000000  0.6508444  3
   2932   4772   4766   4767     1  0.0000000  1.6038667  3
   2932   4772   4766   4768     1  0.0000000  1.6038667  3
   2933   2932   4772   4766     1  0.0000000  1.6038667  3
   2934   2932   4772   4766     1  0.0000000  1.6038667  3
   2935   4786   4780   4781     1  0.0000000  1.6038667  3
   2935   4786   4780   4782     1  0.0000000  1.6038667  3
   2936   2935   4786   4780     1  0.0000000  1.6038667  3
   2937   2935   4786   4780     1  0.0000000  1.6038667  3
   2940   2941   2953   2954     1  0.0000000  0.6508444  3
   2940   2941   2953   2955     1  0.0000000  0.6508444  3
   2940   2944   2956   2957     1  0.0000000  0.6508444  3
   2940   2944   2956   2958     1  0.0000000  0.6508444  3
   2940   2947   2950   2951     1  0.0000000  0.6508444  3
   2940   2947   2950   2952     1  0.0000000  0.6508444  3
   2941   2940   2944   2945     1  0.0000000  0.6508444  3
   2941   2940   2944   2946     1  0.0000000  0.6508444  3
   2941   2940   2947   2948     1  0.0000000  0.6508444  3
   2941   2940   2947   2949     1  0.0000000  0.6508444  3
   2941   2953   2965   2966     1  0.0000000  0.6508444  3
   2941   2953   2965   2967     1  0.0000000  0.6508444  3
   2942   2941   2940   2944     1  0.0000000  0.6508444  3
   2942   2941   2940   2947     1  0.0000000  0.6508444  3
   2942   2941   2940   2969     1  0.0000000  0.6508444  3
   2942   2941   2953   2965     1  0.0000000  0.6508444  3
   2942   2941   2953   2954     1  0.0000000  0.6508444  3
   2942   2941   2953   2955     1  0.0000000  0.6508444  3
   2943   2941   2940   2944     1  0.0000000  0.6508444  3
   2943   2941   2940   2947     1  0.0000000  0.6508444  3
   2943   2941   2940   2969     1  0.0000000  0.6508444  3
   2943   2941   2953   2965     1  0.0000000  0.6508444  3
   2943   2941   2953   2954     1  0.0000000  0.6508444  3
   2943   2941   2953   2955     1  0.0000000  0.6508444  3
   2944   2940   2947   2948     1  0.0000000  0.6508444  3
   2944   2940   2947   2949     1  0.0000000  0.6508444  3
   2944   2956   2962   2963     1  0.0000000  0.6508444  3
   2944   2956   2962   2964     1  0.0000000  0.6508444  3
   2945   2944   2940   2947     1  0.0000000  0.6508444  3
   2945   2944   2940   2969     1  0.0000000  0.6508444  3
   2945   2944   2956   2962     1  0.0000000  0.6508444  3
   2945   2944   2956   2957     1  0.0000000  0.6508444  3
   2945   2944   2956   2958     1  0.0000000  0.6508444  3
   2946   2944   2940   2947     1  0.0000000  0.6508444  3
   2946   2944   2940   2969     1  0.0000000  0.6508444  3
   2946   2944   2956   2962     1  0.0000000  0.6508444  3
   2946   2944   2956   2957     1  0.0000000  0.6508444  3
   2946   2944   2956   2958     1  0.0000000  0.6508444  3
   2947   2950   2959   2960     1  0.0000000  0.6508444  3
   2947   2950   2959   2961     1  0.0000000  0.6508444  3
   2948   2947   2940   2969     1  0.0000000  0.6508444  3
   2948   2947   2950   2959     1  0.0000000  0.6508444  3
   2948   2947   2950   2951     1  0.0000000  0.6508444  3
   2948   2947   2950   2952     1  0.0000000  0.6508444  3
   2949   2947   2940   2969     1  0.0000000  0.6508444  3
   2949   2947   2950   2959     1  0.0000000  0.6508444  3
   2949   2947   2950   2951     1  0.0000000  0.6508444  3
   2949   2947   2950   2952     1  0.0000000  0.6508444  3
   2950   2947   2940   2969     1  0.0000000  0.6508444  3
   2951   2950   2959   2968     1  0.0000000  1.0460000  1
   2951   2950   2959   2968     1  0.0000000  0.0000000  3
   2951   2950   2959   2960     1  0.0000000  0.6508444  3
   2951   2950   2959   2961     1  0.0000000  0.6508444  3
   2952   2950   2959   2968     1  0.0000000  1.0460000  1
   2952   2950   2959   2968     1  0.0000000  0.0000000  3
   2952   2950   2959   2960     1  0.0000000  0.6508444  3
   2952   2950   2959   2961     1  0.0000000  0.6508444  3
   2953   2941   2940   2969     1  0.0000000  0.6508444  3
   2954   2953   2965   4814     1  0.0000000  1.0460000  1
   2954   2953   2965   4814     1  0.0000000  0.0000000  3
   2954   2953   2965   2966     1  0.0000000  0.6508444  3
   2954   2953   2965   2967     1  0.0000000  0.6508444  3
   2955   2953   2965   4814     1  0.0000000  1.0460000  1
   2955   2953   2965   4814     1  0.0000000  0.0000000  3
   2955   2953   2965   2966     1  0.0000000  0.6508444  3
   2955   2953   2965   2967     1  0.0000000  0.6508444  3
   2956   2944   2940   2969     1  0.0000000  0.6508444  3
   2957   2956   2962   4800     1  0.0000000  1.0460000  1
   2957   2956   2962   4800     1  0.0000000  0.0000000  3
   2957   2956   2962   2963     1  0.0000000  0.6508444  3
   2957   2956   2962   2964     1  0.0000000  0.6508444  3
   2958   2956   2962   4800     1  0.0000000  1.0460000  1
   2958   2956   2962   4800     1  0.0000000  0.0000000  3
   2958   2956   2962   2963     1  0.0000000  0.6508444  3
   2958   2956   2962   2964     1  0.0000000  0.6508444  3
   2962   4800   4794   4795     1  0.0000000  1.6038667  3
   2962   4800   4794   4796     1  0.0000000  1.6038667  3
   2963   2962   4800   4794     1  0.0000000  1.6038667  3
   2964   2962   4800   4794     1  0.0000000  1.6038667  3
   2965   4814   4808   4809     1  0.0000000  1.6038667  3
   2965   4814   4808   4810     1  0.0000000  1.6038667  3
   2966   2965   4814   4808     1  0.0000000  1.6038667  3
   2967   2965   4814   4808     1  0.0000000  1.6038667  3
   2970   2971   2983   2984     1  0.0000000  0.6508444  3
   2970   2971   2983   2985     1  0.0000000  0.6508444  3
   2970   2974   2986   2987     1  0.0000000  0.6508444  3
   2970   2974   2986   2988     1  0.0000000  0.6508444  3
   2970   2977   2980   2981     1  0.0000000  0.6508444  3
   2970   2977   2980   2982     1  0.0000000  0.6508444  3
   2971   2970   2974   2975     1  0.0000000  0.6508444  3
   2971   2970   2974   2976     1  0.0000000  0.6508444  3
   2971   2970   2977   2978     1  0.0000000  0.6508444  3
   2971   2970   2977   2979     1  0.0000000  0.6508444  3
   2971   2983   2995   2996     1  0.0000000  0.6508444  3
   2971   2983   2995   2997     1  0.0000000  0.6508444  3
   2972   2971   2970   2974     1  0.0000000  0.6508444  3
   2972   2971   2970   2977     1  0.0000000  0.6508444  3
   2972   2971   2970   2999     1  0.0000000  0.6508444  3
   2972   2971   2983   2995     1  0.0000000  0.6508444  3
   2972   2971   2983   2984     1  0.0000000  0.6508444  3
   2972   2971   2983   2985     1  0.0000000  0.6508444  3
   2973   2971   2970   2974     1  0.0000000  0.6508444  3
   2973   2971   2970   2977     1  0.0000000  0.6508444  3
   2973   2971   2970   2999     1  0.0000000  0.6508444  3
   2973   2971   2983   2995     1  0.0000000  0.6508444  3
   2973   2971   2983   2984     1  0.0000000  0.6508444  3
   2973   2971   2983   2985     1  0.0000000  0.6508444  3
   2974   2970   2977   2978     1  0.0000000  0.6508444  3
   2974   2970   2977   2979     1  0.0000000  0.6508444  3
   2974   2986   2992   2993     1  0.0000000  0.6508444  3
   2974   2986   2992   2994     1  0.0000000  0.6508444  3
   2975   2974   2970   2977     1  0.0000000  0.6508444  3
   2975   2974   2970   2999     1  0.0000000  0.6508444  3
   2975   2974   2986   2992     1  0.0000000  0.6508444  3
   2975   2974   2986   2987     1  0.0000000  0.6508444  3
   2975   2974   2986   2988     1  0.0000000  0.6508444  3
   2976   2974   2970   2977     1  0.0000000  0.6508444  3
   2976   2974   2970   2999     1  0.0000000  0.6508444  3
   2976   2974   2986   2992     1  0.0000000  0.6508444  3
   2976   2974   2986   2987     1  0.0000000  0.6508444  3
   2976   2974   2986   2988     1  0.0000000  0.6508444  3
   2977   2980   2989   2990     1  0.0000000  0.6508444  3
   2977   2980   2989   2991     1  0.0000000  0.6508444  3
   2978   2977   2970   2999     1  0.0000000  0.6508444  3
   2978   2977   2980   2989     1  0.0000000  0.6508444  3
   2978   2977   2980   2981     1  0.0000000  0.6508444  3
   2978   2977   2980   2982     1  0.0000000  0.6508444  3
   2979   2977   2970   2999     1  0.0000000  0.6508444  3
   2979   2977   2980   2989     1  0.0000000  0.6508444  3
   2979   2977   2980   2981     1  0.0000000  0.6508444  3
   2979   2977   2980   2982     1  0.0000000  0.6508444  3
   2980   2977   2970   2999     1  0.0000000  0.6508444  3
   2981   2980   2989   2998     1  0.0000000  1.0460000  1
   2981   2980   2989   2998     1  0.0000000  0.0000000  3
   2981   2980   2989   2990     1  0.0000000  0.6508444  3
   2981   2980   2989   2991     1  0.0000000  0.6508444  3
   2982   2980   2989   2998     1  0.0000000  1.0460000  1
   2982   2980   2989   2998     1  0.0000000  0.0000000  3
   2982   2980   2989   2990     1  0.0000000  0.6508444  3
   2982   2980   2989   2991     1  0.0000000  0.6508444  3
   2983   2971   2970   2999     1  0.0000000  0.6508444  3
   2984   2983   2995   4842     1  0.0000000  1.0460000  1
   2984   2983   2995   4842     1  0.0000000  0.0000000  3
   2984   2983   2995   2996     1  0.0000000  0.6508444  3
   2984   2983   2995   2997     1  0.0000000  0.6508444  3
   2985   2983   2995   4842     1  0.0000000  1.0460000  1
   2985   2983   2995   4842     1  0.0000000  0.0000000  3
   2985   2983   2995   2996     1  0.0000000  0.6508444  3
   2985   2983   2995   2997     1  0.0000000  0.6508444  3
   2986   2974   2970   2999     1  0.0000000  0.6508444  3
   2987   2986   2992   4828     1  0.0000000  1.0460000  1
   2987   2986   2992   4828     1  0.0000000  0.0000000  3
   2987   2986   2992   2993     1  0.0000000  0.6508444  3
   2987   2986   2992   2994     1  0.0000000  0.6508444  3
   2988   2986   2992   4828     1  0.0000000  1.0460000  1
   2988   2986   2992   4828     1  0.0000000  0.0000000  3
   2988   2986   2992   2993     1  0.0000000  0.6508444  3
   2988   2986   2992   2994     1  0.0000000  0.6508444  3
   2992   4828   4822   4823     1  0.0000000  1.6038667  3
   2992   4828   4822   4824     1  0.0000000  1.6038667  3
   2993   2992   4828   4822     1  0.0000000  1.6038667  3
   2994   2992   4828   4822     1  0.0000000  1.6038667  3
   2995   4842   4836   4837     1  0.0000000  1.6038667  3
   2995   4842   4836   4838     1  0.0000000  1.6038667  3
   2996   2995   4842   4836     1  0.0000000  1.6038667  3
   2997   2995   4842   4836     1  0.0000000  1.6038667  3
   3000   3001   3013   3014     1  0.0000000  0.6508444  3
   3000   3001   3013   3015     1  0.0000000  0.6508444  3
   3000   3004   3016   3017     1  0.0000000  0.6508444  3
   3000   3004   3016   3018     1  0.0000000  0.6508444  3
   3000   3007   3010   3011     1  0.0000000  0.6508444  3
   3000   3007   3010   3012     1  0.0000000  0.6508444  3
   3001   3000   3004   3005     1  0.0000000  0.6508444  3
   3001   3000   3004   3006     1  0.0000000  0.6508444  3
   3001   3000   3007   3008     1  0.0000000  0.6508444  3
   3001   3000   3007   3009     1  0.0000000  0.6508444  3
   3001   3013   3025   3026     1  0.0000000  0.6508444  3
   3001   3013   3025   3027     1  0.0000000  0.6508444  3
   3002   3001   3000   3004     1  0.0000000  0.6508444  3
   3002   3001   3000   3007     1  0.0000000  0.6508444  3
   3002   3001   3000   3029     1  0.0000000  0.6508444  3
   3002   3001   3013   3025     1  0.0000000  0.6508444  3
   3002   3001   3013   3014     1  0.0000000  0.6508444  3
   3002   3001   3013   3015     1  0.0000000  0.6508444  3
   3003   3001   3000   3004     1  0.0000000  0.6508444  3
   3003   3001   3000   3007     1  0.0000000  0.6508444  3
   3003   3001   3000   3029     1  0.0000000  0.6508444  3
   3003   3001   3013   3025     1  0.0000000  0.6508444  3
   3003   3001   3013   3014     1  0.0000000  0.6508444  3
   3003   3001   3013   3015     1  0.0000000  0.6508444  3
   3004   3000   3007   3008     1  0.0000000  0.6508444  3
   3004   3000   3007   3009     1  0.0000000  0.6508444  3
   3004   3016   3022   3023     1  0.0000000  0.6508444  3
   3004   3016   3022   3024     1  0.0000000  0.6508444  3
   3005   3004   3000   3007     1  0.0000000  0.6508444  3
   3005   3004   3000   3029     1  0.0000000  0.6508444  3
   3005   3004   3016   3022     1  0.0000000  0.6508444  3
   3005   3004   3016   3017     1  0.0000000  0.6508444  3
   3005   3004   3016   3018     1  0.0000000  0.6508444  3
   3006   3004   3000   3007     1  0.0000000  0.6508444  3
   3006   3004   3000   3029     1  0.0000000  0.6508444  3
   3006   3004   3016   3022     1  0.0000000  0.6508444  3
   3006   3004   3016   3017     1  0.0000000  0.6508444  3
   3006   3004   3016   3018     1  0.0000000  0.6508444  3
   3007   3010   3019   3020     1  0.0000000  0.6508444  3
   3007   3010   3019   3021     1  0.0000000  0.6508444  3
   3008   3007   3000   3029     1  0.0000000  0.6508444  3
   3008   3007   3010   3019     1  0.0000000  0.6508444  3
   3008   3007   3010   3011     1  0.0000000  0.6508444  3
   3008   3007   3010   3012     1  0.0000000  0.6508444  3
   3009   3007   3000   3029     1  0.0000000  0.6508444  3
   3009   3007   3010   3019     1  0.0000000  0.6508444  3
   3009   3007   3010   3011     1  0.0000000  0.6508444  3
   3009   3007   3010   3012     1  0.0000000  0.6508444  3
   3010   3007   3000   3029     1  0.0000000  0.6508444  3
   3011   3010   3019   3028     1  0.0000000  1.0460000  1
   3011   3010   3019   3028     1  0.0000000  0.0000000  3
   3011   3010   3019   3020     1  0.0000000  0.6508444  3
   3011   3010   3019   3021     1  0.0000000  0.6508444  3
   3012   3010   3019   3028     1  0.0000000  1.0460000  1
   3012   3010   3019   3028     1  0.0000000  0.0000000  3
   3012   3010   3019   3020     1  0.0000000  0.6508444  3
   3012   3010   3019   3021     1  0.0000000  0.6508444  3
   3013   3001   3000   3029     1  0.0000000  0.6508444  3
   3014   3013   3025   4870     1  0.0000000  1.0460000  1
   3014   3013   3025   4870     1  0.0000000  0.0000000  3
   3014   3013   3025   3026     1  0.0000000  0.6508444  3
   3014   3013   3025   3027     1  0.0000000  0.6508444  3
   3015   3013   3025   4870     1  0.0000000  1.0460000  1
   3015   3013   3025   4870     1  0.0000000  0.0000000  3
   3015   3013   3025   3026     1  0.0000000  0.6508444  3
   3015   3013   3025   3027     1  0.0000000  0.6508444  3
   3016   3004   3000   3029     1  0.0000000  0.6508444  3
   3017   3016   3022   4856     1  0.0000000  1.0460000  1
   3017   3016   3022   4856     1  0.0000000  0.0000000  3
   3017   3016   3022   3023     1  0.0000000  0.6508444  3
   3017   3016   3022   3024     1  0.0000000  0.6508444  3
   3018   3016   3022   4856     1  0.0000000  1.0460000  1
   3018   3016   3022   4856     1  0.0000000  0.0000000  3
   3018   3016   3022   3023     1  0.0000000  0.6508444  3
   3018   3016   3022   3024     1  0.0000000  0.6508444  3
   3022   4856   4850   4851     1  0.0000000  1.6038667  3
   3022   4856   4850   4852     1  0.0000000  1.6038667  3
   3023   3022   4856   4850     1  0.0000000  1.6038667  3
   3024   3022   4856   4850     1  0.0000000  1.6038667  3
   3025   4870   4864   4865     1  0.0000000  1.6038667  3
   3025   4870   4864   4866     1  0.0000000  1.6038667  3
   3026   3025   4870   4864     1  0.0000000  1.6038667  3
   3027   3025   4870   4864     1  0.0000000  1.6038667  3
   3030   3031   3043   3044     1  0.0000000  0.6508444  3
   3030   3031   3043   3045     1  0.0000000  0.6508444  3
   3030   3034   3046   3047     1  0.0000000  0.6508444  3
   3030   3034   3046   3048     1  0.0000000  0.6508444  3
   3030   3037   3040   3041     1  0.0000000  0.6508444  3
   3030   3037   3040   3042     1  0.0000000  0.6508444  3
   3031   3030   3034   3035     1  0.0000000  0.6508444  3
   3031   3030   3034   3036     1  0.0000000  0.6508444  3
   3031   3030   3037   3038     1  0.0000000  0.6508444  3
   3031   3030   3037   3039     1  0.0000000  0.6508444  3
   3031   3043   3055   3056     1  0.0000000  0.6508444  3
   3031   3043   3055   3057     1  0.0000000  0.6508444  3
   3032   3031   3030   3034     1  0.0000000  0.6508444  3
   3032   3031   3030   3037     1  0.0000000  0.6508444  3
   3032   3031   3030   3059     1  0.0000000  0.6508444  3
   3032   3031   3043   3055     1  0.0000000  0.6508444  3
   3032   3031   3043   3044     1  0.0000000  0.6508444  3
   3032   3031   3043   3045     1  0.0000000  0.6508444  3
   3033   3031   3030   3034     1  0.0000000  0.6508444  3
   3033   3031   3030   3037     1  0.0000000  0.6508444  3
   3033   3031   3030   3059     1  0.0000000  0.6508444  3
   3033   3031   3043   3055     1  0.0000000  0.6508444  3
   3033   3031   3043   3044     1  0.0000000  0.6508444  3
   3033   3031   3043   3045     1  0.0000000  0.6508444  3
   3034   3030   3037   3038     1  0.0000000  0.6508444  3
   3034   3030   3037   3039     1  0.0000000  0.6508444  3
   3034   3046   3052   3053     1  0.0000000  0.6508444  3
   3034   3046   3052   3054     1  0.0000000  0.6508444  3
   3035   3034   3030   3037     1  0.0000000  0.6508444  3
   3035   3034   3030   3059     1  0.0000000  0.6508444  3
   3035   3034   3046   3052     1  0.0000000  0.6508444  3
   3035   3034   3046   3047     1  0.0000000  0.6508444  3
   3035   3034   3046   3048     1  0.0000000  0.6508444  3
   3036   3034   3030   3037     1  0.0000000  0.6508444  3
   3036   3034   3030   3059     1  0.0000000  0.6508444  3
   3036   3034   3046   3052     1  0.0000000  0.6508444  3
   3036   3034   3046   3047     1  0.0000000  0.6508444  3
   3036   3034   3046   3048     1  0.0000000  0.6508444  3
   3037   3040   3049   3050     1  0.0000000  0.6508444  3
   3037   3040   3049   3051     1  0.0000000  0.6508444  3
   3038   3037   3030   3059     1  0.0000000  0.6508444  3
   3038   3037   3040   3049     1  0.0000000  0.6508444  3
   3038   3037   3040   3041     1  0.0000000  0.6508444  3
   3038   3037   3040   3042     1  0.0000000  0.6508444  3
   3039   3037   3030   3059     1  0.0000000  0.6508444  3
   3039   3037   3040   3049     1  0.0000000  0.6508444  3
   3039   3037   3040   3041     1  0.0000000  0.6508444  3
   3039   3037   3040   3042     1  0.0000000  0.6508444  3
   3040   3037   3030   3059     1  0.0000000  0.6508444  3
   3041   3040   3049   3058     1  0.0000000  1.0460000  1
   3041   3040   3049   3058     1  0.0000000  0.0000000  3
   3041   3040   3049   3050     1  0.0000000  0.6508444  3
   3041   3040   3049   3051     1  0.0000000  0.6508444  3
   3042   3040   3049   3058     1  0.0000000  1.0460000  1
   3042   3040   3049   3058     1  0.0000000  0.0000000  3
   3042   3040   3049   3050     1  0.0000000  0.6508444  3
   3042   3040   3049   3051     1  0.0000000  0.6508444  3
   3043   3031   3030   3059     1  0.0000000  0.6508444  3
   3044   3043   3055   4898     1  0.0000000  1.0460000  1
   3044   3043   3055   4898     1  0.0000000  0.0000000  3
   3044   3043   3055   3056     1  0.0000000  0.6508444  3
   3044   3043   3055   3057     1  0.0000000  0.6508444  3
   3045   3043   3055   4898     1  0.0000000  1.0460000  1
   3045   3043   3055   4898     1  0.0000000  0.0000000  3
   3045   3043   3055   3056     1  0.0000000  0.6508444  3
   3045   3043   3055   3057     1  0.0000000  0.6508444  3
   3046   3034   3030   3059     1  0.0000000  0.6508444  3
   3047   3046   3052   4884     1  0.0000000  1.0460000  1
   3047   3046   3052   4884     1  0.0000000  0.0000000  3
   3047   3046   3052   3053     1  0.0000000  0.6508444  3
   3047   3046   3052   3054     1  0.0000000  0.6508444  3
   3048   3046   3052   4884     1  0.0000000  1.0460000  1
   3048   3046   3052   4884     1  0.0000000  0.0000000  3
   3048   3046   3052   3053     1  0.0000000  0.6508444  3
   3048   3046   3052   3054     1  0.0000000  0.6508444  3
   3052   4884   4878   4879     1  0.0000000  1.6038667  3
   3052   4884   4878   4880     1  0.0000000  1.6038667  3
   3053   3052   4884   4878     1  0.0000000  1.6038667  3
   3054   3052   4884   4878     1  0.0000000  1.6038667  3
   3055   4898   4892   4893     1  0.0000000  1.6038667  3
   3055   4898   4892   4894     1  0.0000000  1.6038667  3
   3056   3055   4898   4892     1  0.0000000  1.6038667  3
   3057   3055   4898   4892     1  0.0000000  1.6038667  3
   3060   3061   3073   3074     1  0.0000000  0.6508444  3
   3060   3061   3073   3075     1  0.0000000  0.6508444  3
   3060   3064   3076   3077     1  0.0000000  0.6508444  3
   3060   3064   3076   3078     1  0.0000000  0.6508444  3
   3060   3067   3070   3071     1  0.0000000  0.6508444  3
   3060   3067   3070   3072     1  0.0000000  0.6508444  3
   3061   3060   3064   3065     1  0.0000000  0.6508444  3
   3061   3060   3064   3066     1  0.0000000  0.6508444  3
   3061   3060   3067   3068     1  0.0000000  0.6508444  3
   3061   3060   3067   3069     1  0.0000000  0.6508444  3
   3061   3073   3085   3086     1  0.0000000  0.6508444  3
   3061   3073   3085   3087     1  0.0000000  0.6508444  3
   3062   3061   3060   3064     1  0.0000000  0.6508444  3
   3062   3061   3060   3067     1  0.0000000  0.6508444  3
   3062   3061   3060   3089     1  0.0000000  0.6508444  3
   3062   3061   3073   3085     1  0.0000000  0.6508444  3
   3062   3061   3073   3074     1  0.0000000  0.6508444  3
   3062   3061   3073   3075     1  0.0000000  0.6508444  3
   3063   3061   3060   3064     1  0.0000000  0.6508444  3
   3063   3061   3060   3067     1  0.0000000  0.6508444  3
   3063   3061   3060   3089     1  0.0000000  0.6508444  3
   3063   3061   3073   3085     1  0.0000000  0.6508444  3
   3063   3061   3073   3074     1  0.0000000  0.6508444  3
   3063   3061   3073   3075     1  0.0000000  0.6508444  3
   3064   3060   3067   3068     1  0.0000000  0.6508444  3
   3064   3060   3067   3069     1  0.0000000  0.6508444  3
   3064   3076   3082   3083     1  0.0000000  0.6508444  3
   3064   3076   3082   3084     1  0.0000000  0.6508444  3
   3065   3064   3060   3067     1  0.0000000  0.6508444  3
   3065   3064   3060   3089     1  0.0000000  0.6508444  3
   3065   3064   3076   3082     1  0.0000000  0.6508444  3
   3065   3064   3076   3077     1  0.0000000  0.6508444  3
   3065   3064   3076   3078     1  0.0000000  0.6508444  3
   3066   3064   3060   3067     1  0.0000000  0.6508444  3
   3066   3064   3060   3089     1  0.0000000  0.6508444  3
   3066   3064   3076   3082     1  0.0000000  0.6508444  3
   3066   3064   3076   3077     1  0.0000000  0.6508444  3
   3066   3064   3076   3078     1  0.0000000  0.6508444  3
   3067   3070   3079   3080     1  0.0000000  0.6508444  3
   3067   3070   3079   3081     1  0.0000000  0.6508444  3
   3068   3067   3060   3089     1  0.0000000  0.6508444  3
   3068   3067   3070   3079     1  0.0000000  0.6508444  3
   3068   3067   3070   3071     1  0.0000000  0.6508444  3
   3068   3067   3070   3072     1  0.0000000  0.6508444  3
   3069   3067   3060   3089     1  0.0000000  0.6508444  3
   3069   3067   3070   3079     1  0.0000000  0.6508444  3
   3069   3067   3070   3071     1  0.0000000  0.6508444  3
   3069   3067   3070   3072     1  0.0000000  0.6508444  3
   3070   3067   3060   3089     1  0.0000000  0.6508444  3
   3071   3070   3079   3088     1  0.0000000  1.0460000  1
   3071   3070   3079   3088     1  0.0000000  0.0000000  3
   3071   3070   3079   3080     1  0.0000000  0.6508444  3
   3071   3070   3079   3081     1  0.0000000  0.6508444  3
   3072   3070   3079   3088     1  0.0000000  1.0460000  1
   3072   3070   3079   3088     1  0.0000000  0.0000000  3
   3072   3070   3079   3080     1  0.0000000  0.6508444  3
   3072   3070   3079   3081     1  0.0000000  0.6508444  3
   3073   3061   3060   3089     1  0.0000000  0.6508444  3
   3074   3073   3085   4926     1  0.0000000  1.0460000  1
   3074   3073   3085   4926     1  0.0000000  0.0000000  3
   3074   3073   3085   3086     1  0.0000000  0.6508444  3
   3074   3073   3085   3087     1  0.0000000  0.6508444  3
   3075   3073   3085   4926     1  0.0000000  1.0460000  1
   3075   3073   3085   4926     1  0.0000000  0.0000000  3
   3075   3073   3085   3086     1  0.0000000  0.6508444  3
   3075   3073   3085   3087     1  0.0000000  0.6508444  3
   3076   3064   3060   3089     1  0.0000000  0.6508444  3
   3077   3076   3082   4912     1  0.0000000  1.0460000  1
   3077   3076   3082   4912     1  0.0000000  0.0000000  3
   3077   3076   3082   3083     1  0.0000000  0.6508444  3
   3077   3076   3082   3084     1  0.0000000  0.6508444  3
   3078   3076   3082   4912     1  0.0000000  1.0460000  1
   3078   3076   3082   4912     1  0.0000000  0.0000000  3
   3078   3076   3082   3083     1  0.0000000  0.6508444  3
   3078   3076   3082   3084     1  0.0000000  0.6508444  3
   3082   4912   4906   4907     1  0.0000000  1.6038667  3
   3082   4912   4906   4908     1  0.0000000  1.6038667  3
   3083   3082   4912   4906     1  0.0000000  1.6038667  3
   3084   3082   4912   4906     1  0.0000000  1.6038667  3
   3085   4926   4920   4921     1  0.0000000  1.6038667  3
   3085   4926   4920   4922     1  0.0000000  1.6038667  3
   3086   3085   4926   4920     1  0.0000000  1.6038667  3
   3087   3085   4926   4920     1  0.0000000  1.6038667  3
   3090   3091   3103   3104     1  0.0000000  0.6508444  3
   3090   3091   3103   3105     1  0.0000000  0.6508444  3
   3090   3094   3106   3107     1  0.0000000  0.6508444  3
   3090   3094   3106   3108     1  0.0000000  0.6508444  3
   3090   3097   3100   3101     1  0.0000000  0.6508444  3
   3090   3097   3100   3102     1  0.0000000  0.6508444  3
   3091   3090   3094   3095     1  0.0000000  0.6508444  3
   3091   3090   3094   3096     1  0.0000000  0.6508444  3
   3091   3090   3097   3098     1  0.0000000  0.6508444  3
   3091   3090   3097   3099     1  0.0000000  0.6508444  3
   3091   3103   3115   3116     1  0.0000000  0.6508444  3
   3091   3103   3115   3117     1  0.0000000  0.6508444  3
   3092   3091   3090   3094     1  0.0000000  0.6508444  3
   3092   3091   3090   3097     1  0.0000000  0.6508444  3
   3092   3091   3090   3119     1  0.0000000  0.6508444  3
   3092   3091   3103   3115     1  0.0000000  0.6508444  3
   3092   3091   3103   3104     1  0.0000000  0.6508444  3
   3092   3091   3103   3105     1  0.0000000  0.6508444  3
   3093   3091   3090   3094     1  0.0000000  0.6508444  3
   3093   3091   3090   3097     1  0.0000000  0.6508444  3
   3093   3091   3090   3119     1  0.0000000  0.6508444  3
   3093   3091   3103   3115     1  0.0000000  0.6508444  3
   3093   3091   3103   3104     1  0.0000000  0.6508444  3
   3093   3091   3103   3105     1  0.0000000  0.6508444  3
   3094   3090   3097   3098     1  0.0000000  0.6508444  3
   3094   3090   3097   3099     1  0.0000000  0.6508444  3
   3094   3106   3112   3113     1  0.0000000  0.6508444  3
   3094   3106   3112   3114     1  0.0000000  0.6508444  3
   3095   3094   3090   3097     1  0.0000000  0.6508444  3
   3095   3094   3090   3119     1  0.0000000  0.6508444  3
   3095   3094   3106   3112     1  0.0000000  0.6508444  3
   3095   3094   3106   3107     1  0.0000000  0.6508444  3
   3095   3094   3106   3108     1  0.0000000  0.6508444  3
   3096   3094   3090   3097     1  0.0000000  0.6508444  3
   3096   3094   3090   3119     1  0.0000000  0.6508444  3
   3096   3094   3106   3112     1  0.0000000  0.6508444  3
   3096   3094   3106   3107     1  0.0000000  0.6508444  3
   3096   3094   3106   3108     1  0.0000000  0.6508444  3
   3097   3100   3109   3110     1  0.0000000  0.6508444  3
   3097   3100   3109   3111     1  0.0000000  0.6508444  3
   3098   3097   3090   3119     1  0.0000000  0.6508444  3
   3098   3097   3100   3109     1  0.0000000  0.6508444  3
   3098   3097   3100   3101     1  0.0000000  0.6508444  3
   3098   3097   3100   3102     1  0.0000000  0.6508444  3
   3099   3097   3090   3119     1  0.0000000  0.6508444  3
   3099   3097   3100   3109     1  0.0000000  0.6508444  3
   3099   3097   3100   3101     1  0.0000000  0.6508444  3
   3099   3097   3100   3102     1  0.0000000  0.6508444  3
   3100   3097   3090   3119     1  0.0000000  0.6508444  3
   3101   3100   3109   3118     1  0.0000000  1.0460000  1
   3101   3100   3109   3118     1  0.0000000  0.0000000  3
   3101   3100   3109   3110     1  0.0000000  0.6508444  3
   3101   3100   3109   3111     1  0.0000000  0.6508444  3
   3102   3100   3109   3118     1  0.0000000  1.0460000  1
   3102   3100   3109   3118     1  0.0000000  0.0000000  3
   3102   3100   3109   3110     1  0.0000000  0.6508444  3
   3102   3100   3109   3111     1  0.0000000  0.6508444  3
   3103   3091   3090   3119     1  0.0000000  0.6508444  3
   3104   3103   3115   4954     1  0.0000000  1.0460000  1
   3104   3103   3115   4954     1  0.0000000  0.0000000  3
   3104   3103   3115   3116     1  0.0000000  0.6508444  3
   3104   3103   3115   3117     1  0.0000000  0.6508444  3
   3105   3103   3115   4954     1  0.0000000  1.0460000  1
   3105   3103   3115   4954     1  0.0000000  0.0000000  3
   3105   3103   3115   3116     1  0.0000000  0.6508444  3
   3105   3103   3115   3117     1  0.0000000  0.6508444  3
   3106   3094   3090   3119     1  0.0000000  0.6508444  3
   3107   3106   3112   4940     1  0.0000000  1.0460000  1
   3107   3106   3112   4940     1  0.0000000  0.0000000  3
   3107   3106   3112   3113     1  0.0000000  0.6508444  3
   3107   3106   3112   3114     1  0.0000000  0.6508444  3
   3108   3106   3112   4940     1  0.0000000  1.0460000  1
   3108   3106   3112   4940     1  0.0000000  0.0000000  3
   3108   3106   3112   3113     1  0.0000000  0.6508444  3
   3108   3106   3112   3114     1  0.0000000  0.6508444  3
   3112   4940   4934   4935     1  0.0000000  1.6038667  3
   3112   4940   4934   4936     1  0.0000000  1.6038667  3
   3113   3112   4940   4934     1  0.0000000  1.6038667  3
   3114   3112   4940   4934     1  0.0000000  1.6038667  3
   3115   4954   4948   4949     1  0.0000000  1.6038667  3
   3115   4954   4948   4950     1  0.0000000  1.6038667  3
   3116   3115   4954   4948     1  0.0000000  1.6038667  3
   3117   3115   4954   4948     1  0.0000000  1.6038667  3
   3120   3121   3133   3134     1  0.0000000  0.6508444  3
   3120   3121   3133   3135     1  0.0000000  0.6508444  3
   3120   3124   3136   3137     1  0.0000000  0.6508444  3
   3120   3124   3136   3138     1  0.0000000  0.6508444  3
   3120   3127   3130   3131     1  0.0000000  0.6508444  3
   3120   3127   3130   3132     1  0.0000000  0.6508444  3
   3121   3120   3124   3125     1  0.0000000  0.6508444  3
   3121   3120   3124   3126     1  0.0000000  0.6508444  3
   3121   3120   3127   3128     1  0.0000000  0.6508444  3
   3121   3120   3127   3129     1  0.0000000  0.6508444  3
   3121   3133   3145   3146     1  0.0000000  0.6508444  3
   3121   3133   3145   3147     1  0.0000000  0.6508444  3
   3122   3121   3120   3124     1  0.0000000  0.6508444  3
   3122   3121   3120   3127     1  0.0000000  0.6508444  3
   3122   3121   3120   3149     1  0.0000000  0.6508444  3
   3122   3121   3133   3145     1  0.0000000  0.6508444  3
   3122   3121   3133   3134     1  0.0000000  0.6508444  3
   3122   3121   3133   3135     1  0.0000000  0.6508444  3
   3123   3121   3120   3124     1  0.0000000  0.6508444  3
   3123   3121   3120   3127     1  0.0000000  0.6508444  3
   3123   3121   3120   3149     1  0.0000000  0.6508444  3
   3123   3121   3133   3145     1  0.0000000  0.6508444  3
   3123   3121   3133   3134     1  0.0000000  0.6508444  3
   3123   3121   3133   3135     1  0.0000000  0.6508444  3
   3124   3120   3127   3128     1  0.0000000  0.6508444  3
   3124   3120   3127   3129     1  0.0000000  0.6508444  3
   3124   3136   3142   3143     1  0.0000000  0.6508444  3
   3124   3136   3142   3144     1  0.0000000  0.6508444  3
   3125   3124   3120   3127     1  0.0000000  0.6508444  3
   3125   3124   3120   3149     1  0.0000000  0.6508444  3
   3125   3124   3136   3142     1  0.0000000  0.6508444  3
   3125   3124   3136   3137     1  0.0000000  0.6508444  3
   3125   3124   3136   3138     1  0.0000000  0.6508444  3
   3126   3124   3120   3127     1  0.0000000  0.6508444  3
   3126   3124   3120   3149     1  0.0000000  0.6508444  3
   3126   3124   3136   3142     1  0.0000000  0.6508444  3
   3126   3124   3136   3137     1  0.0000000  0.6508444  3
   3126   3124   3136   3138     1  0.0000000  0.6508444  3
   3127   3130   3139   3140     1  0.0000000  0.6508444  3
   3127   3130   3139   3141     1  0.0000000  0.6508444  3
   3128   3127   3120   3149     1  0.0000000  0.6508444  3
   3128   3127   3130   3139     1  0.0000000  0.6508444  3
   3128   3127   3130   3131     1  0.0000000  0.6508444  3
   3128   3127   3130   3132     1  0.0000000  0.6508444  3
   3129   3127   3120   3149     1  0.0000000  0.6508444  3
   3129   3127   3130   3139     1  0.0000000  0.6508444  3
   3129   3127   3130   3131     1  0.0000000  0.6508444  3
   3129   3127   3130   3132     1  0.0000000  0.6508444  3
   3130   3127   3120   3149     1  0.0000000  0.6508444  3
   3131   3130   3139   3148     1  0.0000000  1.0460000  1
   3131   3130   3139   3148     1  0.0000000  0.0000000  3
   3131   3130   3139   3140     1  0.0000000  0.6508444  3
   3131   3130   3139   3141     1  0.0000000  0.6508444  3
   3132   3130   3139   3148     1  0.0000000  1.0460000  1
   3132   3130   3139   3148     1  0.0000000  0.0000000  3
   3132   3130   3139   3140     1  0.0000000  0.6508444  3
   3132   3130   3139   3141     1  0.0000000  0.6508444  3
   3133   3121   3120   3149     1  0.0000000  0.6508444  3
   3134   3133   3145   4982     1  0.0000000  1.0460000  1
   3134   3133   3145   4982     1  0.0000000  0.0000000  3
   3134   3133   3145   3146     1  0.0000000  0.6508444  3
   3134   3133   3145   3147     1  0.0000000  0.6508444  3
   3135   3133   3145   4982     1  0.0000000  1.0460000  1
   3135   3133   3145   4982     1  0.0000000  0.0000000  3
   3135   3133   3145   3146     1  0.0000000  0.6508444  3
   3135   3133   3145   3147     1  0.0000000  0.6508444  3
   3136   3124   3120   3149     1  0.0000000  0.6508444  3
   3137   3136   3142   4968     1  0.0000000  1.0460000  1
   3137   3136   3142   4968     1  0.0000000  0.0000000  3
   3137   3136   3142   3143     1  0.0000000  0.6508444  3
   3137   3136   3142   3144     1  0.0000000  0.6508444  3
   3138   3136   3142   4968     1  0.0000000  1.0460000  1
   3138   3136   3142   4968     1  0.0000000  0.0000000  3
   3138   3136   3142   3143     1  0.0000000  0.6508444  3
   3138   3136   3142   3144     1  0.0000000  0.6508444  3
   3142   4968   4962   4963     1  0.0000000  1.6038667  3
   3142   4968   4962   4964     1  0.0000000  1.6038667  3
   3143   3142   4968   4962     1  0.0000000  1.6038667  3
   3144   3142   4968   4962     1  0.0000000  1.6038667  3
   3145   4982   4976   4977     1  0.0000000  1.6038667  3
   3145   4982   4976   4978     1  0.0000000  1.6038667  3
   3146   3145   4982   4976     1  0.0000000  1.6038667  3
   3147   3145   4982   4976     1  0.0000000  1.6038667  3
   3150   3151   3163   3164     1  0.0000000  0.6508444  3
   3150   3151   3163   3165     1  0.0000000  0.6508444  3
   3150   3154   3166   3167     1  0.0000000  0.6508444  3
   3150   3154   3166   3168     1  0.0000000  0.6508444  3
   3150   3157   3160   3161     1  0.0000000  0.6508444  3
   3150   3157   3160   3162     1  0.0000000  0.6508444  3
   3151   3150   3154   3155     1  0.0000000  0.6508444  3
   3151   3150   3154   3156     1  0.0000000  0.6508444  3
   3151   3150   3157   3158     1  0.0000000  0.6508444  3
   3151   3150   3157   3159     1  0.0000000  0.6508444  3
   3151   3163   3175   3176     1  0.0000000  0.6508444  3
   3151   3163   3175   3177     1  0.0000000  0.6508444  3
   3152   3151   3150   3154     1  0.0000000  0.6508444  3
   3152   3151   3150   3157     1  0.0000000  0.6508444  3
   3152   3151   3150   3179     1  0.0000000  0.6508444  3
   3152   3151   3163   3175     1  0.0000000  0.6508444  3
   3152   3151   3163   3164     1  0.0000000  0.6508444  3
   3152   3151   3163   3165     1  0.0000000  0.6508444  3
   3153   3151   3150   3154     1  0.0000000  0.6508444  3
   3153   3151   3150   3157     1  0.0000000  0.6508444  3
   3153   3151   3150   3179     1  0.0000000  0.6508444  3
   3153   3151   3163   3175     1  0.0000000  0.6508444  3
   3153   3151   3163   3164     1  0.0000000  0.6508444  3
   3153   3151   3163   3165     1  0.0000000  0.6508444  3
   3154   3150   3157   3158     1  0.0000000  0.6508444  3
   3154   3150   3157   3159     1  0.0000000  0.6508444  3
   3154   3166   3172   3173     1  0.0000000  0.6508444  3
   3154   3166   3172   3174     1  0.0000000  0.6508444  3
   3155   3154   3150   3157     1  0.0000000  0.6508444  3
   3155   3154   3150   3179     1  0.0000000  0.6508444  3
   3155   3154   3166   3172     1  0.0000000  0.6508444  3
   3155   3154   3166   3167     1  0.0000000  0.6508444  3
   3155   3154   3166   3168     1  0.0000000  0.6508444  3
   3156   3154   3150   3157     1  0.0000000  0.6508444  3
   3156   3154   3150   3179     1  0.0000000  0.6508444  3
   3156   3154   3166   3172     1  0.0000000  0.6508444  3
   3156   3154   3166   3167     1  0.0000000  0.6508444  3
   3156   3154   3166   3168     1  0.0000000  0.6508444  3
   3157   3160   3169   3170     1  0.0000000  0.6508444  3
   3157   3160   3169   3171     1  0.0000000  0.6508444  3
   3158   3157   3150   3179     1  0.0000000  0.6508444  3
   3158   3157   3160   3169     1  0.0000000  0.6508444  3
   3158   3157   3160   3161     1  0.0000000  0.6508444  3
   3158   3157   3160   3162     1  0.0000000  0.6508444  3
   3159   3157   3150   3179     1  0.0000000  0.6508444  3
   3159   3157   3160   3169     1  0.0000000  0.6508444  3
   3159   3157   3160   3161     1  0.0000000  0.6508444  3
   3159   3157   3160   3162     1  0.0000000  0.6508444  3
   3160   3157   3150   3179     1  0.0000000  0.6508444  3
   3161   3160   3169   3178     1  0.0000000  1.0460000  1
   3161   3160   3169   3178     1  0.0000000  0.0000000  3
   3161   3160   3169   3170     1  0.0000000  0.6508444  3
   3161   3160   3169   3171     1  0.0000000  0.6508444  3
   3162   3160   3169   3178     1  0.0000000  1.0460000  1
   3162   3160   3169   3178     1  0.0000000  0.0000000  3
   3162   3160   3169   3170     1  0.0000000  0.6508444  3
   3162   3160   3169   3171     1  0.0000000  0.6508444  3
   3163   3151   3150   3179     1  0.0000000  0.6508444  3
   3164   3163   3175   5010     1  0.0000000  1.0460000  1
   3164   3163   3175   5010     1  0.0000000  0.0000000  3
   3164   3163   3175   3176     1  0.0000000  0.6508444  3
   3164   3163   3175   3177     1  0.0000000  0.6508444  3
   3165   3163   3175   5010     1  0.0000000  1.0460000  1
   3165   3163   3175   5010     1  0.0000000  0.0000000  3
   3165   3163   3175   3176     1  0.0000000  0.6508444  3
   3165   3163   3175   3177     1  0.0000000  0.6508444  3
   3166   3154   3150   3179     1  0.0000000  0.6508444  3
   3167   3166   3172   4996     1  0.0000000  1.0460000  1
   3167   3166   3172   4996     1  0.0000000  0.0000000  3
   3167   3166   3172   3173     1  0.0000000  0.6508444  3
   3167   3166   3172   3174     1  0.0000000  0.6508444  3
   3168   3166   3172   4996     1  0.0000000  1.0460000  1
   3168   3166   3172   4996     1  0.0000000  0.0000000  3
   3168   3166   3172   3173     1  0.0000000  0.6508444  3
   3168   3166   3172   3174     1  0.0000000  0.6508444  3
   3172   4996   4990   4991     1  0.0000000  1.6038667  3
   3172   4996   4990   4992     1  0.0000000  1.6038667  3
   3173   3172   4996   4990     1  0.0000000  1.6038667  3
   3174   3172   4996   4990     1  0.0000000  1.6038667  3
   3175   5010   5004   5005     1  0.0000000  1.6038667  3
   3175   5010   5004   5006     1  0.0000000  1.6038667  3
   3176   3175   5010   5004     1  0.0000000  1.6038667  3
   3177   3175   5010   5004     1  0.0000000  1.6038667  3
   3180   3181   3193   3194     1  0.0000000  0.6508444  3
   3180   3181   3193   3195     1  0.0000000  0.6508444  3
   3180   3184   3196   3197     1  0.0000000  0.6508444  3
   3180   3184   3196   3198     1  0.0000000  0.6508444  3
   3180   3187   3190   3191     1  0.0000000  0.6508444  3
   3180   3187   3190   3192     1  0.0000000  0.6508444  3
   3181   3180   3184   3185     1  0.0000000  0.6508444  3
   3181   3180   3184   3186     1  0.0000000  0.6508444  3
   3181   3180   3187   3188     1  0.0000000  0.6508444  3
   3181   3180   3187   3189     1  0.0000000  0.6508444  3
   3181   3193   3205   3206     1  0.0000000  0.6508444  3
   3181   3193   3205   3207     1  0.0000000  0.6508444  3
   3182   3181   3180   3184     1  0.0000000  0.6508444  3
   3182   3181   3180   3187     1  0.0000000  0.6508444  3
   3182   3181   3180   3209     1  0.0000000  0.6508444  3
   3182   3181   3193   3205     1  0.0000000  0.6508444  3
   3182   3181   3193   3194     1  0.0000000  0.6508444  3
   3182   3181   3193   3195     1  0.0000000  0.6508444  3
   3183   3181   3180   3184     1  0.0000000  0.6508444  3
   3183   3181   3180   3187     1  0.0000000  0.6508444  3
   3183   3181   3180   3209     1  0.0000000  0.6508444  3
   3183   3181   3193   3205     1  0.0000000  0.6508444  3
   3183   3181   3193   3194     1  0.0000000  0.6508444  3
   3183   3181   3193   3195     1  0.0000000  0.6508444  3
   3184   3180   3187   3188     1  0.0000000  0.6508444  3
   3184   3180   3187   3189     1  0.0000000  0.6508444  3
   3184   3196   3202   3203     1  0.0000000  0.6508444  3
   3184   3196   3202   3204     1  0.0000000  0.6508444  3
   3185   3184   3180   3187     1  0.0000000  0.6508444  3
   3185   3184   3180   3209     1  0.0000000  0.6508444  3
   3185   3184   3196   3202     1  0.0000000  0.6508444  3
   3185   3184   3196   3197     1  0.0000000  0.6508444  3
   3185   3184   3196   3198     1  0.0000000  0.6508444  3
   3186   3184   3180   3187     1  0.0000000  0.6508444  3
   3186   3184   3180   3209     1  0.0000000  0.6508444  3
   3186   3184   3196   3202     1  0.0000000  0.6508444  3
   3186   3184   3196   3197     1  0.0000000  0.6508444  3
   3186   3184   3196   3198     1  0.0000000  0.6508444  3
   3187   3190   3199   3200     1  0.0000000  0.6508444  3
   3187   3190   3199   3201     1  0.0000000  0.6508444  3
   3188   3187   3180   3209     1  0.0000000  0.6508444  3
   3188   3187   3190   3199     1  0.0000000  0.6508444  3
   3188   3187   3190   3191     1  0.0000000  0.6508444  3
   3188   3187   3190   3192     1  0.0000000  0.6508444  3
   3189   3187   3180   3209     1  0.0000000  0.6508444  3
   3189   3187   3190   3199     1  0.0000000  0.6508444  3
   3189   3187   3190   3191     1  0.0000000  0.6508444  3
   3189   3187   3190   3192     1  0.0000000  0.6508444  3
   3190   3187   3180   3209     1  0.0000000  0.6508444  3
   3191   3190   3199   3208     1  0.0000000  1.0460000  1
   3191   3190   3199   3208     1  0.0000000  0.0000000  3
   3191   3190   3199   3200     1  0.0000000  0.6508444  3
   3191   3190   3199   3201     1  0.0000000  0.6508444  3
   3192   3190   3199   3208     1  0.0000000  1.0460000  1
   3192   3190   3199   3208     1  0.0000000  0.0000000  3
   3192   3190   3199   3200     1  0.0000000  0.6508444  3
   3192   3190   3199   3201     1  0.0000000  0.6508444  3
   3193   3181   3180   3209     1  0.0000000  0.6508444  3
   3194   3193   3205   5038     1  0.0000000  1.0460000  1
   3194   3193   3205   5038     1  0.0000000  0.0000000  3
   3194   3193   3205   3206     1  0.0000000  0.6508444  3
   3194   3193   3205   3207     1  0.0000000  0.6508444  3
   3195   3193   3205   5038     1  0.0000000  1.0460000  1
   3195   3193   3205   5038     1  0.0000000  0.0000000  3
   3195   3193   3205   3206     1  0.0000000  0.6508444  3
   3195   3193   3205   3207     1  0.0000000  0.6508444  3
   3196   3184   3180   3209     1  0.0000000  0.6508444  3
   3197   3196   3202   5024     1  0.0000000  1.0460000  1
   3197   3196   3202   5024     1  0.0000000  0.0000000  3
   3197   3196   3202   3203     1  0.0000000  0.6508444  3
   3197   3196   3202   3204     1  0.0000000  0.6508444  3
   3198   3196   3202   5024     1  0.0000000  1.0460000  1
   3198   3196   3202   5024     1  0.0000000  0.0000000  3
   3198   3196   3202   3203     1  0.0000000  0.6508444  3
   3198   3196   3202   3204     1  0.0000000  0.6508444  3
   3202   5024   5018   5019     1  0.0000000  1.6038667  3
   3202   5024   5018   5020     1  0.0000000  1.6038667  3
   3203   3202   5024   5018     1  0.0000000  1.6038667  3
   3204   3202   5024   5018     1  0.0000000  1.6038667  3
   3205   5038   5032   5033     1  0.0000000  1.6038667  3
   3205   5038   5032   5034     1  0.0000000  1.6038667  3
   3206   3205   5038   5032     1  0.0000000  1.6038667  3
   3207   3205   5038   5032     1  0.0000000  1.6038667  3
   3210   3211   3223   3224     1  0.0000000  0.6508444  3
   3210   3211   3223   3225     1  0.0000000  0.6508444  3
   3210   3214   3226   3227     1  0.0000000  0.6508444  3
   3210   3214   3226   3228     1  0.0000000  0.6508444  3
   3210   3217   3220   3221     1  0.0000000  0.6508444  3
   3210   3217   3220   3222     1  0.0000000  0.6508444  3
   3211   3210   3214   3215     1  0.0000000  0.6508444  3
   3211   3210   3214   3216     1  0.0000000  0.6508444  3
   3211   3210   3217   3218     1  0.0000000  0.6508444  3
   3211   3210   3217   3219     1  0.0000000  0.6508444  3
   3211   3223   3235   3236     1  0.0000000  0.6508444  3
   3211   3223   3235   3237     1  0.0000000  0.6508444  3
   3212   3211   3210   3214     1  0.0000000  0.6508444  3
   3212   3211   3210   3217     1  0.0000000  0.6508444  3
   3212   3211   3210   3239     1  0.0000000  0.6508444  3
   3212   3211   3223   3235     1  0.0000000  0.6508444  3
   3212   3211   3223   3224     1  0.0000000  0.6508444  3
   3212   3211   3223   3225     1  0.0000000  0.6508444  3
   3213   3211   3210   3214     1  0.0000000  0.6508444  3
   3213   3211   3210   3217     1  0.0000000  0.6508444  3
   3213   3211   3210   3239     1  0.0000000  0.6508444  3
   3213   3211   3223   3235     1  0.0000000  0.6508444  3
   3213   3211   3223   3224     1  0.0000000  0.6508444  3
   3213   3211   3223   3225     1  0.0000000  0.6508444  3
   3214   3210   3217   3218     1  0.0000000  0.6508444  3
   3214   3210   3217   3219     1  0.0000000  0.6508444  3
   3214   3226   3232   3233     1  0.0000000  0.6508444  3
   3214   3226   3232   3234     1  0.0000000  0.6508444  3
   3215   3214   3210   3217     1  0.0000000  0.6508444  3
   3215   3214   3210   3239     1  0.0000000  0.6508444  3
   3215   3214   3226   3232     1  0.0000000  0.6508444  3
   3215   3214   3226   3227     1  0.0000000  0.6508444  3
   3215   3214   3226   3228     1  0.0000000  0.6508444  3
   3216   3214   3210   3217     1  0.0000000  0.6508444  3
   3216   3214   3210   3239     1  0.0000000  0.6508444  3
   3216   3214   3226   3232     1  0.0000000  0.6508444  3
   3216   3214   3226   3227     1  0.0000000  0.6508444  3
   3216   3214   3226   3228     1  0.0000000  0.6508444  3
   3217   3220   3229   3230     1  0.0000000  0.6508444  3
   3217   3220   3229   3231     1  0.0000000  0.6508444  3
   3218   3217   3210   3239     1  0.0000000  0.6508444  3
   3218   3217   3220   3229     1  0.0000000  0.6508444  3
   3218   3217   3220   3221     1  0.0000000  0.6508444  3
   3218   3217   3220   3222     1  0.0000000  0.6508444  3
   3219   3217   3210   3239     1  0.0000000  0.6508444  3
   3219   3217   3220   3229     1  0.0000000  0.6508444  3
   3219   3217   3220   3221     1  0.0000000  0.6508444  3
   3219   3217   3220   3222     1  0.0000000  0.6508444  3
   3220   3217   3210   3239     1  0.0000000  0.6508444  3
   3221   3220   3229   3238     1  0.0000000  1.0460000  1
   3221   3220   3229   3238     1  0.0000000  0.0000000  3
   3221   3220   3229   3230     1  0.0000000  0.6508444  3
   3221   3220   3229   3231     1  0.0000000  0.6508444  3
   3222   3220   3229   3238     1  0.0000000  1.0460000  1
   3222   3220   3229   3238     1  0.0000000  0.0000000  3
   3222   3220   3229   3230     1  0.0000000  0.6508444  3
   3222   3220   3229   3231     1  0.0000000  0.6508444  3
   3223   3211   3210   3239     1  0.0000000  0.6508444  3
   3224   3223   3235   5066     1  0.0000000  1.0460000  1
   3224   3223   3235   5066     1  0.0000000  0.0000000  3
   3224   3223   3235   3236     1  0.0000000  0.6508444  3
   3224   3223   3235   3237     1  0.0000000  0.6508444  3
   3225   3223   3235   5066     1  0.0000000  1.0460000  1
   3225   3223   3235   5066     1  0.0000000  0.0000000  3
   3225   3223   3235   3236     1  0.0000000  0.6508444  3
   3225   3223   3235   3237     1  0.0000000  0.6508444  3
   3226   3214   3210   3239     1  0.0000000  0.6508444  3
   3227   3226   3232   5052     1  0.0000000  1.0460000  1
   3227   3226   3232   5052     1  0.0000000  0.0000000  3
   3227   3226   3232   3233     1  0.0000000  0.6508444  3
   3227   3226   3232   3234     1  0.0000000  0.6508444  3
   3228   3226   3232   5052     1  0.0000000  1.0460000  1
   3228   3226   3232   5052     1  0.0000000  0.0000000  3
   3228   3226   3232   3233     1  0.0000000  0.6508444  3
   3228   3226   3232   3234     1  0.0000000  0.6508444  3
   3232   5052   5046   5047     1  0.0000000  1.6038667  3
   3232   5052   5046   5048     1  0.0000000  1.6038667  3
   3233   3232   5052   5046     1  0.0000000  1.6038667  3
   3234   3232   5052   5046     1  0.0000000  1.6038667  3
   3235   5066   5060   5061     1  0.0000000  1.6038667  3
   3235   5066   5060   5062     1  0.0000000  1.6038667  3
   3236   3235   5066   5060     1  0.0000000  1.6038667  3
   3237   3235   5066   5060     1  0.0000000  1.6038667  3
   3240   3241   3253   3254     1  0.0000000  0.6508444  3
   3240   3241   3253   3255     1  0.0000000  0.6508444  3
   3240   3244   3256   3257     1  0.0000000  0.6508444  3
   3240   3244   3256   3258     1  0.0000000  0.6508444  3
   3240   3247   3250   3251     1  0.0000000  0.6508444  3
   3240   3247   3250   3252     1  0.0000000  0.6508444  3
   3241   3240   3244   3245     1  0.0000000  0.6508444  3
   3241   3240   3244   3246     1  0.0000000  0.6508444  3
   3241   3240   3247   3248     1  0.0000000  0.6508444  3
   3241   3240   3247   3249     1  0.0000000  0.6508444  3
   3241   3253   3265   3266     1  0.0000000  0.6508444  3
   3241   3253   3265   3267     1  0.0000000  0.6508444  3
   3242   3241   3240   3244     1  0.0000000  0.6508444  3
   3242   3241   3240   3247     1  0.0000000  0.6508444  3
   3242   3241   3240   3269     1  0.0000000  0.6508444  3
   3242   3241   3253   3265     1  0.0000000  0.6508444  3
   3242   3241   3253   3254     1  0.0000000  0.6508444  3
   3242   3241   3253   3255     1  0.0000000  0.6508444  3
   3243   3241   3240   3244     1  0.0000000  0.6508444  3
   3243   3241   3240   3247     1  0.0000000  0.6508444  3
   3243   3241   3240   3269     1  0.0000000  0.6508444  3
   3243   3241   3253   3265     1  0.0000000  0.6508444  3
   3243   3241   3253   3254     1  0.0000000  0.6508444  3
   3243   3241   3253   3255     1  0.0000000  0.6508444  3
   3244   3240   3247   3248     1  0.0000000  0.6508444  3
   3244   3240   3247   3249     1  0.0000000  0.6508444  3
   3244   3256   3262   3263     1  0.0000000  0.6508444  3
   3244   3256   3262   3264     1  0.0000000  0.6508444  3
   3245   3244   3240   3247     1  0.0000000  0.6508444  3
   3245   3244   3240   3269     1  0.0000000  0.6508444  3
   3245   3244   3256   3262     1  0.0000000  0.6508444  3
   3245   3244   3256   3257     1  0.0000000  0.6508444  3
   3245   3244   3256   3258     1  0.0000000  0.6508444  3
   3246   3244   3240   3247     1  0.0000000  0.6508444  3
   3246   3244   3240   3269     1  0.0000000  0.6508444  3
   3246   3244   3256   3262     1  0.0000000  0.6508444  3
   3246   3244   3256   3257     1  0.0000000  0.6508444  3
   3246   3244   3256   3258     1  0.0000000  0.6508444  3
   3247   3250   3259   3260     1  0.0000000  0.6508444  3
   3247   3250   3259   3261     1  0.0000000  0.6508444  3
   3248   3247   3240   3269     1  0.0000000  0.6508444  3
   3248   3247   3250   3259     1  0.0000000  0.6508444  3
   3248   3247   3250   3251     1  0.0000000  0.6508444  3
   3248   3247   3250   3252     1  0.0000000  0.6508444  3
   3249   3247   3240   3269     1  0.0000000  0.6508444  3
   3249   3247   3250   3259     1  0.0000000  0.6508444  3
   3249   3247   3250   3251     1  0.0000000  0.6508444  3
   3249   3247   3250   3252     1  0.0000000  0.6508444  3
   3250   3247   3240   3269     1  0.0000000  0.6508444  3
   3251   3250   3259   3268     1  0.0000000  1.0460000  1
   3251   3250   3259   3268     1  0.0000000  0.0000000  3
   3251   3250   3259   3260     1  0.0000000  0.6508444  3
   3251   3250   3259   3261     1  0.0000000  0.6508444  3
   3252   3250   3259   3268     1  0.0000000  1.0460000  1
   3252   3250   3259   3268     1  0.0000000  0.0000000  3
   3252   3250   3259   3260     1  0.0000000  0.6508444  3
   3252   3250   3259   3261     1  0.0000000  0.6508444  3
   3253   3241   3240   3269     1  0.0000000  0.6508444  3
   3254   3253   3265   5094     1  0.0000000  1.0460000  1
   3254   3253   3265   5094     1  0.0000000  0.0000000  3
   3254   3253   3265   3266     1  0.0000000  0.6508444  3
   3254   3253   3265   3267     1  0.0000000  0.6508444  3
   3255   3253   3265   5094     1  0.0000000  1.0460000  1
   3255   3253   3265   5094     1  0.0000000  0.0000000  3
   3255   3253   3265   3266     1  0.0000000  0.6508444  3
   3255   3253   3265   3267     1  0.0000000  0.6508444  3
   3256   3244   3240   3269     1  0.0000000  0.6508444  3
   3257   3256   3262   5080     1  0.0000000  1.0460000  1
   3257   3256   3262   5080     1  0.0000000  0.0000000  3
   3257   3256   3262   3263     1  0.0000000  0.6508444  3
   3257   3256   3262   3264     1  0.0000000  0.6508444  3
   3258   3256   3262   5080     1  0.0000000  1.0460000  1
   3258   3256   3262   5080     1  0.0000000  0.0000000  3
   3258   3256   3262   3263     1  0.0000000  0.6508444  3
   3258   3256   3262   3264     1  0.0000000  0.6508444  3
   3262   5080   5074   5075     1  0.0000000  1.6038667  3
   3262   5080   5074   5076     1  0.0000000  1.6038667  3
   3263   3262   5080   5074     1  0.0000000  1.6038667  3
   3264   3262   5080   5074     1  0.0000000  1.6038667  3
   3265   5094   5088   5089     1  0.0000000  1.6038667  3
   3265   5094   5088   5090     1  0.0000000  1.6038667  3
   3266   3265   5094   5088     1  0.0000000  1.6038667  3
   3267   3265   5094   5088     1  0.0000000  1.6038667  3
   3270   3271   3283   3284     1  0.0000000  0.6508444  3
   3270   3271   3283   3285     1  0.0000000  0.6508444  3
   3270   3274   3286   3287     1  0.0000000  0.6508444  3
   3270   3274   3286   3288     1  0.0000000  0.6508444  3
   3270   3277   3280   3281     1  0.0000000  0.6508444  3
   3270   3277   3280   3282     1  0.0000000  0.6508444  3
   3271   3270   3274   3275     1  0.0000000  0.6508444  3
   3271   3270   3274   3276     1  0.0000000  0.6508444  3
   3271   3270   3277   3278     1  0.0000000  0.6508444  3
   3271   3270   3277   3279     1  0.0000000  0.6508444  3
   3271   3283   3295   3296     1  0.0000000  0.6508444  3
   3271   3283   3295   3297     1  0.0000000  0.6508444  3
   3272   3271   3270   3274     1  0.0000000  0.6508444  3
   3272   3271   3270   3277     1  0.0000000  0.6508444  3
   3272   3271   3270   3299     1  0.0000000  0.6508444  3
   3272   3271   3283   3295     1  0.0000000  0.6508444  3
   3272   3271   3283   3284     1  0.0000000  0.6508444  3
   3272   3271   3283   3285     1  0.0000000  0.6508444  3
   3273   3271   3270   3274     1  0.0000000  0.6508444  3
   3273   3271   3270   3277     1  0.0000000  0.6508444  3
   3273   3271   3270   3299     1  0.0000000  0.6508444  3
   3273   3271   3283   3295     1  0.0000000  0.6508444  3
   3273   3271   3283   3284     1  0.0000000  0.6508444  3
   3273   3271   3283   3285     1  0.0000000  0.6508444  3
   3274   3270   3277   3278     1  0.0000000  0.6508444  3
   3274   3270   3277   3279     1  0.0000000  0.6508444  3
   3274   3286   3292   3293     1  0.0000000  0.6508444  3
   3274   3286   3292   3294     1  0.0000000  0.6508444  3
   3275   3274   3270   3277     1  0.0000000  0.6508444  3
   3275   3274   3270   3299     1  0.0000000  0.6508444  3
   3275   3274   3286   3292     1  0.0000000  0.6508444  3
   3275   3274   3286   3287     1  0.0000000  0.6508444  3
   3275   3274   3286   3288     1  0.0000000  0.6508444  3
   3276   3274   3270   3277     1  0.0000000  0.6508444  3
   3276   3274   3270   3299     1  0.0000000  0.6508444  3
   3276   3274   3286   3292     1  0.0000000  0.6508444  3
   3276   3274   3286   3287     1  0.0000000  0.6508444  3
   3276   3274   3286   3288     1  0.0000000  0.6508444  3
   3277   3280   3289   3290     1  0.0000000  0.6508444  3
   3277   3280   3289   3291     1  0.0000000  0.6508444  3
   3278   3277   3270   3299     1  0.0000000  0.6508444  3
   3278   3277   3280   3289     1  0.0000000  0.6508444  3
   3278   3277   3280   3281     1  0.0000000  0.6508444  3
   3278   3277   3280   3282     1  0.0000000  0.6508444  3
   3279   3277   3270   3299     1  0.0000000  0.6508444  3
   3279   3277   3280   3289     1  0.0000000  0.6508444  3
   3279   3277   3280   3281     1  0.0000000  0.6508444  3
   3279   3277   3280   3282     1  0.0000000  0.6508444  3
   3280   3277   3270   3299     1  0.0000000  0.6508444  3
   3281   3280   3289   3298     1  0.0000000  1.0460000  1
   3281   3280   3289   3298     1  0.0000000  0.0000000  3
   3281   3280   3289   3290     1  0.0000000  0.6508444  3
   3281   3280   3289   3291     1  0.0000000  0.6508444  3
   3282   3280   3289   3298     1  0.0000000  1.0460000  1
   3282   3280   3289   3298     1  0.0000000  0.0000000  3
   3282   3280   3289   3290     1  0.0000000  0.6508444  3
   3282   3280   3289   3291     1  0.0000000  0.6508444  3
   3283   3271   3270   3299     1  0.0000000  0.6508444  3
   3284   3283   3295   5122     1  0.0000000  1.0460000  1
   3284   3283   3295   5122     1  0.0000000  0.0000000  3
   3284   3283   3295   3296     1  0.0000000  0.6508444  3
   3284   3283   3295   3297     1  0.0000000  0.6508444  3
   3285   3283   3295   5122     1  0.0000000  1.0460000  1
   3285   3283   3295   5122     1  0.0000000  0.0000000  3
   3285   3283   3295   3296     1  0.0000000  0.6508444  3
   3285   3283   3295   3297     1  0.0000000  0.6508444  3
   3286   3274   3270   3299     1  0.0000000  0.6508444  3
   3287   3286   3292   5108     1  0.0000000  1.0460000  1
   3287   3286   3292   5108     1  0.0000000  0.0000000  3
   3287   3286   3292   3293     1  0.0000000  0.6508444  3
   3287   3286   3292   3294     1  0.0000000  0.6508444  3
   3288   3286   3292   5108     1  0.0000000  1.0460000  1
   3288   3286   3292   5108     1  0.0000000  0.0000000  3
   3288   3286   3292   3293     1  0.0000000  0.6508444  3
   3288   3286   3292   3294     1  0.0000000  0.6508444  3
   3292   5108   5102   5103     1  0.0000000  1.6038667  3
   3292   5108   5102   5104     1  0.0000000  1.6038667  3
   3293   3292   5108   5102     1  0.0000000  1.6038667  3
   3294   3292   5108   5102     1  0.0000000  1.6038667  3
   3295   5122   5116   5117     1  0.0000000  1.6038667  3
   3295   5122   5116   5118     1  0.0000000  1.6038667  3
   3296   3295   5122   5116     1  0.0000000  1.6038667  3
   3297   3295   5122   5116     1  0.0000000  1.6038667  3
   3300   3301   3313   3314     1  0.0000000  0.6508444  3
   3300   3301   3313   3315     1  0.0000000  0.6508444  3
   3300   3304   3316   3317     1  0.0000000  0.6508444  3
   3300   3304   3316   3318     1  0.0000000  0.6508444  3
   3300   3307   3310   3311     1  0.0000000  0.6508444  3
   3300   3307   3310   3312     1  0.0000000  0.6508444  3
   3301   3300   3304   3305     1  0.0000000  0.6508444  3
   3301   3300   3304   3306     1  0.0000000  0.6508444  3
   3301   3300   3307   3308     1  0.0000000  0.6508444  3
   3301   3300   3307   3309     1  0.0000000  0.6508444  3
   3301   3313   3325   3326     1  0.0000000  0.6508444  3
   3301   3313   3325   3327     1  0.0000000  0.6508444  3
   3302   3301   3300   3304     1  0.0000000  0.6508444  3
   3302   3301   3300   3307     1  0.0000000  0.6508444  3
   3302   3301   3300   3329     1  0.0000000  0.6508444  3
   3302   3301   3313   3325     1  0.0000000  0.6508444  3
   3302   3301   3313   3314     1  0.0000000  0.6508444  3
   3302   3301   3313   3315     1  0.0000000  0.6508444  3
   3303   3301   3300   3304     1  0.0000000  0.6508444  3
   3303   3301   3300   3307     1  0.0000000  0.6508444  3
   3303   3301   3300   3329     1  0.0000000  0.6508444  3
   3303   3301   3313   3325     1  0.0000000  0.6508444  3
   3303   3301   3313   3314     1  0.0000000  0.6508444  3
   3303   3301   3313   3315     1  0.0000000  0.6508444  3
   3304   3300   3307   3308     1  0.0000000  0.6508444  3
   3304   3300   3307   3309     1  0.0000000  0.6508444  3
   3304   3316   3322   3323     1  0.0000000  0.6508444  3
   3304   3316   3322   3324     1  0.0000000  0.6508444  3
   3305   3304   3300   3307     1  0.0000000  0.6508444  3
   3305   3304   3300   3329     1  0.0000000  0.6508444  3
   3305   3304   3316   3322     1  0.0000000  0.6508444  3
   3305   3304   3316   3317     1  0.0000000  0.6508444  3
   3305   3304   3316   3318     1  0.0000000  0.6508444  3
   3306   3304   3300   3307     1  0.0000000  0.6508444  3
   3306   3304   3300   3329     1  0.0000000  0.6508444  3
   3306   3304   3316   3322     1  0.0000000  0.6508444  3
   3306   3304   3316   3317     1  0.0000000  0.6508444  3
   3306   3304   3316   3318     1  0.0000000  0.6508444  3
   3307   3310   3319   3320     1  0.0000000  0.6508444  3
   3307   3310   3319   3321     1  0.0000000  0.6508444  3
   3308   3307   3300   3329     1  0.0000000  0.6508444  3
   3308   3307   3310   3319     1  0.0000000  0.6508444  3
   3308   3307   3310   3311     1  0.0000000  0.6508444  3
   3308   3307   3310   3312     1  0.0000000  0.6508444  3
   3309   3307   3300   3329     1  0.0000000  0.6508444  3
   3309   3307   3310   3319     1  0.0000000  0.6508444  3
   3309   3307   3310   3311     1  0.0000000  0.6508444  3
   3309   3307   3310   3312     1  0.0000000  0.6508444  3
   3310   3307   3300   3329     1  0.0000000  0.6508444  3
   3311   3310   3319   3328     1  0.0000000  1.0460000  1
   3311   3310   3319   3328     1  0.0000000  0.0000000  3
   3311   3310   3319   3320     1  0.0000000  0.6508444  3
   3311   3310   3319   3321     1  0.0000000  0.6508444  3
   3312   3310   3319   3328     1  0.0000000  1.0460000  1
   3312   3310   3319   3328     1  0.0000000  0.0000000  3
   3312   3310   3319   3320     1  0.0000000  0.6508444  3
   3312   3310   3319   3321     1  0.0000000  0.6508444  3
   3313   3301   3300   3329     1  0.0000000  0.6508444  3
   3314   3313   3325   5150     1  0.0000000  1.0460000  1
   3314   3313   3325   5150     1  0.0000000  0.0000000  3
   3314   3313   3325   3326     1  0.0000000  0.6508444  3
   3314   3313   3325   3327     1  0.0000000  0.6508444  3
   3315   3313   3325   5150     1  0.0000000  1.0460000  1
   3315   3313   3325   5150     1  0.0000000  0.0000000  3
   3315   3313   3325   3326     1  0.0000000  0.6508444  3
   3315   3313   3325   3327     1  0.0000000  0.6508444  3
   3316   3304   3300   3329     1  0.0000000  0.6508444  3
   3317   3316   3322   5136     1  0.0000000  1.0460000  1
   3317   3316   3322   5136     1  0.0000000  0.0000000  3
   3317   3316   3322   3323     1  0.0000000  0.6508444  3
   3317   3316   3322   3324     1  0.0000000  0.6508444  3
   3318   3316   3322   5136     1  0.0000000  1.0460000  1
   3318   3316   3322   5136     1  0.0000000  0.0000000  3
   3318   3316   3322   3323     1  0.0000000  0.6508444  3
   3318   3316   3322   3324     1  0.0000000  0.6508444  3
   3322   5136   5130   5131     1  0.0000000  1.6038667  3
   3322   5136   5130   5132     1  0.0000000  1.6038667  3
   3323   3322   5136   5130     1  0.0000000  1.6038667  3
   3324   3322   5136   5130     1  0.0000000  1.6038667  3
   3325   5150   5144   5145     1  0.0000000  1.6038667  3
   3325   5150   5144   5146     1  0.0000000  1.6038667  3
   3326   3325   5150   5144     1  0.0000000  1.6038667  3
   3327   3325   5150   5144     1  0.0000000  1.6038667  3
   3330   3331   3343   3344     1  0.0000000  0.6508444  3
   3330   3331   3343   3345     1  0.0000000  0.6508444  3
   3330   3334   3346   3347     1  0.0000000  0.6508444  3
   3330   3334   3346   3348     1  0.0000000  0.6508444  3
   3330   3337   3340   3341     1  0.0000000  0.6508444  3
   3330   3337   3340   3342     1  0.0000000  0.6508444  3
   3331   3330   3334   3335     1  0.0000000  0.6508444  3
   3331   3330   3334   3336     1  0.0000000  0.6508444  3
   3331   3330   3337   3338     1  0.0000000  0.6508444  3
   3331   3330   3337   3339     1  0.0000000  0.6508444  3
   3331   3343   3355   3356     1  0.0000000  0.6508444  3
   3331   3343   3355   3357     1  0.0000000  0.6508444  3
   3332   3331   3330   3334     1  0.0000000  0.6508444  3
   3332   3331   3330   3337     1  0.0000000  0.6508444  3
   3332   3331   3330   3359     1  0.0000000  0.6508444  3
   3332   3331   3343   3355     1  0.0000000  0.6508444  3
   3332   3331   3343   3344     1  0.0000000  0.6508444  3
   3332   3331   3343   3345     1  0.0000000  0.6508444  3
   3333   3331   3330   3334     1  0.0000000  0.6508444  3
   3333   3331   3330   3337     1  0.0000000  0.6508444  3
   3333   3331   3330   3359     1  0.0000000  0.6508444  3
   3333   3331   3343   3355     1  0.0000000  0.6508444  3
   3333   3331   3343   3344     1  0.0000000  0.6508444  3
   3333   3331   3343   3345     1  0.0000000  0.6508444  3
   3334   3330   3337   3338     1  0.0000000  0.6508444  3
   3334   3330   3337   3339     1  0.0000000  0.6508444  3
   3334   3346   3352   3353     1  0.0000000  0.6508444  3
   3334   3346   3352   3354     1  0.0000000  0.6508444  3
   3335   3334   3330   3337     1  0.0000000  0.6508444  3
   3335   3334   3330   3359     1  0.0000000  0.6508444  3
   3335   3334   3346   3352     1  0.0000000  0.6508444  3
   3335   3334   3346   3347     1  0.0000000  0.6508444  3
   3335   3334   3346   3348     1  0.0000000  0.6508444  3
   3336   3334   3330   3337     1  0.0000000  0.6508444  3
   3336   3334   3330   3359     1  0.0000000  0.6508444  3
   3336   3334   3346   3352     1  0.0000000  0.6508444  3
   3336   3334   3346   3347     1  0.0000000  0.6508444  3
   3336   3334   3346   3348     1  0.0000000  0.6508444  3
   3337   3340   3349   3350     1  0.0000000  0.6508444  3
   3337   3340   3349   3351     1  0.0000000  0.6508444  3
   3338   3337   3330   3359     1  0.0000000  0.6508444  3
   3338   3337   3340   3349     1  0.0000000  0.6508444  3
   3338   3337   3340   3341     1  0.0000000  0.6508444  3
   3338   3337   3340   3342     1  0.0000000  0.6508444  3
   3339   3337   3330   3359     1  0.0000000  0.6508444  3
   3339   3337   3340   3349     1  0.0000000  0.6508444  3
   3339   3337   3340   3341     1  0.0000000  0.6508444  3
   3339   3337   3340   3342     1  0.0000000  0.6508444  3
   3340   3337   3330   3359     1  0.0000000  0.6508444  3
   3341   3340   3349   3358     1  0.0000000  1.0460000  1
   3341   3340   3349   3358     1  0.0000000  0.0000000  3
   3341   3340   3349   3350     1  0.0000000  0.6508444  3
   3341   3340   3349   3351     1  0.0000000  0.6508444  3
   3342   3340   3349   3358     1  0.0000000  1.0460000  1
   3342   3340   3349   3358     1  0.0000000  0.0000000  3
   3342   3340   3349   3350     1  0.0000000  0.6508444  3
   3342   3340   3349   3351     1  0.0000000  0.6508444  3
   3343   3331   3330   3359     1  0.0000000  0.6508444  3
   3344   3343   3355   5178     1  0.0000000  1.0460000  1
   3344   3343   3355   5178     1  0.0000000  0.0000000  3
   3344   3343   3355   3356     1  0.0000000  0.6508444  3
   3344   3343   3355   3357     1  0.0000000  0.6508444  3
   3345   3343   3355   5178     1  0.0000000  1.0460000  1
   3345   3343   3355   5178     1  0.0000000  0.0000000  3
   3345   3343   3355   3356     1  0.0000000  0.6508444  3
   3345   3343   3355   3357     1  0.0000000  0.6508444  3
   3346   3334   3330   3359     1  0.0000000  0.6508444  3
   3347   3346   3352   5164     1  0.0000000  1.0460000  1
   3347   3346   3352   5164     1  0.0000000  0.0000000  3
   3347   3346   3352   3353     1  0.0000000  0.6508444  3
   3347   3346   3352   3354     1  0.0000000  0.6508444  3
   3348   3346   3352   5164     1  0.0000000  1.0460000  1
   3348   3346   3352   5164     1  0.0000000  0.0000000  3
   3348   3346   3352   3353     1  0.0000000  0.6508444  3
   3348   3346   3352   3354     1  0.0000000  0.6508444  3
   3352   5164   5158   5159     1  0.0000000  1.6038667  3
   3352   5164   5158   5160     1  0.0000000  1.6038667  3
   3353   3352   5164   5158     1  0.0000000  1.6038667  3
   3354   3352   5164   5158     1  0.0000000  1.6038667  3
   3355   5178   5172   5173     1  0.0000000  1.6038667  3
   3355   5178   5172   5174     1  0.0000000  1.6038667  3
   3356   3355   5178   5172     1  0.0000000  1.6038667  3
   3357   3355   5178   5172     1  0.0000000  1.6038667  3
   3360   3361   3373   3374     1  0.0000000  0.6508444  3
   3360   3361   3373   3375     1  0.0000000  0.6508444  3
   3360   3364   3376   3377     1  0.0000000  0.6508444  3
   3360   3364   3376   3378     1  0.0000000  0.6508444  3
   3360   3367   3370   3371     1  0.0000000  0.6508444  3
   3360   3367   3370   3372     1  0.0000000  0.6508444  3
   3361   3360   3364   3365     1  0.0000000  0.6508444  3
   3361   3360   3364   3366     1  0.0000000  0.6508444  3
   3361   3360   3367   3368     1  0.0000000  0.6508444  3
   3361   3360   3367   3369     1  0.0000000  0.6508444  3
   3361   3373   3385   3386     1  0.0000000  0.6508444  3
   3361   3373   3385   3387     1  0.0000000  0.6508444  3
   3362   3361   3360   3364     1  0.0000000  0.6508444  3
   3362   3361   3360   3367     1  0.0000000  0.6508444  3
   3362   3361   3360   3389     1  0.0000000  0.6508444  3
   3362   3361   3373   3385     1  0.0000000  0.6508444  3
   3362   3361   3373   3374     1  0.0000000  0.6508444  3
   3362   3361   3373   3375     1  0.0000000  0.6508444  3
   3363   3361   3360   3364     1  0.0000000  0.6508444  3
   3363   3361   3360   3367     1  0.0000000  0.6508444  3
   3363   3361   3360   3389     1  0.0000000  0.6508444  3
   3363   3361   3373   3385     1  0.0000000  0.6508444  3
   3363   3361   3373   3374     1  0.0000000  0.6508444  3
   3363   3361   3373   3375     1  0.0000000  0.6508444  3
   3364   3360   3367   3368     1  0.0000000  0.6508444  3
   3364   3360   3367   3369     1  0.0000000  0.6508444  3
   3364   3376   3382   3383     1  0.0000000  0.6508444  3
   3364   3376   3382   3384     1  0.0000000  0.6508444  3
   3365   3364   3360   3367     1  0.0000000  0.6508444  3
   3365   3364   3360   3389     1  0.0000000  0.6508444  3
   3365   3364   3376   3382     1  0.0000000  0.6508444  3
   3365   3364   3376   3377     1  0.0000000  0.6508444  3
   3365   3364   3376   3378     1  0.0000000  0.6508444  3
   3366   3364   3360   3367     1  0.0000000  0.6508444  3
   3366   3364   3360   3389     1  0.0000000  0.6508444  3
   3366   3364   3376   3382     1  0.0000000  0.6508444  3
   3366   3364   3376   3377     1  0.0000000  0.6508444  3
   3366   3364   3376   3378     1  0.0000000  0.6508444  3
   3367   3370   3379   3380     1  0.0000000  0.6508444  3
   3367   3370   3379   3381     1  0.0000000  0.6508444  3
   3368   3367   3360   3389     1  0.0000000  0.6508444  3
   3368   3367   3370   3379     1  0.0000000  0.6508444  3
   3368   3367   3370   3371     1  0.0000000  0.6508444  3
   3368   3367   3370   3372     1  0.0000000  0.6508444  3
   3369   3367   3360   3389     1  0.0000000  0.6508444  3
   3369   3367   3370   3379     1  0.0000000  0.6508444  3
   3369   3367   3370   3371     1  0.0000000  0.6508444  3
   3369   3367   3370   3372     1  0.0000000  0.6508444  3
   3370   3367   3360   3389     1  0.0000000  0.6508444  3
   3371   3370   3379   3388     1  0.0000000  1.0460000  1
   3371   3370   3379   3388     1  0.0000000  0.0000000  3
   3371   3370   3379   3380     1  0.0000000  0.6508444  3
   3371   3370   3379   3381     1  0.0000000  0.6508444  3
   3372   3370   3379   3388     1  0.0000000  1.0460000  1
   3372   3370   3379   3388     1  0.0000000  0.0000000  3
   3372   3370   3379   3380     1  0.0000000  0.6508444  3
   3372   3370   3379   3381     1  0.0000000  0.6508444  3
   3373   3361   3360   3389     1  0.0000000  0.6508444  3
   3374   3373   3385   5206     1  0.0000000  1.0460000  1
   3374   3373   3385   5206     1  0.0000000  0.0000000  3
   3374   3373   3385   3386     1  0.0000000  0.6508444  3
   3374   3373   3385   3387     1  0.0000000  0.6508444  3
   3375   3373   3385   5206     1  0.0000000  1.0460000  1
   3375   3373   3385   5206     1  0.0000000  0.0000000  3
   3375   3373   3385   3386     1  0.0000000  0.6508444  3
   3375   3373   3385   3387     1  0.0000000  0.6508444  3
   3376   3364   3360   3389     1  0.0000000  0.6508444  3
   3377   3376   3382   5192     1  0.0000000  1.0460000  1
   3377   3376   3382   5192     1  0.0000000  0.0000000  3
   3377   3376   3382   3383     1  0.0000000  0.6508444  3
   3377   3376   3382   3384     1  0.0000000  0.6508444  3
   3378   3376   3382   5192     1  0.0000000  1.0460000  1
   3378   3376   3382   5192     1  0.0000000  0.0000000  3
   3378   3376   3382   3383     1  0.0000000  0.6508444  3
   3378   3376   3382   3384     1  0.0000000  0.6508444  3
   3382   5192   5186   5187     1  0.0000000  1.6038667  3
   3382   5192   5186   5188     1  0.0000000  1.6038667  3
   3383   3382   5192   5186     1  0.0000000  1.6038667  3
   3384   3382   5192   5186     1  0.0000000  1.6038667  3
   3385   5206   5200   5201     1  0.0000000  1.6038667  3
   3385   5206   5200   5202     1  0.0000000  1.6038667  3
   3386   3385   5206   5200     1  0.0000000  1.6038667  3
   3387   3385   5206   5200     1  0.0000000  1.6038667  3
   3390   3391   3403   3404     1  0.0000000  0.6508444  3
   3390   3391   3403   3405     1  0.0000000  0.6508444  3
   3390   3394   3406   3407     1  0.0000000  0.6508444  3
   3390   3394   3406   3408     1  0.0000000  0.6508444  3
   3390   3397   3400   3401     1  0.0000000  0.6508444  3
   3390   3397   3400   3402     1  0.0000000  0.6508444  3
   3391   3390   3394   3395     1  0.0000000  0.6508444  3
   3391   3390   3394   3396     1  0.0000000  0.6508444  3
   3391   3390   3397   3398     1  0.0000000  0.6508444  3
   3391   3390   3397   3399     1  0.0000000  0.6508444  3
   3391   3403   3415   3416     1  0.0000000  0.6508444  3
   3391   3403   3415   3417     1  0.0000000  0.6508444  3
   3392   3391   3390   3394     1  0.0000000  0.6508444  3
   3392   3391   3390   3397     1  0.0000000  0.6508444  3
   3392   3391   3390   3419     1  0.0000000  0.6508444  3
   3392   3391   3403   3415     1  0.0000000  0.6508444  3
   3392   3391   3403   3404     1  0.0000000  0.6508444  3
   3392   3391   3403   3405     1  0.0000000  0.6508444  3
   3393   3391   3390   3394     1  0.0000000  0.6508444  3
   3393   3391   3390   3397     1  0.0000000  0.6508444  3
   3393   3391   3390   3419     1  0.0000000  0.6508444  3
   3393   3391   3403   3415     1  0.0000000  0.6508444  3
   3393   3391   3403   3404     1  0.0000000  0.6508444  3
   3393   3391   3403   3405     1  0.0000000  0.6508444  3
   3394   3390   3397   3398     1  0.0000000  0.6508444  3
   3394   3390   3397   3399     1  0.0000000  0.6508444  3
   3394   3406   3412   3413     1  0.0000000  0.6508444  3
   3394   3406   3412   3414     1  0.0000000  0.6508444  3
   3395   3394   3390   3397     1  0.0000000  0.6508444  3
   3395   3394   3390   3419     1  0.0000000  0.6508444  3
   3395   3394   3406   3412     1  0.0000000  0.6508444  3
   3395   3394   3406   3407     1  0.0000000  0.6508444  3
   3395   3394   3406   3408     1  0.0000000  0.6508444  3
   3396   3394   3390   3397     1  0.0000000  0.6508444  3
   3396   3394   3390   3419     1  0.0000000  0.6508444  3
   3396   3394   3406   3412     1  0.0000000  0.6508444  3
   3396   3394   3406   3407     1  0.0000000  0.6508444  3
   3396   3394   3406   3408     1  0.0000000  0.6508444  3
   3397   3400   3409   3410     1  0.0000000  0.6508444  3
   3397   3400   3409   3411     1  0.0000000  0.6508444  3
   3398   3397   3390   3419     1  0.0000000  0.6508444  3
   3398   3397   3400   3409     1  0.0000000  0.6508444  3
   3398   3397   3400   3401     1  0.0000000  0.6508444  3
   3398   3397   3400   3402     1  0.0000000  0.6508444  3
   3399   3397   3390   3419     1  0.0000000  0.6508444  3
   3399   3397   3400   3409     1  0.0000000  0.6508444  3
   3399   3397   3400   3401     1  0.0000000  0.6508444  3
   3399   3397   3400   3402     1  0.0000000  0.6508444  3
   3400   3397   3390   3419     1  0.0000000  0.6508444  3
   3401   3400   3409   3418     1  0.0000000  1.0460000  1
   3401   3400   3409   3418     1  0.0000000  0.0000000  3
   3401   3400   3409   3410     1  0.0000000  0.6508444  3
   3401   3400   3409   3411     1  0.0000000  0.6508444  3
   3402   3400   3409   3418     1  0.0000000  1.0460000  1
   3402   3400   3409   3418     1  0.0000000  0.0000000  3
   3402   3400   3409   3410     1  0.0000000  0.6508444  3
   3402   3400   3409   3411     1  0.0000000  0.6508444  3
   3403   3391   3390   3419     1  0.0000000  0.6508444  3
   3404   3403   3415   5234     1  0.0000000  1.0460000  1
   3404   3403   3415   5234     1  0.0000000  0.0000000  3
   3404   3403   3415   3416     1  0.0000000  0.6508444  3
   3404   3403   3415   3417     1  0.0000000  0.6508444  3
   3405   3403   3415   5234     1  0.0000000  1.0460000  1
   3405   3403   3415   5234     1  0.0000000  0.0000000  3
   3405   3403   3415   3416     1  0.0000000  0.6508444  3
   3405   3403   3415   3417     1  0.0000000  0.6508444  3
   3406   3394   3390   3419     1  0.0000000  0.6508444  3
   3407   3406   3412   5220     1  0.0000000  1.0460000  1
   3407   3406   3412   5220     1  0.0000000  0.0000000  3
   3407   3406   3412   3413     1  0.0000000  0.6508444  3
   3407   3406   3412   3414     1  0.0000000  0.6508444  3
   3408   3406   3412   5220     1  0.0000000  1.0460000  1
   3408   3406   3412   5220     1  0.0000000  0.0000000  3
   3408   3406   3412   3413     1  0.0000000  0.6508444  3
   3408   3406   3412   3414     1  0.0000000  0.6508444  3
   3412   5220   5214   5215     1  0.0000000  1.6038667  3
   3412   5220   5214   5216     1  0.0000000  1.6038667  3
   3413   3412   5220   5214     1  0.0000000  1.6038667  3
   3414   3412   5220   5214     1  0.0000000  1.6038667  3
   3415   5234   5228   5229     1  0.0000000  1.6038667  3
   3415   5234   5228   5230     1  0.0000000  1.6038667  3
   3416   3415   5234   5228     1  0.0000000  1.6038667  3
   3417   3415   5234   5228     1  0.0000000  1.6038667  3
   3420   3421   3433   3434     1  0.0000000  0.6508444  3
   3420   3421   3433   3435     1  0.0000000  0.6508444  3
   3420   3424   3436   3437     1  0.0000000  0.6508444  3
   3420   3424   3436   3438     1  0.0000000  0.6508444  3
   3420   3427   3430   3431     1  0.0000000  0.6508444  3
   3420   3427   3430   3432     1  0.0000000  0.6508444  3
   3421   3420   3424   3425     1  0.0000000  0.6508444  3
   3421   3420   3424   3426     1  0.0000000  0.6508444  3
   3421   3420   3427   3428     1  0.0000000  0.6508444  3
   3421   3420   3427   3429     1  0.0000000  0.6508444  3
   3421   3433   3445   3446     1  0.0000000  0.6508444  3
   3421   3433   3445   3447     1  0.0000000  0.6508444  3
   3422   3421   3420   3424     1  0.0000000  0.6508444  3
   3422   3421   3420   3427     1  0.0000000  0.6508444  3
   3422   3421   3420   3449     1  0.0000000  0.6508444  3
   3422   3421   3433   3445     1  0.0000000  0.6508444  3
   3422   3421   3433   3434     1  0.0000000  0.6508444  3
   3422   3421   3433   3435     1  0.0000000  0.6508444  3
   3423   3421   3420   3424     1  0.0000000  0.6508444  3
   3423   3421   3420   3427     1  0.0000000  0.6508444  3
   3423   3421   3420   3449     1  0.0000000  0.6508444  3
   3423   3421   3433   3445     1  0.0000000  0.6508444  3
   3423   3421   3433   3434     1  0.0000000  0.6508444  3
   3423   3421   3433   3435     1  0.0000000  0.6508444  3
   3424   3420   3427   3428     1  0.0000000  0.6508444  3
   3424   3420   3427   3429     1  0.0000000  0.6508444  3
   3424   3436   3442   3443     1  0.0000000  0.6508444  3
   3424   3436   3442   3444     1  0.0000000  0.6508444  3
   3425   3424   3420   3427     1  0.0000000  0.6508444  3
   3425   3424   3420   3449     1  0.0000000  0.6508444  3
   3425   3424   3436   3442     1  0.0000000  0.6508444  3
   3425   3424   3436   3437     1  0.0000000  0.6508444  3
   3425   3424   3436   3438     1  0.0000000  0.6508444  3
   3426   3424   3420   3427     1  0.0000000  0.6508444  3
   3426   3424   3420   3449     1  0.0000000  0.6508444  3
   3426   3424   3436   3442     1  0.0000000  0.6508444  3
   3426   3424   3436   3437     1  0.0000000  0.6508444  3
   3426   3424   3436   3438     1  0.0000000  0.6508444  3
   3427   3430   3439   3440     1  0.0000000  0.6508444  3
   3427   3430   3439   3441     1  0.0000000  0.6508444  3
   3428   3427   3420   3449     1  0.0000000  0.6508444  3
   3428   3427   3430   3439     1  0.0000000  0.6508444  3
   3428   3427   3430   3431     1  0.0000000  0.6508444  3
   3428   3427   3430   3432     1  0.0000000  0.6508444  3
   3429   3427   3420   3449     1  0.0000000  0.6508444  3
   3429   3427   3430   3439     1  0.0000000  0.6508444  3
   3429   3427   3430   3431     1  0.0000000  0.6508444  3
   3429   3427   3430   3432     1  0.0000000  0.6508444  3
   3430   3427   3420   3449     1  0.0000000  0.6508444  3
   3431   3430   3439   3448     1  0.0000000  1.0460000  1
   3431   3430   3439   3448     1  0.0000000  0.0000000  3
   3431   3430   3439   3440     1  0.0000000  0.6508444  3
   3431   3430   3439   3441     1  0.0000000  0.6508444  3
   3432   3430   3439   3448     1  0.0000000  1.0460000  1
   3432   3430   3439   3448     1  0.0000000  0.0000000  3
   3432   3430   3439   3440     1  0.0000000  0.6508444  3
   3432   3430   3439   3441     1  0.0000000  0.6508444  3
   3433   3421   3420   3449     1  0.0000000  0.6508444  3
   3434   3433   3445   5262     1  0.0000000  1.0460000  1
   3434   3433   3445   5262     1  0.0000000  0.0000000  3
   3434   3433   3445   3446     1  0.0000000  0.6508444  3
   3434   3433   3445   3447     1  0.0000000  0.6508444  3
   3435   3433   3445   5262     1  0.0000000  1.0460000  1
   3435   3433   3445   5262     1  0.0000000  0.0000000  3
   3435   3433   3445   3446     1  0.0000000  0.6508444  3
   3435   3433   3445   3447     1  0.0000000  0.6508444  3
   3436   3424   3420   3449     1  0.0000000  0.6508444  3
   3437   3436   3442   5248     1  0.0000000  1.0460000  1
   3437   3436   3442   5248     1  0.0000000  0.0000000  3
   3437   3436   3442   3443     1  0.0000000  0.6508444  3
   3437   3436   3442   3444     1  0.0000000  0.6508444  3
   3438   3436   3442   5248     1  0.0000000  1.0460000  1
   3438   3436   3442   5248     1  0.0000000  0.0000000  3
   3438   3436   3442   3443     1  0.0000000  0.6508444  3
   3438   3436   3442   3444     1  0.0000000  0.6508444  3
   3442   5248   5242   5243     1  0.0000000  1.6038667  3
   3442   5248   5242   5244     1  0.0000000  1.6038667  3
   3443   3442   5248   5242     1  0.0000000  1.6038667  3
   3444   3442   5248   5242     1  0.0000000  1.6038667  3
   3445   5262   5256   5257     1  0.0000000  1.6038667  3
   3445   5262   5256   5258     1  0.0000000  1.6038667  3
   3446   3445   5262   5256     1  0.0000000  1.6038667  3
   3447   3445   5262   5256     1  0.0000000  1.6038667  3
   3450   3451   3463   3464     1  0.0000000  0.6508444  3
   3450   3451   3463   3465     1  0.0000000  0.6508444  3
   3450   3454   3466   3467     1  0.0000000  0.6508444  3
   3450   3454   3466   3468     1  0.0000000  0.6508444  3
   3450   3457   3460   3461     1  0.0000000  0.6508444  3
   3450   3457   3460   3462     1  0.0000000  0.6508444  3
   3451   3450   3454   3455     1  0.0000000  0.6508444  3
   3451   3450   3454   3456     1  0.0000000  0.6508444  3
   3451   3450   3457   3458     1  0.0000000  0.6508444  3
   3451   3450   3457   3459     1  0.0000000  0.6508444  3
   3451   3463   3475   3476     1  0.0000000  0.6508444  3
   3451   3463   3475   3477     1  0.0000000  0.6508444  3
   3452   3451   3450   3454     1  0.0000000  0.6508444  3
   3452   3451   3450   3457     1  0.0000000  0.6508444  3
   3452   3451   3450   3479     1  0.0000000  0.6508444  3
   3452   3451   3463   3475     1  0.0000000  0.6508444  3
   3452   3451   3463   3464     1  0.0000000  0.6508444  3
   3452   3451   3463   3465     1  0.0000000  0.6508444  3
   3453   3451   3450   3454     1  0.0000000  0.6508444  3
   3453   3451   3450   3457     1  0.0000000  0.6508444  3
   3453   3451   3450   3479     1  0.0000000  0.6508444  3
   3453   3451   3463   3475     1  0.0000000  0.6508444  3
   3453   3451   3463   3464     1  0.0000000  0.6508444  3
   3453   3451   3463   3465     1  0.0000000  0.6508444  3
   3454   3450   3457   3458     1  0.0000000  0.6508444  3
   3454   3450   3457   3459     1  0.0000000  0.6508444  3
   3454   3466   3472   3473     1  0.0000000  0.6508444  3
   3454   3466   3472   3474     1  0.0000000  0.6508444  3
   3455   3454   3450   3457     1  0.0000000  0.6508444  3
   3455   3454   3450   3479     1  0.0000000  0.6508444  3
   3455   3454   3466   3472     1  0.0000000  0.6508444  3
   3455   3454   3466   3467     1  0.0000000  0.6508444  3
   3455   3454   3466   3468     1  0.0000000  0.6508444  3
   3456   3454   3450   3457     1  0.0000000  0.6508444  3
   3456   3454   3450   3479     1  0.0000000  0.6508444  3
   3456   3454   3466   3472     1  0.0000000  0.6508444  3
   3456   3454   3466   3467     1  0.0000000  0.6508444  3
   3456   3454   3466   3468     1  0.0000000  0.6508444  3
   3457   3460   3469   3470     1  0.0000000  0.6508444  3
   3457   3460   3469   3471     1  0.0000000  0.6508444  3
   3458   3457   3450   3479     1  0.0000000  0.6508444  3
   3458   3457   3460   3469     1  0.0000000  0.6508444  3
   3458   3457   3460   3461     1  0.0000000  0.6508444  3
   3458   3457   3460   3462     1  0.0000000  0.6508444  3
   3459   3457   3450   3479     1  0.0000000  0.6508444  3
   3459   3457   3460   3469     1  0.0000000  0.6508444  3
   3459   3457   3460   3461     1  0.0000000  0.6508444  3
   3459   3457   3460   3462     1  0.0000000  0.6508444  3
   3460   3457   3450   3479     1  0.0000000  0.6508444  3
   3461   3460   3469   3478     1  0.0000000  1.0460000  1
   3461   3460   3469   3478     1  0.0000000  0.0000000  3
   3461   3460   3469   3470     1  0.0000000  0.6508444  3
   3461   3460   3469   3471     1  0.0000000  0.6508444  3
   3462   3460   3469   3478     1  0.0000000  1.0460000  1
   3462   3460   3469   3478     1  0.0000000  0.0000000  3
   3462   3460   3469   3470     1  0.0000000  0.6508444  3
   3462   3460   3469   3471     1  0.0000000  0.6508444  3
   3463   3451   3450   3479     1  0.0000000  0.6508444  3
   3464   3463   3475   5290     1  0.0000000  1.0460000  1
   3464   3463   3475   5290     1  0.0000000  0.0000000  3
   3464   3463   3475   3476     1  0.0000000  0.6508444  3
   3464   3463   3475   3477     1  0.0000000  0.6508444  3
   3465   3463   3475   5290     1  0.0000000  1.0460000  1
   3465   3463   3475   5290     1  0.0000000  0.0000000  3
   3465   3463   3475   3476     1  0.0000000  0.6508444  3
   3465   3463   3475   3477     1  0.0000000  0.6508444  3
   3466   3454   3450   3479     1  0.0000000  0.6508444  3
   3467   3466   3472   5276     1  0.0000000  1.0460000  1
   3467   3466   3472   5276     1  0.0000000  0.0000000  3
   3467   3466   3472   3473     1  0.0000000  0.6508444  3
   3467   3466   3472   3474     1  0.0000000  0.6508444  3
   3468   3466   3472   5276     1  0.0000000  1.0460000  1
   3468   3466   3472   5276     1  0.0000000  0.0000000  3
   3468   3466   3472   3473     1  0.0000000  0.6508444  3
   3468   3466   3472   3474     1  0.0000000  0.6508444  3
   3472   5276   5270   5271     1  0.0000000  1.6038667  3
   3472   5276   5270   5272     1  0.0000000  1.6038667  3
   3473   3472   5276   5270     1  0.0000000  1.6038667  3
   3474   3472   5276   5270     1  0.0000000  1.6038667  3
   3475   5290   5284   5285     1  0.0000000  1.6038667  3
   3475   5290   5284   5286     1  0.0000000  1.6038667  3
   3476   3475   5290   5284     1  0.0000000  1.6038667  3
   3477   3475   5290   5284     1  0.0000000  1.6038667  3
   3480   3481   3493   3494     1  0.0000000  0.6508444  3
   3480   3481   3493   3495     1  0.0000000  0.6508444  3
   3480   3484   3496   3497     1  0.0000000  0.6508444  3
   3480   3484   3496   3498     1  0.0000000  0.6508444  3
   3480   3487   3490   3491     1  0.0000000  0.6508444  3
   3480   3487   3490   3492     1  0.0000000  0.6508444  3
   3481   3480   3484   3485     1  0.0000000  0.6508444  3
   3481   3480   3484   3486     1  0.0000000  0.6508444  3
   3481   3480   3487   3488     1  0.0000000  0.6508444  3
   3481   3480   3487   3489     1  0.0000000  0.6508444  3
   3481   3493   3505   3506     1  0.0000000  0.6508444  3
   3481   3493   3505   3507     1  0.0000000  0.6508444  3
   3482   3481   3480   3484     1  0.0000000  0.6508444  3
   3482   3481   3480   3487     1  0.0000000  0.6508444  3
   3482   3481   3480   3509     1  0.0000000  0.6508444  3
   3482   3481   3493   3505     1  0.0000000  0.6508444  3
   3482   3481   3493   3494     1  0.0000000  0.6508444  3
   3482   3481   3493   3495     1  0.0000000  0.6508444  3
   3483   3481   3480   3484     1  0.0000000  0.6508444  3
   3483   3481   3480   3487     1  0.0000000  0.6508444  3
   3483   3481   3480   3509     1  0.0000000  0.6508444  3
   3483   3481   3493   3505     1  0.0000000  0.6508444  3
   3483   3481   3493   3494     1  0.0000000  0.6508444  3
   3483   3481   3493   3495     1  0.0000000  0.6508444  3
   3484   3480   3487   3488     1  0.0000000  0.6508444  3
   3484   3480   3487   3489     1  0.0000000  0.6508444  3
   3484   3496   3502   3503     1  0.0000000  0.6508444  3
   3484   3496   3502   3504     1  0.0000000  0.6508444  3
   3485   3484   3480   3487     1  0.0000000  0.6508444  3
   3485   3484   3480   3509     1  0.0000000  0.6508444  3
   3485   3484   3496   3502     1  0.0000000  0.6508444  3
   3485   3484   3496   3497     1  0.0000000  0.6508444  3
   3485   3484   3496   3498     1  0.0000000  0.6508444  3
   3486   3484   3480   3487     1  0.0000000  0.6508444  3
   3486   3484   3480   3509     1  0.0000000  0.6508444  3
   3486   3484   3496   3502     1  0.0000000  0.6508444  3
   3486   3484   3496   3497     1  0.0000000  0.6508444  3
   3486   3484   3496   3498     1  0.0000000  0.6508444  3
   3487   3490   3499   3500     1  0.0000000  0.6508444  3
   3487   3490   3499   3501     1  0.0000000  0.6508444  3
   3488   3487   3480   3509     1  0.0000000  0.6508444  3
   3488   3487   3490   3499     1  0.0000000  0.6508444  3
   3488   3487   3490   3491     1  0.0000000  0.6508444  3
   3488   3487   3490   3492     1  0.0000000  0.6508444  3
   3489   3487   3480   3509     1  0.0000000  0.6508444  3
   3489   3487   3490   3499     1  0.0000000  0.6508444  3
   3489   3487   3490   3491     1  0.0000000  0.6508444  3
   3489   3487   3490   3492     1  0.0000000  0.6508444  3
   3490   3487   3480   3509     1  0.0000000  0.6508444  3
   3491   3490   3499   3508     1  0.0000000  1.0460000  1
   3491   3490   3499   3508     1  0.0000000  0.0000000  3
   3491   3490   3499   3500     1  0.0000000  0.6508444  3
   3491   3490   3499   3501     1  0.0000000  0.6508444  3
   3492   3490   3499   3508     1  0.0000000  1.0460000  1
   3492   3490   3499   3508     1  0.0000000  0.0000000  3
   3492   3490   3499   3500     1  0.0000000  0.6508444  3
   3492   3490   3499   3501     1  0.0000000  0.6508444  3
   3493   3481   3480   3509     1  0.0000000  0.6508444  3
   3494   3493   3505   5318     1  0.0000000  1.0460000  1
   3494   3493   3505   5318     1  0.0000000  0.0000000  3
   3494   3493   3505   3506     1  0.0000000  0.6508444  3
   3494   3493   3505   3507     1  0.0000000  0.6508444  3
   3495   3493   3505   5318     1  0.0000000  1.0460000  1
   3495   3493   3505   5318     1  0.0000000  0.0000000  3
   3495   3493   3505   3506     1  0.0000000  0.6508444  3
   3495   3493   3505   3507     1  0.0000000  0.6508444  3
   3496   3484   3480   3509     1  0.0000000  0.6508444  3
   3497   3496   3502   5304     1  0.0000000  1.0460000  1
   3497   3496   3502   5304     1  0.0000000  0.0000000  3
   3497   3496   3502   3503     1  0.0000000  0.6508444  3
   3497   3496   3502   3504     1  0.0000000  0.6508444  3
   3498   3496   3502   5304     1  0.0000000  1.0460000  1
   3498   3496   3502   5304     1  0.0000000  0.0000000  3
   3498   3496   3502   3503     1  0.0000000  0.6508444  3
   3498   3496   3502   3504     1  0.0000000  0.6508444  3
   3502   5304   5298   5299     1  0.0000000  1.6038667  3
   3502   5304   5298   5300     1  0.0000000  1.6038667  3
   3503   3502   5304   5298     1  0.0000000  1.6038667  3
   3504   3502   5304   5298     1  0.0000000  1.6038667  3
   3505   5318   5312   5313     1  0.0000000  1.6038667  3
   3505   5318   5312   5314     1  0.0000000  1.6038667  3
   3506   3505   5318   5312     1  0.0000000  1.6038667  3
   3507   3505   5318   5312     1  0.0000000  1.6038667  3
   3510   3511   3523   3524     1  0.0000000  0.6508444  3
   3510   3511   3523   3525     1  0.0000000  0.6508444  3
   3510   3514   3526   3527     1  0.0000000  0.6508444  3
   3510   3514   3526   3528     1  0.0000000  0.6508444  3
   3510   3517   3520   3521     1  0.0000000  0.6508444  3
   3510   3517   3520   3522     1  0.0000000  0.6508444  3
   3511   3510   3514   3515     1  0.0000000  0.6508444  3
   3511   3510   3514   3516     1  0.0000000  0.6508444  3
   3511   3510   3517   3518     1  0.0000000  0.6508444  3
   3511   3510   3517   3519     1  0.0000000  0.6508444  3
   3511   3523   3535   3536     1  0.0000000  0.6508444  3
   3511   3523   3535   3537     1  0.0000000  0.6508444  3
   3512   3511   3510   3514     1  0.0000000  0.6508444  3
   3512   3511   3510   3517     1  0.0000000  0.6508444  3
   3512   3511   3510   3539     1  0.0000000  0.6508444  3
   3512   3511   3523   3535     1  0.0000000  0.6508444  3
   3512   3511   3523   3524     1  0.0000000  0.6508444  3
   3512   3511   3523   3525     1  0.0000000  0.6508444  3
   3513   3511   3510   3514     1  0.0000000  0.6508444  3
   3513   3511   3510   3517     1  0.0000000  0.6508444  3
   3513   3511   3510   3539     1  0.0000000  0.6508444  3
   3513   3511   3523   3535     1  0.0000000  0.6508444  3
   3513   3511   3523   3524     1  0.0000000  0.6508444  3
   3513   3511   3523   3525     1  0.0000000  0.6508444  3
   3514   3510   3517   3518     1  0.0000000  0.6508444  3
   3514   3510   3517   3519     1  0.0000000  0.6508444  3
   3514   3526   3532   3533     1  0.0000000  0.6508444  3
   3514   3526   3532   3534     1  0.0000000  0.6508444  3
   3515   3514   3510   3517     1  0.0000000  0.6508444  3
   3515   3514   3510   3539     1  0.0000000  0.6508444  3
   3515   3514   3526   3532     1  0.0000000  0.6508444  3
   3515   3514   3526   3527     1  0.0000000  0.6508444  3
   3515   3514   3526   3528     1  0.0000000  0.6508444  3
   3516   3514   3510   3517     1  0.0000000  0.6508444  3
   3516   3514   3510   3539     1  0.0000000  0.6508444  3
   3516   3514   3526   3532     1  0.0000000  0.6508444  3
   3516   3514   3526   3527     1  0.0000000  0.6508444  3
   3516   3514   3526   3528     1  0.0000000  0.6508444  3
   3517   3520   3529   3530     1  0.0000000  0.6508444  3
   3517   3520   3529   3531     1  0.0000000  0.6508444  3
   3518   3517   3510   3539     1  0.0000000  0.6508444  3
   3518   3517   3520   3529     1  0.0000000  0.6508444  3
   3518   3517   3520   3521     1  0.0000000  0.6508444  3
   3518   3517   3520   3522     1  0.0000000  0.6508444  3
   3519   3517   3510   3539     1  0.0000000  0.6508444  3
   3519   3517   3520   3529     1  0.0000000  0.6508444  3
   3519   3517   3520   3521     1  0.0000000  0.6508444  3
   3519   3517   3520   3522     1  0.0000000  0.6508444  3
   3520   3517   3510   3539     1  0.0000000  0.6508444  3
   3521   3520   3529   3538     1  0.0000000  1.0460000  1
   3521   3520   3529   3538     1  0.0000000  0.0000000  3
   3521   3520   3529   3530     1  0.0000000  0.6508444  3
   3521   3520   3529   3531     1  0.0000000  0.6508444  3
   3522   3520   3529   3538     1  0.0000000  1.0460000  1
   3522   3520   3529   3538     1  0.0000000  0.0000000  3
   3522   3520   3529   3530     1  0.0000000  0.6508444  3
   3522   3520   3529   3531     1  0.0000000  0.6508444  3
   3523   3511   3510   3539     1  0.0000000  0.6508444  3
   3524   3523   3535   5346     1  0.0000000  1.0460000  1
   3524   3523   3535   5346     1  0.0000000  0.0000000  3
   3524   3523   3535   3536     1  0.0000000  0.6508444  3
   3524   3523   3535   3537     1  0.0000000  0.6508444  3
   3525   3523   3535   5346     1  0.0000000  1.0460000  1
   3525   3523   3535   5346     1  0.0000000  0.0000000  3
   3525   3523   3535   3536     1  0.0000000  0.6508444  3
   3525   3523   3535   3537     1  0.0000000  0.6508444  3
   3526   3514   3510   3539     1  0.0000000  0.6508444  3
   3527   3526   3532   5332     1  0.0000000  1.0460000  1
   3527   3526   3532   5332     1  0.0000000  0.0000000  3
   3527   3526   3532   3533     1  0.0000000  0.6508444  3
   3527   3526   3532   3534     1  0.0000000  0.6508444  3
   3528   3526   3532   5332     1  0.0000000  1.0460000  1
   3528   3526   3532   5332     1  0.0000000  0.0000000  3
   3528   3526   3532   3533     1  0.0000000  0.6508444  3
   3528   3526   3532   3534     1  0.0000000  0.6508444  3
   3532   5332   5326   5327     1  0.0000000  1.6038667  3
   3532   5332   5326   5328     1  0.0000000  1.6038667  3
   3533   3532   5332   5326     1  0.0000000  1.6038667  3
   3534   3532   5332   5326     1  0.0000000  1.6038667  3
   3535   5346   5340   5341     1  0.0000000  1.6038667  3
   3535   5346   5340   5342     1  0.0000000  1.6038667  3
   3536   3535   5346   5340     1  0.0000000  1.6038667  3
   3537   3535   5346   5340     1  0.0000000  1.6038667  3
   3540   3541   3553   3554     1  0.0000000  0.6508444  3
   3540   3541   3553   3555     1  0.0000000  0.6508444  3
   3540   3544   3556   3557     1  0.0000000  0.6508444  3
   3540   3544   3556   3558     1  0.0000000  0.6508444  3
   3540   3547   3550   3551     1  0.0000000  0.6508444  3
   3540   3547   3550   3552     1  0.0000000  0.6508444  3
   3541   3540   3544   3545     1  0.0000000  0.6508444  3
   3541   3540   3544   3546     1  0.0000000  0.6508444  3
   3541   3540   3547   3548     1  0.0000000  0.6508444  3
   3541   3540   3547   3549     1  0.0000000  0.6508444  3
   3541   3553   3565   3566     1  0.0000000  0.6508444  3
   3541   3553   3565   3567     1  0.0000000  0.6508444  3
   3542   3541   3540   3544     1  0.0000000  0.6508444  3
   3542   3541   3540   3547     1  0.0000000  0.6508444  3
   3542   3541   3540   3569     1  0.0000000  0.6508444  3
   3542   3541   3553   3565     1  0.0000000  0.6508444  3
   3542   3541   3553   3554     1  0.0000000  0.6508444  3
   3542   3541   3553   3555     1  0.0000000  0.6508444  3
   3543   3541   3540   3544     1  0.0000000  0.6508444  3
   3543   3541   3540   3547     1  0.0000000  0.6508444  3
   3543   3541   3540   3569     1  0.0000000  0.6508444  3
   3543   3541   3553   3565     1  0.0000000  0.6508444  3
   3543   3541   3553   3554     1  0.0000000  0.6508444  3
   3543   3541   3553   3555     1  0.0000000  0.6508444  3
   3544   3540   3547   3548     1  0.0000000  0.6508444  3
   3544   3540   3547   3549     1  0.0000000  0.6508444  3
   3544   3556   3562   3563     1  0.0000000  0.6508444  3
   3544   3556   3562   3564     1  0.0000000  0.6508444  3
   3545   3544   3540   3547     1  0.0000000  0.6508444  3
   3545   3544   3540   3569     1  0.0000000  0.6508444  3
   3545   3544   3556   3562     1  0.0000000  0.6508444  3
   3545   3544   3556   3557     1  0.0000000  0.6508444  3
   3545   3544   3556   3558     1  0.0000000  0.6508444  3
   3546   3544   3540   3547     1  0.0000000  0.6508444  3
   3546   3544   3540   3569     1  0.0000000  0.6508444  3
   3546   3544   3556   3562     1  0.0000000  0.6508444  3
   3546   3544   3556   3557     1  0.0000000  0.6508444  3
   3546   3544   3556   3558     1  0.0000000  0.6508444  3
   3547   3550   3559   3560     1  0.0000000  0.6508444  3
   3547   3550   3559   3561     1  0.0000000  0.6508444  3
   3548   3547   3540   3569     1  0.0000000  0.6508444  3
   3548   3547   3550   3559     1  0.0000000  0.6508444  3
   3548   3547   3550   3551     1  0.0000000  0.6508444  3
   3548   3547   3550   3552     1  0.0000000  0.6508444  3
   3549   3547   3540   3569     1  0.0000000  0.6508444  3
   3549   3547   3550   3559     1  0.0000000  0.6508444  3
   3549   3547   3550   3551     1  0.0000000  0.6508444  3
   3549   3547   3550   3552     1  0.0000000  0.6508444  3
   3550   3547   3540   3569     1  0.0000000  0.6508444  3
   3551   3550   3559   3568     1  0.0000000  1.0460000  1
   3551   3550   3559   3568     1  0.0000000  0.0000000  3
   3551   3550   3559   3560     1  0.0000000  0.6508444  3
   3551   3550   3559   3561     1  0.0000000  0.6508444  3
   3552   3550   3559   3568     1  0.0000000  1.0460000  1
   3552   3550   3559   3568     1  0.0000000  0.0000000  3
   3552   3550   3559   3560     1  0.0000000  0.6508444  3
   3552   3550   3559   3561     1  0.0000000  0.6508444  3
   3553   3541   3540   3569     1  0.0000000  0.6508444  3
   3554   3553   3565   5374     1  0.0000000  1.0460000  1
   3554   3553   3565   5374     1  0.0000000  0.0000000  3
   3554   3553   3565   3566     1  0.0000000  0.6508444  3
   3554   3553   3565   3567     1  0.0000000  0.6508444  3
   3555   3553   3565   5374     1  0.0000000  1.0460000  1
   3555   3553   3565   5374     1  0.0000000  0.0000000  3
   3555   3553   3565   3566     1  0.0000000  0.6508444  3
   3555   3553   3565   3567     1  0.0000000  0.6508444  3
   3556   3544   3540   3569     1  0.0000000  0.6508444  3
   3557   3556   3562   5360     1  0.0000000  1.0460000  1
   3557   3556   3562   5360     1  0.0000000  0.0000000  3
   3557   3556   3562   3563     1  0.0000000  0.6508444  3
   3557   3556   3562   3564     1  0.0000000  0.6508444  3
   3558   3556   3562   5360     1  0.0000000  1.0460000  1
   3558   3556   3562   5360     1  0.0000000  0.0000000  3
   3558   3556   3562   3563     1  0.0000000  0.6508444  3
   3558   3556   3562   3564     1  0.0000000  0.6508444  3
   3562   5360   5354   5355     1  0.0000000  1.6038667  3
   3562   5360   5354   5356     1  0.0000000  1.6038667  3
   3563   3562   5360   5354     1  0.0000000  1.6038667  3
   3564   3562   5360   5354     1  0.0000000  1.6038667  3
   3565   5374   5368   5369     1  0.0000000  1.6038667  3
   3565   5374   5368   5370     1  0.0000000  1.6038667  3
   3566   3565   5374   5368     1  0.0000000  1.6038667  3
   3567   3565   5374   5368     1  0.0000000  1.6038667  3
   3570   3571   3583   3584     1  0.0000000  0.6508444  3
   3570   3571   3583   3585     1  0.0000000  0.6508444  3
   3570   3574   3586   3587     1  0.0000000  0.6508444  3
   3570   3574   3586   3588     1  0.0000000  0.6508444  3
   3570   3577   3580   3581     1  0.0000000  0.6508444  3
   3570   3577   3580   3582     1  0.0000000  0.6508444  3
   3571   3570   3574   3575     1  0.0000000  0.6508444  3
   3571   3570   3574   3576     1  0.0000000  0.6508444  3
   3571   3570   3577   3578     1  0.0000000  0.6508444  3
   3571   3570   3577   3579     1  0.0000000  0.6508444  3
   3571   3583   3595   3596     1  0.0000000  0.6508444  3
   3571   3583   3595   3597     1  0.0000000  0.6508444  3
   3572   3571   3570   3574     1  0.0000000  0.6508444  3
   3572   3571   3570   3577     1  0.0000000  0.6508444  3
   3572   3571   3570   3599     1  0.0000000  0.6508444  3
   3572   3571   3583   3595     1  0.0000000  0.6508444  3
   3572   3571   3583   3584     1  0.0000000  0.6508444  3
   3572   3571   3583   3585     1  0.0000000  0.6508444  3
   3573   3571   3570   3574     1  0.0000000  0.6508444  3
   3573   3571   3570   3577     1  0.0000000  0.6508444  3
   3573   3571   3570   3599     1  0.0000000  0.6508444  3
   3573   3571   3583   3595     1  0.0000000  0.6508444  3
   3573   3571   3583   3584     1  0.0000000  0.6508444  3
   3573   3571   3583   3585     1  0.0000000  0.6508444  3
   3574   3570   3577   3578     1  0.0000000  0.6508444  3
   3574   3570   3577   3579     1  0.0000000  0.6508444  3
   3574   3586   3592   3593     1  0.0000000  0.6508444  3
   3574   3586   3592   3594     1  0.0000000  0.6508444  3
   3575   3574   3570   3577     1  0.0000000  0.6508444  3
   3575   3574   3570   3599     1  0.0000000  0.6508444  3
   3575   3574   3586   3592     1  0.0000000  0.6508444  3
   3575   3574   3586   3587     1  0.0000000  0.6508444  3
   3575   3574   3586   3588     1  0.0000000  0.6508444  3
   3576   3574   3570   3577     1  0.0000000  0.6508444  3
   3576   3574   3570   3599     1  0.0000000  0.6508444  3
   3576   3574   3586   3592     1  0.0000000  0.6508444  3
   3576   3574   3586   3587     1  0.0000000  0.6508444  3
   3576   3574   3586   3588     1  0.0000000  0.6508444  3
   3577   3580   3589   3590     1  0.0000000  0.6508444  3
   3577   3580   3589   3591     1  0.0000000  0.6508444  3
   3578   3577   3570   3599     1  0.0000000  0.6508444  3
   3578   3577   3580   3589     1  0.0000000  0.6508444  3
   3578   3577   3580   3581     1  0.0000000  0.6508444  3
   3578   3577   3580   3582     1  0.0000000  0.6508444  3
   3579   3577   3570   3599     1  0.0000000  0.6508444  3
   3579   3577   3580   3589     1  0.0000000  0.6508444  3
   3579   3577   3580   3581     1  0.0000000  0.6508444  3
   3579   3577   3580   3582     1  0.0000000  0.6508444  3
   3580   3577   3570   3599     1  0.0000000  0.6508444  3
   3581   3580   3589   3598     1  0.0000000  1.0460000  1
   3581   3580   3589   3598     1  0.0000000  0.0000000  3
   3581   3580   3589   3590     1  0.0000000  0.6508444  3
   3581   3580   3589   3591     1  0.0000000  0.6508444  3
   3582   3580   3589   3598     1  0.0000000  1.0460000  1
   3582   3580   3589   3598     1  0.0000000  0.0000000  3
   3582   3580   3589   3590     1  0.0000000  0.6508444  3
   3582   3580   3589   3591     1  0.0000000  0.6508444  3
   3583   3571   3570   3599     1  0.0000000  0.6508444  3
   3584   3583   3595   5402     1  0.0000000  1.0460000  1
   3584   3583   3595   5402     1  0.0000000  0.0000000  3
   3584   3583   3595   3596     1  0.0000000  0.6508444  3
   3584   3583   3595   3597     1  0.0000000  0.6508444  3
   3585   3583   3595   5402     1  0.0000000  1.0460000  1
   3585   3583   3595   5402     1  0.0000000  0.0000000  3
   3585   3583   3595   3596     1  0.0000000  0.6508444  3
   3585   3583   3595   3597     1  0.0000000  0.6508444  3
   3586   3574   3570   3599     1  0.0000000  0.6508444  3
   3587   3586   3592   5388     1  0.0000000  1.0460000  1
   3587   3586   3592   5388     1  0.0000000  0.0000000  3
   3587   3586   3592   3593     1  0.0000000  0.6508444  3
   3587   3586   3592   3594     1  0.0000000  0.6508444  3
   3588   3586   3592   5388     1  0.0000000  1.0460000  1
   3588   3586   3592   5388     1  0.0000000  0.0000000  3
   3588   3586   3592   3593     1  0.0000000  0.6508444  3
   3588   3586   3592   3594     1  0.0000000  0.6508444  3
   3592   5388   5382   5383     1  0.0000000  1.6038667  3
   3592   5388   5382   5384     1  0.0000000  1.6038667  3
   3593   3592   5388   5382     1  0.0000000  1.6038667  3
   3594   3592   5388   5382     1  0.0000000  1.6038667  3
   3595   5402   5396   5397     1  0.0000000  1.6038667  3
   3595   5402   5396   5398     1  0.0000000  1.6038667  3
   3596   3595   5402   5396     1  0.0000000  1.6038667  3
   3597   3595   5402   5396     1  0.0000000  1.6038667  3
   3600   3601   3613   3614     1  0.0000000  0.6508444  3
   3600   3601   3613   3615     1  0.0000000  0.6508444  3
   3600   3604   3616   3617     1  0.0000000  0.6508444  3
   3600   3604   3616   3618     1  0.0000000  0.6508444  3
   3600   3607   3610   3611     1  0.0000000  0.6508444  3
   3600   3607   3610   3612     1  0.0000000  0.6508444  3
   3601   3600   3604   3605     1  0.0000000  0.6508444  3
   3601   3600   3604   3606     1  0.0000000  0.6508444  3
   3601   3600   3607   3608     1  0.0000000  0.6508444  3
   3601   3600   3607   3609     1  0.0000000  0.6508444  3
   3601   3613   3625   3626     1  0.0000000  0.6508444  3
   3601   3613   3625   3627     1  0.0000000  0.6508444  3
   3602   3601   3600   3604     1  0.0000000  0.6508444  3
   3602   3601   3600   3607     1  0.0000000  0.6508444  3
   3602   3601   3600   3629     1  0.0000000  0.6508444  3
   3602   3601   3613   3625     1  0.0000000  0.6508444  3
   3602   3601   3613   3614     1  0.0000000  0.6508444  3
   3602   3601   3613   3615     1  0.0000000  0.6508444  3
   3603   3601   3600   3604     1  0.0000000  0.6508444  3
   3603   3601   3600   3607     1  0.0000000  0.6508444  3
   3603   3601   3600   3629     1  0.0000000  0.6508444  3
   3603   3601   3613   3625     1  0.0000000  0.6508444  3
   3603   3601   3613   3614     1  0.0000000  0.6508444  3
   3603   3601   3613   3615     1  0.0000000  0.6508444  3
   3604   3600   3607   3608     1  0.0000000  0.6508444  3
   3604   3600   3607   3609     1  0.0000000  0.6508444  3
   3604   3616   3622   3623     1  0.0000000  0.6508444  3
   3604   3616   3622   3624     1  0.0000000  0.6508444  3
   3605   3604   3600   3607     1  0.0000000  0.6508444  3
   3605   3604   3600   3629     1  0.0000000  0.6508444  3
   3605   3604   3616   3622     1  0.0000000  0.6508444  3
   3605   3604   3616   3617     1  0.0000000  0.6508444  3
   3605   3604   3616   3618     1  0.0000000  0.6508444  3
   3606   3604   3600   3607     1  0.0000000  0.6508444  3
   3606   3604   3600   3629     1  0.0000000  0.6508444  3
   3606   3604   3616   3622     1  0.0000000  0.6508444  3
   3606   3604   3616   3617     1  0.0000000  0.6508444  3
   3606   3604   3616   3618     1  0.0000000  0.6508444  3
   3607   3610   3619   3620     1  0.0000000  0.6508444  3
   3607   3610   3619   3621     1  0.0000000  0.6508444  3
   3608   3607   3600   3629     1  0.0000000  0.6508444  3
   3608   3607   3610   3619     1  0.0000000  0.6508444  3
   3608   3607   3610   3611     1  0.0000000  0.6508444  3
   3608   3607   3610   3612     1  0.0000000  0.6508444  3
   3609   3607   3600   3629     1  0.0000000  0.6508444  3
   3609   3607   3610   3619     1  0.0000000  0.6508444  3
   3609   3607   3610   3611     1  0.0000000  0.6508444  3
   3609   3607   3610   3612     1  0.0000000  0.6508444  3
   3610   3607   3600   3629     1  0.0000000  0.6508444  3
   3611   3610   3619   3628     1  0.0000000  1.0460000  1
   3611   3610   3619   3628     1  0.0000000  0.0000000  3
   3611   3610   3619   3620     1  0.0000000  0.6508444  3
   3611   3610   3619   3621     1  0.0000000  0.6508444  3
   3612   3610   3619   3628     1  0.0000000  1.0460000  1
   3612   3610   3619   3628     1  0.0000000  0.0000000  3
   3612   3610   3619   3620     1  0.0000000  0.6508444  3
   3612   3610   3619   3621     1  0.0000000  0.6508444  3
   3613   3601   3600   3629     1  0.0000000  0.6508444  3
   3614   3613   3625   5430     1  0.0000000  1.0460000  1
   3614   3613   3625   5430     1  0.0000000  0.0000000  3
   3614   3613   3625   3626     1  0.0000000  0.6508444  3
   3614   3613   3625   3627     1  0.0000000  0.6508444  3
   3615   3613   3625   5430     1  0.0000000  1.0460000  1
   3615   3613   3625   5430     1  0.0000000  0.0000000  3
   3615   3613   3625   3626     1  0.0000000  0.6508444  3
   3615   3613   3625   3627     1  0.0000000  0.6508444  3
   3616   3604   3600   3629     1  0.0000000  0.6508444  3
   3617   3616   3622   5416     1  0.0000000  1.0460000  1
   3617   3616   3622   5416     1  0.0000000  0.0000000  3
   3617   3616   3622   3623     1  0.0000000  0.6508444  3
   3617   3616   3622   3624     1  0.0000000  0.6508444  3
   3618   3616   3622   5416     1  0.0000000  1.0460000  1
   3618   3616   3622   5416     1  0.0000000  0.0000000  3
   3618   3616   3622   3623     1  0.0000000  0.6508444  3
   3618   3616   3622   3624     1  0.0000000  0.6508444  3
   3622   5416   5410   5411     1  0.0000000  1.6038667  3
   3622   5416   5410   5412     1  0.0000000  1.6038667  3
   3623   3622   5416   5410     1  0.0000000  1.6038667  3
   3624   3622   5416   5410     1  0.0000000  1.6038667  3
   3625   5430   5424   5425     1  0.0000000  1.6038667  3
   3625   5430   5424   5426     1  0.0000000  1.6038667  3
   3626   3625   5430   5424     1  0.0000000  1.6038667  3
   3627   3625   5430   5424     1  0.0000000  1.6038667  3
   3630   3631   3643   3644     1  0.0000000  0.6508444  3
   3630   3631   3643   3645     1  0.0000000  0.6508444  3
   3630   3634   3646   3647     1  0.0000000  0.6508444  3
   3630   3634   3646   3648     1  0.0000000  0.6508444  3
   3630   3637   3640   3641     1  0.0000000  0.6508444  3
   3630   3637   3640   3642     1  0.0000000  0.6508444  3
   3631   3630   3634   3635     1  0.0000000  0.6508444  3
   3631   3630   3634   3636     1  0.0000000  0.6508444  3
   3631   3630   3637   3638     1  0.0000000  0.6508444  3
   3631   3630   3637   3639     1  0.0000000  0.6508444  3
   3631   3643   3655   3656     1  0.0000000  0.6508444  3
   3631   3643   3655   3657     1  0.0000000  0.6508444  3
   3632   3631   3630   3634     1  0.0000000  0.6508444  3
   3632   3631   3630   3637     1  0.0000000  0.6508444  3
   3632   3631   3630   3659     1  0.0000000  0.6508444  3
   3632   3631   3643   3655     1  0.0000000  0.6508444  3
   3632   3631   3643   3644     1  0.0000000  0.6508444  3
   3632   3631   3643   3645     1  0.0000000  0.6508444  3
   3633   3631   3630   3634     1  0.0000000  0.6508444  3
   3633   3631   3630   3637     1  0.0000000  0.6508444  3
   3633   3631   3630   3659     1  0.0000000  0.6508444  3
   3633   3631   3643   3655     1  0.0000000  0.6508444  3
   3633   3631   3643   3644     1  0.0000000  0.6508444  3
   3633   3631   3643   3645     1  0.0000000  0.6508444  3
   3634   3630   3637   3638     1  0.0000000  0.6508444  3
   3634   3630   3637   3639     1  0.0000000  0.6508444  3
   3634   3646   3652   3653     1  0.0000000  0.6508444  3
   3634   3646   3652   3654     1  0.0000000  0.6508444  3
   3635   3634   3630   3637     1  0.0000000  0.6508444  3
   3635   3634   3630   3659     1  0.0000000  0.6508444  3
   3635   3634   3646   3652     1  0.0000000  0.6508444  3
   3635   3634   3646   3647     1  0.0000000  0.6508444  3
   3635   3634   3646   3648     1  0.0000000  0.6508444  3
   3636   3634   3630   3637     1  0.0000000  0.6508444  3
   3636   3634   3630   3659     1  0.0000000  0.6508444  3
   3636   3634   3646   3652     1  0.0000000  0.6508444  3
   3636   3634   3646   3647     1  0.0000000  0.6508444  3
   3636   3634   3646   3648     1  0.0000000  0.6508444  3
   3637   3640   3649   3650     1  0.0000000  0.6508444  3
   3637   3640   3649   3651     1  0.0000000  0.6508444  3
   3638   3637   3630   3659     1  0.0000000  0.6508444  3
   3638   3637   3640   3649     1  0.0000000  0.6508444  3
   3638   3637   3640   3641     1  0.0000000  0.6508444  3
   3638   3637   3640   3642     1  0.0000000  0.6508444  3
   3639   3637   3630   3659     1  0.0000000  0.6508444  3
   3639   3637   3640   3649     1  0.0000000  0.6508444  3
   3639   3637   3640   3641     1  0.0000000  0.6508444  3
   3639   3637   3640   3642     1  0.0000000  0.6508444  3
   3640   3637   3630   3659     1  0.0000000  0.6508444  3
   3641   3640   3649   3658     1  0.0000000  1.0460000  1
   3641   3640   3649   3658     1  0.0000000  0.0000000  3
   3641   3640   3649   3650     1  0.0000000  0.6508444  3
   3641   3640   3649   3651     1  0.0000000  0.6508444  3
   3642   3640   3649   3658     1  0.0000000  1.0460000  1
   3642   3640   3649   3658     1  0.0000000  0.0000000  3
   3642   3640   3649   3650     1  0.0000000  0.6508444  3
   3642   3640   3649   3651     1  0.0000000  0.6508444  3
   3643   3631   3630   3659     1  0.0000000  0.6508444  3
   3644   3643   3655   5458     1  0.0000000  1.0460000  1
   3644   3643   3655   5458     1  0.0000000  0.0000000  3
   3644   3643   3655   3656     1  0.0000000  0.6508444  3
   3644   3643   3655   3657     1  0.0000000  0.6508444  3
   3645   3643   3655   5458     1  0.0000000  1.0460000  1
   3645   3643   3655   5458     1  0.0000000  0.0000000  3
   3645   3643   3655   3656     1  0.0000000  0.6508444  3
   3645   3643   3655   3657     1  0.0000000  0.6508444  3
   3646   3634   3630   3659     1  0.0000000  0.6508444  3
   3647   3646   3652   5444     1  0.0000000  1.0460000  1
   3647   3646   3652   5444     1  0.0000000  0.0000000  3
   3647   3646   3652   3653     1  0.0000000  0.6508444  3
   3647   3646   3652   3654     1  0.0000000  0.6508444  3
   3648   3646   3652   5444     1  0.0000000  1.0460000  1
   3648   3646   3652   5444     1  0.0000000  0.0000000  3
   3648   3646   3652   3653     1  0.0000000  0.6508444  3
   3648   3646   3652   3654     1  0.0000000  0.6508444  3
   3652   5444   5438   5439     1  0.0000000  1.6038667  3
   3652   5444   5438   5440     1  0.0000000  1.6038667  3
   3653   3652   5444   5438     1  0.0000000  1.6038667  3
   3654   3652   5444   5438     1  0.0000000  1.6038667  3
   3655   5458   5452   5453     1  0.0000000  1.6038667  3
   3655   5458   5452   5454     1  0.0000000  1.6038667  3
   3656   3655   5458   5452     1  0.0000000  1.6038667  3
   3657   3655   5458   5452     1  0.0000000  1.6038667  3
   3660   3661   3673   3674     1  0.0000000  0.6508444  3
   3660   3661   3673   3675     1  0.0000000  0.6508444  3
   3660   3664   3676   3677     1  0.0000000  0.6508444  3
   3660   3664   3676   3678     1  0.0000000  0.6508444  3
   3660   3667   3670   3671     1  0.0000000  0.6508444  3
   3660   3667   3670   3672     1  0.0000000  0.6508444  3
   3661   3660   3664   3665     1  0.0000000  0.6508444  3
   3661   3660   3664   3666     1  0.0000000  0.6508444  3
   3661   3660   3667   3668     1  0.0000000  0.6508444  3
   3661   3660   3667   3669     1  0.0000000  0.6508444  3
   3661   3673   3685   3686     1  0.0000000  0.6508444  3
   3661   3673   3685   3687     1  0.0000000  0.6508444  3
   3662   3661   3660   3664     1  0.0000000  0.6508444  3
   3662   3661   3660   3667     1  0.0000000  0.6508444  3
   3662   3661   3660   3689     1  0.0000000  0.6508444  3
   3662   3661   3673   3685     1  0.0000000  0.6508444  3
   3662   3661   3673   3674     1  0.0000000  0.6508444  3
   3662   3661   3673   3675     1  0.0000000  0.6508444  3
   3663   3661   3660   3664     1  0.0000000  0.6508444  3
   3663   3661   3660   3667     1  0.0000000  0.6508444  3
   3663   3661   3660   3689     1  0.0000000  0.6508444  3
   3663   3661   3673   3685     1  0.0000000  0.6508444  3
   3663   3661   3673   3674     1  0.0000000  0.6508444  3
   3663   3661   3673   3675     1  0.0000000  0.6508444  3
   3664   3660   3667   3668     1  0.0000000  0.6508444  3
   3664   3660   3667   3669     1  0.0000000  0.6508444  3
   3664   3676   3682   3683     1  0.0000000  0.6508444  3
   3664   3676   3682   3684     1  0.0000000  0.6508444  3
   3665   3664   3660   3667     1  0.0000000  0.6508444  3
   3665   3664   3660   3689     1  0.0000000  0.6508444  3
   3665   3664   3676   3682     1  0.0000000  0.6508444  3
   3665   3664   3676   3677     1  0.0000000  0.6508444  3
   3665   3664   3676   3678     1  0.0000000  0.6508444  3
   3666   3664   3660   3667     1  0.0000000  0.6508444  3
   3666   3664   3660   3689     1  0.0000000  0.6508444  3
   3666   3664   3676   3682     1  0.0000000  0.6508444  3
   3666   3664   3676   3677     1  0.0000000  0.6508444  3
   3666   3664   3676   3678     1  0.0000000  0.6508444  3
   3667   3670   3679   3680     1  0.0000000  0.6508444  3
   3667   3670   3679   3681     1  0.0000000  0.6508444  3
   3668   3667   3660   3689     1  0.0000000  0.6508444  3
   3668   3667   3670   3679     1  0.0000000  0.6508444  3
   3668   3667   3670   3671     1  0.0000000  0.6508444  3
   3668   3667   3670   3672     1  0.0000000  0.6508444  3
   3669   3667   3660   3689     1  0.0000000  0.6508444  3
   3669   3667   3670   3679     1  0.0000000  0.6508444  3
   3669   3667   3670   3671     1  0.0000000  0.6508444  3
   3669   3667   3670   3672     1  0.0000000  0.6508444  3
   3670   3667   3660   3689     1  0.0000000  0.6508444  3
   3671   3670   3679   3688     1  0.0000000  1.0460000  1
   3671   3670   3679   3688     1  0.0000000  0.0000000  3
   3671   3670   3679   3680     1  0.0000000  0.6508444  3
   3671   3670   3679   3681     1  0.0000000  0.6508444  3
   3672   3670   3679   3688     1  0.0000000  1.0460000  1
   3672   3670   3679   3688     1  0.0000000  0.0000000  3
   3672   3670   3679   3680     1  0.0000000  0.6508444  3
   3672   3670   3679   3681     1  0.0000000  0.6508444  3
   3673   3661   3660   3689     1  0.0000000  0.6508444  3
   3674   3673   3685   5486     1  0.0000000  1.0460000  1
   3674   3673   3685   5486     1  0.0000000  0.0000000  3
   3674   3673   3685   3686     1  0.0000000  0.6508444  3
   3674   3673   3685   3687     1  0.0000000  0.6508444  3
   3675   3673   3685   5486     1  0.0000000  1.0460000  1
   3675   3673   3685   5486     1  0.0000000  0.0000000  3
   3675   3673   3685   3686     1  0.0000000  0.6508444  3
   3675   3673   3685   3687     1  0.0000000  0.6508444  3
   3676   3664   3660   3689     1  0.0000000  0.6508444  3
   3677   3676   3682   5472     1  0.0000000  1.0460000  1
   3677   3676   3682   5472     1  0.0000000  0.0000000  3
   3677   3676   3682   3683     1  0.0000000  0.6508444  3
   3677   3676   3682   3684     1  0.0000000  0.6508444  3
   3678   3676   3682   5472     1  0.0000000  1.0460000  1
   3678   3676   3682   5472     1  0.0000000  0.0000000  3
   3678   3676   3682   3683     1  0.0000000  0.6508444  3
   3678   3676   3682   3684     1  0.0000000  0.6508444  3
   3682   5472   5466   5467     1  0.0000000  1.6038667  3
   3682   5472   5466   5468     1  0.0000000  1.6038667  3
   3683   3682   5472   5466     1  0.0000000  1.6038667  3
   3684   3682   5472   5466     1  0.0000000  1.6038667  3
   3685   5486   5480   5481     1  0.0000000  1.6038667  3
   3685   5486   5480   5482     1  0.0000000  1.6038667  3
   3686   3685   5486   5480     1  0.0000000  1.6038667  3
   3687   3685   5486   5480     1  0.0000000  1.6038667  3
   3690   3691   3703   3704     1  0.0000000  0.6508444  3
   3690   3691   3703   3705     1  0.0000000  0.6508444  3
   3690   3694   3706   3707     1  0.0000000  0.6508444  3
   3690   3694   3706   3708     1  0.0000000  0.6508444  3
   3690   3697   3700   3701     1  0.0000000  0.6508444  3
   3690   3697   3700   3702     1  0.0000000  0.6508444  3
   3691   3690   3694   3695     1  0.0000000  0.6508444  3
   3691   3690   3694   3696     1  0.0000000  0.6508444  3
   3691   3690   3697   3698     1  0.0000000  0.6508444  3
   3691   3690   3697   3699     1  0.0000000  0.6508444  3
   3691   3703   3715   3716     1  0.0000000  0.6508444  3
   3691   3703   3715   3717     1  0.0000000  0.6508444  3
   3692   3691   3690   3694     1  0.0000000  0.6508444  3
   3692   3691   3690   3697     1  0.0000000  0.6508444  3
   3692   3691   3690   3719     1  0.0000000  0.6508444  3
   3692   3691   3703   3715     1  0.0000000  0.6508444  3
   3692   3691   3703   3704     1  0.0000000  0.6508444  3
   3692   3691   3703   3705     1  0.0000000  0.6508444  3
   3693   3691   3690   3694     1  0.0000000  0.6508444  3
   3693   3691   3690   3697     1  0.0000000  0.6508444  3
   3693   3691   3690   3719     1  0.0000000  0.6508444  3
   3693   3691   3703   3715     1  0.0000000  0.6508444  3
   3693   3691   3703   3704     1  0.0000000  0.6508444  3
   3693   3691   3703   3705     1  0.0000000  0.6508444  3
   3694   3690   3697   3698     1  0.0000000  0.6508444  3
   3694   3690   3697   3699     1  0.0000000  0.6508444  3
   3694   3706   3712   3713     1  0.0000000  0.6508444  3
   3694   3706   3712   3714     1  0.0000000  0.6508444  3
   3695   3694   3690   3697     1  0.0000000  0.6508444  3
   3695   3694   3690   3719     1  0.0000000  0.6508444  3
   3695   3694   3706   3712     1  0.0000000  0.6508444  3
   3695   3694   3706   3707     1  0.0000000  0.6508444  3
   3695   3694   3706   3708     1  0.0000000  0.6508444  3
   3696   3694   3690   3697     1  0.0000000  0.6508444  3
   3696   3694   3690   3719     1  0.0000000  0.6508444  3
   3696   3694   3706   3712     1  0.0000000  0.6508444  3
   3696   3694   3706   3707     1  0.0000000  0.6508444  3
   3696   3694   3706   3708     1  0.0000000  0.6508444  3
   3697   3700   3709   3710     1  0.0000000  0.6508444  3
   3697   3700   3709   3711     1  0.0000000  0.6508444  3
   3698   3697   3690   3719     1  0.0000000  0.6508444  3
   3698   3697   3700   3709     1  0.0000000  0.6508444  3
   3698   3697   3700   3701     1  0.0000000  0.6508444  3
   3698   3697   3700   3702     1  0.0000000  0.6508444  3
   3699   3697   3690   3719     1  0.0000000  0.6508444  3
   3699   3697   3700   3709     1  0.0000000  0.6508444  3
   3699   3697   3700   3701     1  0.0000000  0.6508444  3
   3699   3697   3700   3702     1  0.0000000  0.6508444  3
   3700   3697   3690   3719     1  0.0000000  0.6508444  3
   3701   3700   3709   3718     1  0.0000000  1.0460000  1
   3701   3700   3709   3718     1  0.0000000  0.0000000  3
   3701   3700   3709   3710     1  0.0000000  0.6508444  3
   3701   3700   3709   3711     1  0.0000000  0.6508444  3
   3702   3700   3709   3718     1  0.0000000  1.0460000  1
   3702   3700   3709   3718     1  0.0000000  0.0000000  3
   3702   3700   3709   3710     1  0.0000000  0.6508444  3
   3702   3700   3709   3711     1  0.0000000  0.6508444  3
   3703   3691   3690   3719     1  0.0000000  0.6508444  3
   3704   3703   3715   5514     1  0.0000000  1.0460000  1
   3704   3703   3715   5514     1  0.0000000  0.0000000  3
   3704   3703   3715   3716     1  0.0000000  0.6508444  3
   3704   3703   3715   3717     1  0.0000000  0.6508444  3
   3705   3703   3715   5514     1  0.0000000  1.0460000  1
   3705   3703   3715   5514     1  0.0000000  0.0000000  3
   3705   3703   3715   3716     1  0.0000000  0.6508444  3
   3705   3703   3715   3717     1  0.0000000  0.6508444  3
   3706   3694   3690   3719     1  0.0000000  0.6508444  3
   3707   3706   3712   5500     1  0.0000000  1.0460000  1
   3707   3706   3712   5500     1  0.0000000  0.0000000  3
   3707   3706   3712   3713     1  0.0000000  0.6508444  3
   3707   3706   3712   3714     1  0.0000000  0.6508444  3
   3708   3706   3712   5500     1  0.0000000  1.0460000  1
   3708   3706   3712   5500     1  0.0000000  0.0000000  3
   3708   3706   3712   3713     1  0.0000000  0.6508444  3
   3708   3706   3712   3714     1  0.0000000  0.6508444  3
   3712   5500   5494   5495     1  0.0000000  1.6038667  3
   3712   5500   5494   5496     1  0.0000000  1.6038667  3
   3713   3712   5500   5494     1  0.0000000  1.6038667  3
   3714   3712   5500   5494     1  0.0000000  1.6038667  3
   3715   5514   5508   5509     1  0.0000000  1.6038667  3
   3715   5514   5508   5510     1  0.0000000  1.6038667  3
   3716   3715   5514   5508     1  0.0000000  1.6038667  3
   3717   3715   5514   5508     1  0.0000000  1.6038667  3
   3720   3721   3733   3734     1  0.0000000  0.6508444  3
   3720   3721   3733   3735     1  0.0000000  0.6508444  3
   3720   3724   3736   3737     1  0.0000000  0.6508444  3
   3720   3724   3736   3738     1  0.0000000  0.6508444  3
   3720   3727   3730   3731     1  0.0000000  0.6508444  3
   3720   3727   3730   3732     1  0.0000000  0.6508444  3
   3721   3720   3724   3725     1  0.0000000  0.6508444  3
   3721   3720   3724   3726     1  0.0000000  0.6508444  3
   3721   3720   3727   3728     1  0.0000000  0.6508444  3
   3721   3720   3727   3729     1  0.0000000  0.6508444  3
   3721   3733   3745   3746     1  0.0000000  0.6508444  3
   3721   3733   3745   3747     1  0.0000000  0.6508444  3
   3722   3721   3720   3724     1  0.0000000  0.6508444  3
   3722   3721   3720   3727     1  0.0000000  0.6508444  3
   3722   3721   3720   3749     1  0.0000000  0.6508444  3
   3722   3721   3733   3745     1  0.0000000  0.6508444  3
   3722   3721   3733   3734     1  0.0000000  0.6508444  3
   3722   3721   3733   3735     1  0.0000000  0.6508444  3
   3723   3721   3720   3724     1  0.0000000  0.6508444  3
   3723   3721   3720   3727     1  0.0000000  0.6508444  3
   3723   3721   3720   3749     1  0.0000000  0.6508444  3
   3723   3721   3733   3745     1  0.0000000  0.6508444  3
   3723   3721   3733   3734     1  0.0000000  0.6508444  3
   3723   3721   3733   3735     1  0.0000000  0.6508444  3
   3724   3720   3727   3728     1  0.0000000  0.6508444  3
   3724   3720   3727   3729     1  0.0000000  0.6508444  3
   3724   3736   3742   3743     1  0.0000000  0.6508444  3
   3724   3736   3742   3744     1  0.0000000  0.6508444  3
   3725   3724   3720   3727     1  0.0000000  0.6508444  3
   3725   3724   3720   3749     1  0.0000000  0.6508444  3
   3725   3724   3736   3742     1  0.0000000  0.6508444  3
   3725   3724   3736   3737     1  0.0000000  0.6508444  3
   3725   3724   3736   3738     1  0.0000000  0.6508444  3
   3726   3724   3720   3727     1  0.0000000  0.6508444  3
   3726   3724   3720   3749     1  0.0000000  0.6508444  3
   3726   3724   3736   3742     1  0.0000000  0.6508444  3
   3726   3724   3736   3737     1  0.0000000  0.6508444  3
   3726   3724   3736   3738     1  0.0000000  0.6508444  3
   3727   3730   3739   3740     1  0.0000000  0.6508444  3
   3727   3730   3739   3741     1  0.0000000  0.6508444  3
   3728   3727   3720   3749     1  0.0000000  0.6508444  3
   3728   3727   3730   3739     1  0.0000000  0.6508444  3
   3728   3727   3730   3731     1  0.0000000  0.6508444  3
   3728   3727   3730   3732     1  0.0000000  0.6508444  3
   3729   3727   3720   3749     1  0.0000000  0.6508444  3
   3729   3727   3730   3739     1  0.0000000  0.6508444  3
   3729   3727   3730   3731     1  0.0000000  0.6508444  3
   3729   3727   3730   3732     1  0.0000000  0.6508444  3
   3730   3727   3720   3749     1  0.0000000  0.6508444  3
   3731   3730   3739   3748     1  0.0000000  1.0460000  1
   3731   3730   3739   3748     1  0.0000000  0.0000000  3
   3731   3730   3739   3740     1  0.0000000  0.6508444  3
   3731   3730   3739   3741     1  0.0000000  0.6508444  3
   3732   3730   3739   3748     1  0.0000000  1.0460000  1
   3732   3730   3739   3748     1  0.0000000  0.0000000  3
   3732   3730   3739   3740     1  0.0000000  0.6508444  3
   3732   3730   3739   3741     1  0.0000000  0.6508444  3
   3733   3721   3720   3749     1  0.0000000  0.6508444  3
   3734   3733   3745   5542     1  0.0000000  1.0460000  1
   3734   3733   3745   5542     1  0.0000000  0.0000000  3
   3734   3733   3745   3746     1  0.0000000  0.6508444  3
   3734   3733   3745   3747     1  0.0000000  0.6508444  3
   3735   3733   3745   5542     1  0.0000000  1.0460000  1
   3735   3733   3745   5542     1  0.0000000  0.0000000  3
   3735   3733   3745   3746     1  0.0000000  0.6508444  3
   3735   3733   3745   3747     1  0.0000000  0.6508444  3
   3736   3724   3720   3749     1  0.0000000  0.6508444  3
   3737   3736   3742   5528     1  0.0000000  1.0460000  1
   3737   3736   3742   5528     1  0.0000000  0.0000000  3
   3737   3736   3742   3743     1  0.0000000  0.6508444  3
   3737   3736   3742   3744     1  0.0000000  0.6508444  3
   3738   3736   3742   5528     1  0.0000000  1.0460000  1
   3738   3736   3742   5528     1  0.0000000  0.0000000  3
   3738   3736   3742   3743     1  0.0000000  0.6508444  3
   3738   3736   3742   3744     1  0.0000000  0.6508444  3
   3742   5528   5522   5523     1  0.0000000  1.6038667  3
   3742   5528   5522   5524     1  0.0000000  1.6038667  3
   3743   3742   5528   5522     1  0.0000000  1.6038667  3
   3744   3742   5528   5522     1  0.0000000  1.6038667  3
   3745   5542   5536   5537     1  0.0000000  1.6038667  3
   3745   5542   5536   5538     1  0.0000000  1.6038667  3
   3746   3745   5542   5536     1  0.0000000  1.6038667  3
   3747   3745   5542   5536     1  0.0000000  1.6038667  3
   3750   3751   3763   3764     1  0.0000000  0.6508444  3
   3750   3751   3763   3765     1  0.0000000  0.6508444  3
   3750   3754   3766   3767     1  0.0000000  0.6508444  3
   3750   3754   3766   3768     1  0.0000000  0.6508444  3
   3750   3757   3760   3761     1  0.0000000  0.6508444  3
   3750   3757   3760   3762     1  0.0000000  0.6508444  3
   3751   3750   3754   3755     1  0.0000000  0.6508444  3
   3751   3750   3754   3756     1  0.0000000  0.6508444  3
   3751   3750   3757   3758     1  0.0000000  0.6508444  3
   3751   3750   3757   3759     1  0.0000000  0.6508444  3
   3751   3763   3775   3776     1  0.0000000  0.6508444  3
   3751   3763   3775   3777     1  0.0000000  0.6508444  3
   3752   3751   3750   3754     1  0.0000000  0.6508444  3
   3752   3751   3750   3757     1  0.0000000  0.6508444  3
   3752   3751   3750   3779     1  0.0000000  0.6508444  3
   3752   3751   3763   3775     1  0.0000000  0.6508444  3
   3752   3751   3763   3764     1  0.0000000  0.6508444  3
   3752   3751   3763   3765     1  0.0000000  0.6508444  3
   3753   3751   3750   3754     1  0.0000000  0.6508444  3
   3753   3751   3750   3757     1  0.0000000  0.6508444  3
   3753   3751   3750   3779     1  0.0000000  0.6508444  3
   3753   3751   3763   3775     1  0.0000000  0.6508444  3
   3753   3751   3763   3764     1  0.0000000  0.6508444  3
   3753   3751   3763   3765     1  0.0000000  0.6508444  3
   3754   3750   3757   3758     1  0.0000000  0.6508444  3
   3754   3750   3757   3759     1  0.0000000  0.6508444  3
   3754   3766   3772   3773     1  0.0000000  0.6508444  3
   3754   3766   3772   3774     1  0.0000000  0.6508444  3
   3755   3754   3750   3757     1  0.0000000  0.6508444  3
   3755   3754   3750   3779     1  0.0000000  0.6508444  3
   3755   3754   3766   3772     1  0.0000000  0.6508444  3
   3755   3754   3766   3767     1  0.0000000  0.6508444  3
   3755   3754   3766   3768     1  0.0000000  0.6508444  3
   3756   3754   3750   3757     1  0.0000000  0.6508444  3
   3756   3754   3750   3779     1  0.0000000  0.6508444  3
   3756   3754   3766   3772     1  0.0000000  0.6508444  3
   3756   3754   3766   3767     1  0.0000000  0.6508444  3
   3756   3754   3766   3768     1  0.0000000  0.6508444  3
   3757   3760   3769   3770     1  0.0000000  0.6508444  3
   3757   3760   3769   3771     1  0.0000000  0.6508444  3
   3758   3757   3750   3779     1  0.0000000  0.6508444  3
   3758   3757   3760   3769     1  0.0000000  0.6508444  3
   3758   3757   3760   3761     1  0.0000000  0.6508444  3
   3758   3757   3760   3762     1  0.0000000  0.6508444  3
   3759   3757   3750   3779     1  0.0000000  0.6508444  3
   3759   3757   3760   3769     1  0.0000000  0.6508444  3
   3759   3757   3760   3761     1  0.0000000  0.6508444  3
   3759   3757   3760   3762     1  0.0000000  0.6508444  3
   3760   3757   3750   3779     1  0.0000000  0.6508444  3
   3761   3760   3769   3778     1  0.0000000  1.0460000  1
   3761   3760   3769   3778     1  0.0000000  0.0000000  3
   3761   3760   3769   3770     1  0.0000000  0.6508444  3
   3761   3760   3769   3771     1  0.0000000  0.6508444  3
   3762   3760   3769   3778     1  0.0000000  1.0460000  1
   3762   3760   3769   3778     1  0.0000000  0.0000000  3
   3762   3760   3769   3770     1  0.0000000  0.6508444  3
   3762   3760   3769   3771     1  0.0000000  0.6508444  3
   3763   3751   3750   3779     1  0.0000000  0.6508444  3
   3764   3763   3775   5570     1  0.0000000  1.0460000  1
   3764   3763   3775   5570     1  0.0000000  0.0000000  3
   3764   3763   3775   3776     1  0.0000000  0.6508444  3
   3764   3763   3775   3777     1  0.0000000  0.6508444  3
   3765   3763   3775   5570     1  0.0000000  1.0460000  1
   3765   3763   3775   5570     1  0.0000000  0.0000000  3
   3765   3763   3775   3776     1  0.0000000  0.6508444  3
   3765   3763   3775   3777     1  0.0000000  0.6508444  3
   3766   3754   3750   3779     1  0.0000000  0.6508444  3
   3767   3766   3772   5556     1  0.0000000  1.0460000  1
   3767   3766   3772   5556     1  0.0000000  0.0000000  3
   3767   3766   3772   3773     1  0.0000000  0.6508444  3
   3767   3766   3772   3774     1  0.0000000  0.6508444  3
   3768   3766   3772   5556     1  0.0000000  1.0460000  1
   3768   3766   3772   5556     1  0.0000000  0.0000000  3
   3768   3766   3772   3773     1  0.0000000  0.6508444  3
   3768   3766   3772   3774     1  0.0000000  0.6508444  3
   3772   5556   5550   5551     1  0.0000000  1.6038667  3
   3772   5556   5550   5552     1  0.0000000  1.6038667  3
   3773   3772   5556   5550     1  0.0000000  1.6038667  3
   3774   3772   5556   5550     1  0.0000000  1.6038667  3
   3775   5570   5564   5565     1  0.0000000  1.6038667  3
   3775   5570   5564   5566     1  0.0000000  1.6038667  3
   3776   3775   5570   5564     1  0.0000000  1.6038667  3
   3777   3775   5570   5564     1  0.0000000  1.6038667  3
   3780   3783   3786   3787     1  0.0000000  0.6508444  3
   3780   3783   3786   3788     1  0.0000000  0.6508444  3
   3781   3780   3783   3786     1  0.0000000  0.6508444  3
   3781   3780   3783   3784     1  0.0000000  0.6508444  3
   3781   3780   3783   3785     1  0.0000000  0.6508444  3
   3781   3780   3789   3790     1  0.0000000  0.6508444  3
   3781   3780   3789   3791     1  0.0000000  0.6508444  3
   3781   3780   3789   3793     1  0.0000000  0.6508444  3
   3782   3780   3783   3786     1  0.0000000  0.6508444  3
   3782   3780   3783   3784     1  0.0000000  0.6508444  3
   3782   3780   3783   3785     1  0.0000000  0.6508444  3
   3782   3780   3789   3790     1  0.0000000  0.6508444  3
   3782   3780   3789   3791     1  0.0000000  0.6508444  3
   3782   3780   3789   3793     1  0.0000000  0.6508444  3
   3783   3780   3789   3790     1  0.0000000  0.6508444  3
   3783   3780   3789   3791     1  0.0000000  0.6508444  3
   3783   3780   3789   3793     1  0.0000000  0.6508444  3
   3784   3783   3780   3789     1  0.0000000  0.6508444  3
   3784   3783   3786   3792     1  0.0000000  1.0460000  1
   3784   3783   3786   3792     1  0.0000000  0.0000000  3
   3784   3783   3786   3787     1  0.0000000  0.6508444  3
   3784   3783   3786   3788     1  0.0000000  0.6508444  3
   3785   3783   3780   3789     1  0.0000000  0.6508444  3
   3785   3783   3786   3792     1  0.0000000  1.0460000  1
   3785   3783   3786   3792     1  0.0000000  0.0000000  3
   3785   3783   3786   3787     1  0.0000000  0.6508444  3
   3785   3783   3786   3788     1  0.0000000  0.6508444  3
   3794   3797   3800   3801     1  0.0000000  0.6508444  3
   3794   3797   3800   3802     1  0.0000000  0.6508444  3
   3795   3794   3797   3800     1  0.0000000  0.6508444  3
   3795   3794   3797   3798     1  0.0000000  0.6508444  3
   3795   3794   3797   3799     1  0.0000000  0.6508444  3
   3795   3794   3803   3804     1  0.0000000  0.6508444  3
   3795   3794   3803   3805     1  0.0000000  0.6508444  3
   3795   3794   3803   3807     1  0.0000000  0.6508444  3
   3796   3794   3797   3800     1  0.0000000  0.6508444  3
   3796   3794   3797   3798     1  0.0000000  0.6508444  3
   3796   3794   3797   3799     1  0.0000000  0.6508444  3
   3796   3794   3803   3804     1  0.0000000  0.6508444  3
   3796   3794   3803   3805     1  0.0000000  0.6508444  3
   3796   3794   3803   3807     1  0.0000000  0.6508444  3
   3797   3794   3803   3804     1  0.0000000  0.6508444  3
   3797   3794   3803   3805     1  0.0000000  0.6508444  3
   3797   3794   3803   3807     1  0.0000000  0.6508444  3
   3798   3797   3800   3806     1  0.0000000  1.0460000  1
   3798   3797   3800   3806     1  0.0000000  0.0000000  3
   3798   3797   3800   3801     1  0.0000000  0.6508444  3
   3798   3797   3800   3802     1  0.0000000  0.6508444  3
   3798   3797   3794   3803     1  0.0000000  0.6508444  3
   3799   3797   3800   3806     1  0.0000000  1.0460000  1
   3799   3797   3800   3806     1  0.0000000  0.0000000  3
   3799   3797   3800   3801     1  0.0000000  0.6508444  3
   3799   3797   3800   3802     1  0.0000000  0.6508444  3
   3799   3797   3794   3803     1  0.0000000  0.6508444  3
   3808   3811   3814   3815     1  0.0000000  0.6508444  3
   3808   3811   3814   3816     1  0.0000000  0.6508444  3
   3809   3808   3811   3814     1  0.0000000  0.6508444  3
   3809   3808   3811   3812     1  0.0000000  0.6508444  3
   3809   3808   3811   3813     1  0.0000000  0.6508444  3
   3809   3808   3817   3818     1  0.0000000  0.6508444  3
   3809   3808   3817   3819     1  0.0000000  0.6508444  3
   3809   3808   3817   3821     1  0.0000000  0.6508444  3
   3810   3808   3811   3814     1  0.0000000  0.6508444  3
   3810   3808   3811   3812     1  0.0000000  0.6508444  3
   3810   3808   3811   3813     1  0.0000000  0.6508444  3
   3810   3808   3817   3818     1  0.0000000  0.6508444  3
   3810   3808   3817   3819     1  0.0000000  0.6508444  3
   3810   3808   3817   3821     1  0.0000000  0.6508444  3
   3811   3808   3817   3818     1  0.0000000  0.6508444  3
   3811   3808   3817   3819     1  0.0000000  0.6508444  3
   3811   3808   3817   3821     1  0.0000000  0.6508444  3
   3812   3811   3808   3817     1  0.0000000  0.6508444  3
   3812   3811   3814   3820     1  0.0000000  1.0460000  1
   3812   3811   3814   3820     1  0.0000000  0.0000000  3
   3812   3811   3814   3815     1  0.0000000  0.6508444  3
   3812   3811   3814   3816     1  0.0000000  0.6508444  3
   3813   3811   3808   3817     1  0.0000000  0.6508444  3
   3813   3811   3814   3820     1  0.0000000  1.0460000  1
   3813   3811   3814   3820     1  0.0000000  0.0000000  3
   3813   3811   3814   3815     1  0.0000000  0.6508444  3
   3813   3811   3814   3816     1  0.0000000  0.6508444  3
   3822   3825   3828   3829     1  0.0000000  0.6508444  3
   3822   3825   3828   3830     1  0.0000000  0.6508444  3
   3823   3822   3825   3828     1  0.0000000  0.6508444  3
   3823   3822   3825   3826     1  0.0000000  0.6508444  3
   3823   3822   3825   3827     1  0.0000000  0.6508444  3
   3823   3822   3831   3832     1  0.0000000  0.6508444  3
   3823   3822   3831   3833     1  0.0000000  0.6508444  3
   3823   3822   3831   3835     1  0.0000000  0.6508444  3
   3824   3822   3825   3828     1  0.0000000  0.6508444  3
   3824   3822   3825   3826     1  0.0000000  0.6508444  3
   3824   3822   3825   3827     1  0.0000000  0.6508444  3
   3824   3822   3831   3832     1  0.0000000  0.6508444  3
   3824   3822   3831   3833     1  0.0000000  0.6508444  3
   3824   3822   3831   3835     1  0.0000000  0.6508444  3
   3825   3822   3831   3832     1  0.0000000  0.6508444  3
   3825   3822   3831   3833     1  0.0000000  0.6508444  3
   3825   3822   3831   3835     1  0.0000000  0.6508444  3
   3826   3825   3828   3834     1  0.0000000  1.0460000  1
   3826   3825   3828   3834     1  0.0000000  0.0000000  3
   3826   3825   3828   3829     1  0.0000000  0.6508444  3
   3826   3825   3828   3830     1  0.0000000  0.6508444  3
   3826   3825   3822   3831     1  0.0000000  0.6508444  3
   3827   3825   3828   3834     1  0.0000000  1.0460000  1
   3827   3825   3828   3834     1  0.0000000  0.0000000  3
   3827   3825   3828   3829     1  0.0000000  0.6508444  3
   3827   3825   3828   3830     1  0.0000000  0.6508444  3
   3827   3825   3822   3831     1  0.0000000  0.6508444  3
   3836   3839   3842   3843     1  0.0000000  0.6508444  3
   3836   3839   3842   3844     1  0.0000000  0.6508444  3
   3837   3836   3839   3842     1  0.0000000  0.6508444  3
   3837   3836   3839   3840     1  0.0000000  0.6508444  3
   3837   3836   3839   3841     1  0.0000000  0.6508444  3
   3837   3836   3845   3846     1  0.0000000  0.6508444  3
   3837   3836   3845   3847     1  0.0000000  0.6508444  3
   3837   3836   3845   3849     1  0.0000000  0.6508444  3
   3838   3836   3839   3842     1  0.0000000  0.6508444  3
   3838   3836   3839   3840     1  0.0000000  0.6508444  3
   3838   3836   3839   3841     1  0.0000000  0.6508444  3
   3838   3836   3845   3846     1  0.0000000  0.6508444  3
   3838   3836   3845   3847     1  0.0000000  0.6508444  3
   3838   3836   3845   3849     1  0.0000000  0.6508444  3
   3839   3836   3845   3846     1  0.0000000  0.6508444  3
   3839   3836   3845   3847     1  0.0000000  0.6508444  3
   3839   3836   3845   3849     1  0.0000000  0.6508444  3
   3840   3839   3836   3845     1  0.0000000  0.6508444  3
   3840   3839   3842   3848     1  0.0000000  1.0460000  1
   3840   3839   3842   3848     1  0.0000000  0.0000000  3
   3840   3839   3842   3843     1  0.0000000  0.6508444  3
   3840   3839   3842   3844     1  0.0000000  0.6508444  3
   3841   3839   3836   3845     1  0.0000000  0.6508444  3
   3841   3839   3842   3848     1  0.0000000  1.0460000  1
   3841   3839   3842   3848     1  0.0000000  0.0000000  3
   3841   3839   3842   3843     1  0.0000000  0.6508444  3
   3841   3839   3842   3844     1  0.0000000  0.6508444  3
   3850   3853   3856   3857     1  0.0000000  0.6508444  3
   3850   3853   3856   3858     1  0.0000000  0.6508444  3
   3851   3850   3853   3856     1  0.0000000  0.6508444  3
   3851   3850   3853   3854     1  0.0000000  0.6508444  3
   3851   3850   3853   3855     1  0.0000000  0.6508444  3
   3851   3850   3859   3860     1  0.0000000  0.6508444  3
   3851   3850   3859   3861     1  0.0000000  0.6508444  3
   3851   3850   3859   3863     1  0.0000000  0.6508444  3
   3852   3850   3853   3856     1  0.0000000  0.6508444  3
   3852   3850   3853   3854     1  0.0000000  0.6508444  3
   3852   3850   3853   3855     1  0.0000000  0.6508444  3
   3852   3850   3859   3860     1  0.0000000  0.6508444  3
   3852   3850   3859   3861     1  0.0000000  0.6508444  3
   3852   3850   3859   3863     1  0.0000000  0.6508444  3
   3853   3850   3859   3860     1  0.0000000  0.6508444  3
   3853   3850   3859   3861     1  0.0000000  0.6508444  3
   3853   3850   3859   3863     1  0.0000000  0.6508444  3
   3854   3853   3856   3862     1  0.0000000  1.0460000  1
   3854   3853   3856   3862     1  0.0000000  0.0000000  3
   3854   3853   3856   3857     1  0.0000000  0.6508444  3
   3854   3853   3856   3858     1  0.0000000  0.6508444  3
   3854   3853   3850   3859     1  0.0000000  0.6508444  3
   3855   3853   3856   3862     1  0.0000000  1.0460000  1
   3855   3853   3856   3862     1  0.0000000  0.0000000  3
   3855   3853   3856   3857     1  0.0000000  0.6508444  3
   3855   3853   3856   3858     1  0.0000000  0.6508444  3
   3855   3853   3850   3859     1  0.0000000  0.6508444  3
   3864   3867   3870   3871     1  0.0000000  0.6508444  3
   3864   3867   3870   3872     1  0.0000000  0.6508444  3
   3865   3864   3867   3870     1  0.0000000  0.6508444  3
   3865   3864   3867   3868     1  0.0000000  0.6508444  3
   3865   3864   3867   3869     1  0.0000000  0.6508444  3
   3865   3864   3873   3874     1  0.0000000  0.6508444  3
   3865   3864   3873   3875     1  0.0000000  0.6508444  3
   3865   3864   3873   3877     1  0.0000000  0.6508444  3
   3866   3864   3867   3870     1  0.0000000  0.6508444  3
   3866   3864   3867   3868     1  0.0000000  0.6508444  3
   3866   3864   3867   3869     1  0.0000000  0.6508444  3
   3866   3864   3873   3874     1  0.0000000  0.6508444  3
   3866   3864   3873   3875     1  0.0000000  0.6508444  3
   3866   3864   3873   3877     1  0.0000000  0.6508444  3
   3867   3864   3873   3874     1  0.0000000  0.6508444  3
   3867   3864   3873   3875     1  0.0000000  0.6508444  3
   3867   3864   3873   3877     1  0.0000000  0.6508444  3
   3868   3867   3864   3873     1  0.0000000  0.6508444  3
   3868   3867   3870   3876     1  0.0000000  1.0460000  1
   3868   3867   3870   3876     1  0.0000000  0.0000000  3
   3868   3867   3870   3871     1  0.0000000  0.6508444  3
   3868   3867   3870   3872     1  0.0000000  0.6508444  3
   3869   3867   3864   3873     1  0.0000000  0.6508444  3
   3869   3867   3870   3876     1  0.0000000  1.0460000  1
   3869   3867   3870   3876     1  0.0000000  0.0000000  3
   3869   3867   3870   3871     1  0.0000000  0.6508444  3
   3869   3867   3870   3872     1  0.0000000  0.6508444  3
   3878   3881   3884   3885     1  0.0000000  0.6508444  3
   3878   3881   3884   3886     1  0.0000000  0.6508444  3
   3879   3878   3881   3884     1  0.0000000  0.6508444  3
   3879   3878   3881   3882     1  0.0000000  0.6508444  3
   3879   3878   3881   3883     1  0.0000000  0.6508444  3
   3879   3878   3887   3888     1  0.0000000  0.6508444  3
   3879   3878   3887   3889     1  0.0000000  0.6508444  3
   3879   3878   3887   3891     1  0.0000000  0.6508444  3
   3880   3878   3881   3884     1  0.0000000  0.6508444  3
   3880   3878   3881   3882     1  0.0000000  0.6508444  3
   3880   3878   3881   3883     1  0.0000000  0.6508444  3
   3880   3878   3887   3888     1  0.0000000  0.6508444  3
   3880   3878   3887   3889     1  0.0000000  0.6508444  3
   3880   3878   3887   3891     1  0.0000000  0.6508444  3
   3881   3878   3887   3888     1  0.0000000  0.6508444  3
   3881   3878   3887   3889     1  0.0000000  0.6508444  3
   3881   3878   3887   3891     1  0.0000000  0.6508444  3
   3882   3881   3884   3890     1  0.0000000  1.0460000  1
   3882   3881   3884   3890     1  0.0000000  0.0000000  3
   3882   3881   3884   3885     1  0.0000000  0.6508444  3
   3882   3881   3884   3886     1  0.0000000  0.6508444  3
   3882   3881   3878   3887     1  0.0000000  0.6508444  3
   3883   3881   3884   3890     1  0.0000000  1.0460000  1
   3883   3881   3884   3890     1  0.0000000  0.0000000  3
   3883   3881   3884   3885     1  0.0000000  0.6508444  3
   3883   3881   3884   3886     1  0.0000000  0.6508444  3
   3883   3881   3878   3887     1  0.0000000  0.6508444  3
   3892   3895   3898   3899     1  0.0000000  0.6508444  3
   3892   3895   3898   3900     1  0.0000000  0.6508444  3
   3893   3892   3895   3898     1  0.0000000  0.6508444  3
   3893   3892   3895   3896     1  0.0000000  0.6508444  3
   3893   3892   3895   3897     1  0.0000000  0.6508444  3
   3893   3892   3901   3902     1  0.0000000  0.6508444  3
   3893   3892   3901   3903     1  0.0000000  0.6508444  3
   3893   3892   3901   3905     1  0.0000000  0.6508444  3
   3894   3892   3895   3898     1  0.0000000  0.6508444  3
   3894   3892   3895   3896     1  0.0000000  0.6508444  3
   3894   3892   3895   3897     1  0.0000000  0.6508444  3
   3894   3892   3901   3902     1  0.0000000  0.6508444  3
   3894   3892   3901   3903     1  0.0000000  0.6508444  3
   3894   3892   3901   3905     1  0.0000000  0.6508444  3
   3895   3892   3901   3902     1  0.0000000  0.6508444  3
   3895   3892   3901   3903     1  0.0000000  0.6508444  3
   3895   3892   3901   3905     1  0.0000000  0.6508444  3
   3896   3895   3892   3901     1  0.0000000  0.6508444  3
   3896   3895   3898   3904     1  0.0000000  1.0460000  1
   3896   3895   3898   3904     1  0.0000000  0.0000000  3
   3896   3895   3898   3899     1  0.0000000  0.6508444  3
   3896   3895   3898   3900     1  0.0000000  0.6508444  3
   3897   3895   3892   3901     1  0.0000000  0.6508444  3
   3897   3895   3898   3904     1  0.0000000  1.0460000  1
   3897   3895   3898   3904     1  0.0000000  0.0000000  3
   3897   3895   3898   3899     1  0.0000000  0.6508444  3
   3897   3895   3898   3900     1  0.0000000  0.6508444  3
   3906   3909   3912   3913     1  0.0000000  0.6508444  3
   3906   3909   3912   3914     1  0.0000000  0.6508444  3
   3907   3906   3909   3912     1  0.0000000  0.6508444  3
   3907   3906   3909   3910     1  0.0000000  0.6508444  3
   3907   3906   3909   3911     1  0.0000000  0.6508444  3
   3907   3906   3915   3916     1  0.0000000  0.6508444  3
   3907   3906   3915   3917     1  0.0000000  0.6508444  3
   3907   3906   3915   3919     1  0.0000000  0.6508444  3
   3908   3906   3909   3912     1  0.0000000  0.6508444  3
   3908   3906   3909   3910     1  0.0000000  0.6508444  3
   3908   3906   3909   3911     1  0.0000000  0.6508444  3
   3908   3906   3915   3916     1  0.0000000  0.6508444  3
   3908   3906   3915   3917     1  0.0000000  0.6508444  3
   3908   3906   3915   3919     1  0.0000000  0.6508444  3
   3909   3906   3915   3916     1  0.0000000  0.6508444  3
   3909   3906   3915   3917     1  0.0000000  0.6508444  3
   3909   3906   3915   3919     1  0.0000000  0.6508444  3
   3910   3909   3912   3918     1  0.0000000  1.0460000  1
   3910   3909   3912   3918     1  0.0000000  0.0000000  3
   3910   3909   3912   3913     1  0.0000000  0.6508444  3
   3910   3909   3912   3914     1  0.0000000  0.6508444  3
   3910   3909   3906   3915     1  0.0000000  0.6508444  3
   3911   3909   3912   3918     1  0.0000000  1.0460000  1
   3911   3909   3912   3918     1  0.0000000  0.0000000  3
   3911   3909   3912   3913     1  0.0000000  0.6508444  3
   3911   3909   3912   3914     1  0.0000000  0.6508444  3
   3911   3909   3906   3915     1  0.0000000  0.6508444  3
   3920   3923   3926   3927     1  0.0000000  0.6508444  3
   3920   3923   3926   3928     1  0.0000000  0.6508444  3
   3921   3920   3923   3926     1  0.0000000  0.6508444  3
   3921   3920   3923   3924     1  0.0000000  0.6508444  3
   3921   3920   3923   3925     1  0.0000000  0.6508444  3
   3921   3920   3929   3930     1  0.0000000  0.6508444  3
   3921   3920   3929   3931     1  0.0000000  0.6508444  3
   3921   3920   3929   3933     1  0.0000000  0.6508444  3
   3922   3920   3923   3926     1  0.0000000  0.6508444  3
   3922   3920   3923   3924     1  0.0000000  0.6508444  3
   3922   3920   3923   3925     1  0.0000000  0.6508444  3
   3922   3920   3929   3930     1  0.0000000  0.6508444  3
   3922   3920   3929   3931     1  0.0000000  0.6508444  3
   3922   3920   3929   3933     1  0.0000000  0.6508444  3
   3923   3920   3929   3930     1  0.0000000  0.6508444  3
   3923   3920   3929   3931     1  0.0000000  0.6508444  3
   3923   3920   3929   3933     1  0.0000000  0.6508444  3
   3924   3923   3920   3929     1  0.0000000  0.6508444  3
   3924   3923   3926   3932     1  0.0000000  1.0460000  1
   3924   3923   3926   3932     1  0.0000000  0.0000000  3
   3924   3923   3926   3927     1  0.0000000  0.6508444  3
   3924   3923   3926   3928     1  0.0000000  0.6508444  3
   3925   3923   3920   3929     1  0.0000000  0.6508444  3
   3925   3923   3926   3932     1  0.0000000  1.0460000  1
   3925   3923   3926   3932     1  0.0000000  0.0000000  3
   3925   3923   3926   3927     1  0.0000000  0.6508444  3
   3925   3923   3926   3928     1  0.0000000  0.6508444  3
   3934   3937   3940   3941     1  0.0000000  0.6508444  3
   3934   3937   3940   3942     1  0.0000000  0.6508444  3
   3935   3934   3937   3940     1  0.0000000  0.6508444  3
   3935   3934   3937   3938     1  0.0000000  0.6508444  3
   3935   3934   3937   3939     1  0.0000000  0.6508444  3
   3935   3934   3943   3944     1  0.0000000  0.6508444  3
   3935   3934   3943   3945     1  0.0000000  0.6508444  3
   3935   3934   3943   3947     1  0.0000000  0.6508444  3
   3936   3934   3937   3940     1  0.0000000  0.6508444  3
   3936   3934   3937   3938     1  0.0000000  0.6508444  3
   3936   3934   3937   3939     1  0.0000000  0.6508444  3
   3936   3934   3943   3944     1  0.0000000  0.6508444  3
   3936   3934   3943   3945     1  0.0000000  0.6508444  3
   3936   3934   3943   3947     1  0.0000000  0.6508444  3
   3937   3934   3943   3944     1  0.0000000  0.6508444  3
   3937   3934   3943   3945     1  0.0000000  0.6508444  3
   3937   3934   3943   3947     1  0.0000000  0.6508444  3
   3938   3937   3940   3946     1  0.0000000  1.0460000  1
   3938   3937   3940   3946     1  0.0000000  0.0000000  3
   3938   3937   3940   3941     1  0.0000000  0.6508444  3
   3938   3937   3940   3942     1  0.0000000  0.6508444  3
   3938   3937   3934   3943     1  0.0000000  0.6508444  3
   3939   3937   3940   3946     1  0.0000000  1.0460000  1
   3939   3937   3940   3946     1  0.0000000  0.0000000  3
   3939   3937   3940   3941     1  0.0000000  0.6508444  3
   3939   3937   3940   3942     1  0.0000000  0.6508444  3
   3939   3937   3934   3943     1  0.0000000  0.6508444  3
   3948   3951   3954   3955     1  0.0000000  0.6508444  3
   3948   3951   3954   3956     1  0.0000000  0.6508444  3
   3949   3948   3951   3954     1  0.0000000  0.6508444  3
   3949   3948   3951   3952     1  0.0000000  0.6508444  3
   3949   3948   3951   3953     1  0.0000000  0.6508444  3
   3949   3948   3957   3958     1  0.0000000  0.6508444  3
   3949   3948   3957   3959     1  0.0000000  0.6508444  3
   3949   3948   3957   3961     1  0.0000000  0.6508444  3
   3950   3948   3951   3954     1  0.0000000  0.6508444  3
   3950   3948   3951   3952     1  0.0000000  0.6508444  3
   3950   3948   3951   3953     1  0.0000000  0.6508444  3
   3950   3948   3957   3958     1  0.0000000  0.6508444  3
   3950   3948   3957   3959     1  0.0000000  0.6508444  3
   3950   3948   3957   3961     1  0.0000000  0.6508444  3
   3951   3948   3957   3958     1  0.0000000  0.6508444  3
   3951   3948   3957   3959     1  0.0000000  0.6508444  3
   3951   3948   3957   3961     1  0.0000000  0.6508444  3
   3952   3951   3948   3957     1  0.0000000  0.6508444  3
   3952   3951   3954   3960     1  0.0000000  1.0460000  1
   3952   3951   3954   3960     1  0.0000000  0.0000000  3
   3952   3951   3954   3955     1  0.0000000  0.6508444  3
   3952   3951   3954   3956     1  0.0000000  0.6508444  3
   3953   3951   3948   3957     1  0.0000000  0.6508444  3
   3953   3951   3954   3960     1  0.0000000  1.0460000  1
   3953   3951   3954   3960     1  0.0000000  0.0000000  3
   3953   3951   3954   3955     1  0.0000000  0.6508444  3
   3953   3951   3954   3956     1  0.0000000  0.6508444  3
   3962   3965   3968   3969     1  0.0000000  0.6508444  3
   3962   3965   3968   3970     1  0.0000000  0.6508444  3
   3963   3962   3965   3968     1  0.0000000  0.6508444  3
   3963   3962   3965   3966     1  0.0000000  0.6508444  3
   3963   3962   3965   3967     1  0.0000000  0.6508444  3
   3963   3962   3971   3972     1  0.0000000  0.6508444  3
   3963   3962   3971   3973     1  0.0000000  0.6508444  3
   3963   3962   3971   3975     1  0.0000000  0.6508444  3
   3964   3962   3965   3968     1  0.0000000  0.6508444  3
   3964   3962   3965   3966     1  0.0000000  0.6508444  3
   3964   3962   3965   3967     1  0.0000000  0.6508444  3
   3964   3962   3971   3972     1  0.0000000  0.6508444  3
   3964   3962   3971   3973     1  0.0000000  0.6508444  3
   3964   3962   3971   3975     1  0.0000000  0.6508444  3
   3965   3962   3971   3972     1  0.0000000  0.6508444  3
   3965   3962   3971   3973     1  0.0000000  0.6508444  3
   3965   3962   3971   3975     1  0.0000000  0.6508444  3
   3966   3965   3968   3974     1  0.0000000  1.0460000  1
   3966   3965   3968   3974     1  0.0000000  0.0000000  3
   3966   3965   3968   3969     1  0.0000000  0.6508444  3
   3966   3965   3968   3970     1  0.0000000  0.6508444  3
   3966   3965   3962   3971     1  0.0000000  0.6508444  3
   3967   3965   3968   3974     1  0.0000000  1.0460000  1
   3967   3965   3968   3974     1  0.0000000  0.0000000  3
   3967   3965   3968   3969     1  0.0000000  0.6508444  3
   3967   3965   3968   3970     1  0.0000000  0.6508444  3
   3967   3965   3962   3971     1  0.0000000  0.6508444  3
   3976   3979   3982   3983     1  0.0000000  0.6508444  3
   3976   3979   3982   3984     1  0.0000000  0.6508444  3
   3977   3976   3979   3982     1  0.0000000  0.6508444  3
   3977   3976   3979   3980     1  0.0000000  0.6508444  3
   3977   3976   3979   3981     1  0.0000000  0.6508444  3
   3977   3976   3985   3986     1  0.0000000  0.6508444  3
   3977   3976   3985   3987     1  0.0000000  0.6508444  3
   3977   3976   3985   3989     1  0.0000000  0.6508444  3
   3978   3976   3979   3982     1  0.0000000  0.6508444  3
   3978   3976   3979   3980     1  0.0000000  0.6508444  3
   3978   3976   3979   3981     1  0.0000000  0.6508444  3
   3978   3976   3985   3986     1  0.0000000  0.6508444  3
   3978   3976   3985   3987     1  0.0000000  0.6508444  3
   3978   3976   3985   3989     1  0.0000000  0.6508444  3
   3979   3976   3985   3986     1  0.0000000  0.6508444  3
   3979   3976   3985   3987     1  0.0000000  0.6508444  3
   3979   3976   3985   3989     1  0.0000000  0.6508444  3
   3980   3979   3976   3985     1  0.0000000  0.6508444  3
   3980   3979   3982   3988     1  0.0000000  1.0460000  1
   3980   3979   3982   3988     1  0.0000000  0.0000000  3
   3980   3979   3982   3983     1  0.0000000  0.6508444  3
   3980   3979   3982   3984     1  0.0000000  0.6508444  3
   3981   3979   3976   3985     1  0.0000000  0.6508444  3
   3981   3979   3982   3988     1  0.0000000  1.0460000  1
   3981   3979   3982   3988     1  0.0000000  0.0000000  3
   3981   3979   3982   3983     1  0.0000000  0.6508444  3
   3981   3979   3982   3984     1  0.0000000  0.6508444  3
   3990   3993   3996   3997     1  0.0000000  0.6508444  3
   3990   3993   3996   3998     1  0.0000000  0.6508444  3
   3991   3990   3993   3996     1  0.0000000  0.6508444  3
   3991   3990   3993   3994     1  0.0000000  0.6508444  3
   3991   3990   3993   3995     1  0.0000000  0.6508444  3
   3991   3990   3999   4000     1  0.0000000  0.6508444  3
   3991   3990   3999   4001     1  0.0000000  0.6508444  3
   3991   3990   3999   4003     1  0.0000000  0.6508444  3
   3992   3990   3993   3996     1  0.0000000  0.6508444  3
   3992   3990   3993   3994     1  0.0000000  0.6508444  3
   3992   3990   3993   3995     1  0.0000000  0.6508444  3
   3992   3990   3999   4000     1  0.0000000  0.6508444  3
   3992   3990   3999   4001     1  0.0000000  0.6508444  3
   3992   3990   3999   4003     1  0.0000000  0.6508444  3
   3993   3990   3999   4000     1  0.0000000  0.6508444  3
   3993   3990   3999   4001     1  0.0000000  0.6508444  3
   3993   3990   3999   4003     1  0.0000000  0.6508444  3
   3994   3993   3996   4002     1  0.0000000  1.0460000  1
   3994   3993   3996   4002     1  0.0000000  0.0000000  3
   3994   3993   3996   3997     1  0.0000000  0.6508444  3
   3994   3993   3996   3998     1  0.0000000  0.6508444  3
   3994   3993   3990   3999     1  0.0000000  0.6508444  3
   3995   3993   3996   4002     1  0.0000000  1.0460000  1
   3995   3993   3996   4002     1  0.0000000  0.0000000  3
   3995   3993   3996   3997     1  0.0000000  0.6508444  3
   3995   3993   3996   3998     1  0.0000000  0.6508444  3
   3995   3993   3990   3999     1  0.0000000  0.6508444  3
   4004   4007   4010   4011     1  0.0000000  0.6508444  3
   4004   4007   4010   4012     1  0.0000000  0.6508444  3
   4005   4004   4007   4010     1  0.0000000  0.6508444  3
   4005   4004   4007   4008     1  0.0000000  0.6508444  3
   4005   4004   4007   4009     1  0.0000000  0.6508444  3
   4005   4004   4013   4014     1  0.0000000  0.6508444  3
   4005   4004   4013   4015     1  0.0000000  0.6508444  3
   4005   4004   4013   4017     1  0.0000000  0.6508444  3
   4006   4004   4007   4010     1  0.0000000  0.6508444  3
   4006   4004   4007   4008     1  0.0000000  0.6508444  3
   4006   4004   4007   4009     1  0.0000000  0.6508444  3
   4006   4004   4013   4014     1  0.0000000  0.6508444  3
   4006   4004   4013   4015     1  0.0000000  0.6508444  3
   4006   4004   4013   4017     1  0.0000000  0.6508444  3
   4007   4004   4013   4014     1  0.0000000  0.6508444  3
   4007   4004   4013   4015     1  0.0000000  0.6508444  3
   4007   4004   4013   4017     1  0.0000000  0.6508444  3
   4008   4007   4004   4013     1  0.0000000  0.6508444  3
   4008   4007   4010   4016     1  0.0000000  1.0460000  1
   4008   4007   4010   4016     1  0.0000000  0.0000000  3
   4008   4007   4010   4011     1  0.0000000  0.6508444  3
   4008   4007   4010   4012     1  0.0000000  0.6508444  3
   4009   4007   4004   4013     1  0.0000000  0.6508444  3
   4009   4007   4010   4016     1  0.0000000  1.0460000  1
   4009   4007   4010   4016     1  0.0000000  0.0000000  3
   4009   4007   4010   4011     1  0.0000000  0.6508444  3
   4009   4007   4010   4012     1  0.0000000  0.6508444  3
   4018   4021   4024   4025     1  0.0000000  0.6508444  3
   4018   4021   4024   4026     1  0.0000000  0.6508444  3
   4019   4018   4021   4024     1  0.0000000  0.6508444  3
   4019   4018   4021   4022     1  0.0000000  0.6508444  3
   4019   4018   4021   4023     1  0.0000000  0.6508444  3
   4019   4018   4027   4028     1  0.0000000  0.6508444  3
   4019   4018   4027   4029     1  0.0000000  0.6508444  3
   4019   4018   4027   4031     1  0.0000000  0.6508444  3
   4020   4018   4021   4024     1  0.0000000  0.6508444  3
   4020   4018   4021   4022     1  0.0000000  0.6508444  3
   4020   4018   4021   4023     1  0.0000000  0.6508444  3
   4020   4018   4027   4028     1  0.0000000  0.6508444  3
   4020   4018   4027   4029     1  0.0000000  0.6508444  3
   4020   4018   4027   4031     1  0.0000000  0.6508444  3
   4021   4018   4027   4028     1  0.0000000  0.6508444  3
   4021   4018   4027   4029     1  0.0000000  0.6508444  3
   4021   4018   4027   4031     1  0.0000000  0.6508444  3
   4022   4021   4024   4030     1  0.0000000  1.0460000  1
   4022   4021   4024   4030     1  0.0000000  0.0000000  3
   4022   4021   4024   4025     1  0.0000000  0.6508444  3
   4022   4021   4024   4026     1  0.0000000  0.6508444  3
   4022   4021   4018   4027     1  0.0000000  0.6508444  3
   4023   4021   4024   4030     1  0.0000000  1.0460000  1
   4023   4021   4024   4030     1  0.0000000  0.0000000  3
   4023   4021   4024   4025     1  0.0000000  0.6508444  3
   4023   4021   4024   4026     1  0.0000000  0.6508444  3
   4023   4021   4018   4027     1  0.0000000  0.6508444  3
   4032   4035   4038   4039     1  0.0000000  0.6508444  3
   4032   4035   4038   4040     1  0.0000000  0.6508444  3
   4033   4032   4035   4038     1  0.0000000  0.6508444  3
   4033   4032   4035   4036     1  0.0000000  0.6508444  3
   4033   4032   4035   4037     1  0.0000000  0.6508444  3
   4033   4032   4041   4042     1  0.0000000  0.6508444  3
   4033   4032   4041   4043     1  0.0000000  0.6508444  3
   4033   4032   4041   4045     1  0.0000000  0.6508444  3
   4034   4032   4035   4038     1  0.0000000  0.6508444  3
   4034   4032   4035   4036     1  0.0000000  0.6508444  3
   4034   4032   4035   4037     1  0.0000000  0.6508444  3
   4034   4032   4041   4042     1  0.0000000  0.6508444  3
   4034   4032   4041   4043     1  0.0000000  0.6508444  3
   4034   4032   4041   4045     1  0.0000000  0.6508444  3
   4035   4032   4041   4042     1  0.0000000  0.6508444  3
   4035   4032   4041   4043     1  0.0000000  0.6508444  3
   4035   4032   4041   4045     1  0.0000000  0.6508444  3
   4036   4035   4032   4041     1  0.0000000  0.6508444  3
   4036   4035   4038   4044     1  0.0000000  1.0460000  1
   4036   4035   4038   4044     1  0.0000000  0.0000000  3
   4036   4035   4038   4039     1  0.0000000  0.6508444  3
   4036   4035   4038   4040     1  0.0000000  0.6508444  3
   4037   4035   4032   4041     1  0.0000000  0.6508444  3
   4037   4035   4038   4044     1  0.0000000  1.0460000  1
   4037   4035   4038   4044     1  0.0000000  0.0000000  3
   4037   4035   4038   4039     1  0.0000000  0.6508444  3
   4037   4035   4038   4040     1  0.0000000  0.6508444  3
   4046   4049   4052   4053     1  0.0000000  0.6508444  3
   4046   4049   4052   4054     1  0.0000000  0.6508444  3
   4047   4046   4049   4052     1  0.0000000  0.6508444  3
   4047   4046   4049   4050     1  0.0000000  0.6508444  3
   4047   4046   4049   4051     1  0.0000000  0.6508444  3
   4047   4046   4055   4056     1  0.0000000  0.6508444  3
   4047   4046   4055   4057     1  0.0000000  0.6508444  3
   4047   4046   4055   4059     1  0.0000000  0.6508444  3
   4048   4046   4049   4052     1  0.0000000  0.6508444  3
   4048   4046   4049   4050     1  0.0000000  0.6508444  3
   4048   4046   4049   4051     1  0.0000000  0.6508444  3
   4048   4046   4055   4056     1  0.0000000  0.6508444  3
   4048   4046   4055   4057     1  0.0000000  0.6508444  3
   4048   4046   4055   4059     1  0.0000000  0.6508444  3
   4049   4046   4055   4056     1  0.0000000  0.6508444  3
   4049   4046   4055   4057     1  0.0000000  0.6508444  3
   4049   4046   4055   4059     1  0.0000000  0.6508444  3
   4050   4049   4052   4058     1  0.0000000  1.0460000  1
   4050   4049   4052   4058     1  0.0000000  0.0000000  3
   4050   4049   4052   4053     1  0.0000000  0.6508444  3
   4050   4049   4052   4054     1  0.0000000  0.6508444  3
   4050   4049   4046   4055     1  0.0000000  0.6508444  3
   4051   4049   4052   4058     1  0.0000000  1.0460000  1
   4051   4049   4052   4058     1  0.0000000  0.0000000  3
   4051   4049   4052   4053     1  0.0000000  0.6508444  3
   4051   4049   4052   4054     1  0.0000000  0.6508444  3
   4051   4049   4046   4055     1  0.0000000  0.6508444  3
   4060   4063   4066   4067     1  0.0000000  0.6508444  3
   4060   4063   4066   4068     1  0.0000000  0.6508444  3
   4061   4060   4063   4066     1  0.0000000  0.6508444  3
   4061   4060   4063   4064     1  0.0000000  0.6508444  3
   4061   4060   4063   4065     1  0.0000000  0.6508444  3
   4061   4060   4069   4070     1  0.0000000  0.6508444  3
   4061   4060   4069   4071     1  0.0000000  0.6508444  3
   4061   4060   4069   4073     1  0.0000000  0.6508444  3
   4062   4060   4063   4066     1  0.0000000  0.6508444  3
   4062   4060   4063   4064     1  0.0000000  0.6508444  3
   4062   4060   4063   4065     1  0.0000000  0.6508444  3
   4062   4060   4069   4070     1  0.0000000  0.6508444  3
   4062   4060   4069   4071     1  0.0000000  0.6508444  3
   4062   4060   4069   4073     1  0.0000000  0.6508444  3
   4063   4060   4069   4070     1  0.0000000  0.6508444  3
   4063   4060   4069   4071     1  0.0000000  0.6508444  3
   4063   4060   4069   4073     1  0.0000000  0.6508444  3
   4064   4063   4060   4069     1  0.0000000  0.6508444  3
   4064   4063   4066   4072     1  0.0000000  1.0460000  1
   4064   4063   4066   4072     1  0.0000000  0.0000000  3
   4064   4063   4066   4067     1  0.0000000  0.6508444  3
   4064   4063   4066   4068     1  0.0000000  0.6508444  3
   4065   4063   4060   4069     1  0.0000000  0.6508444  3
   4065   4063   4066   4072     1  0.0000000  1.0460000  1
   4065   4063   4066   4072     1  0.0000000  0.0000000  3
   4065   4063   4066   4067     1  0.0000000  0.6508444  3
   4065   4063   4066   4068     1  0.0000000  0.6508444  3
   4074   4077   4080   4081     1  0.0000000  0.6508444  3
   4074   4077   4080   4082     1  0.0000000  0.6508444  3
   4075   4074   4077   4080     1  0.0000000  0.6508444  3
   4075   4074   4077   4078     1  0.0000000  0.6508444  3
   4075   4074   4077   4079     1  0.0000000  0.6508444  3
   4075   4074   4083   4084     1  0.0000000  0.6508444  3
   4075   4074   4083   4085     1  0.0000000  0.6508444  3
   4075   4074   4083   4087     1  0.0000000  0.6508444  3
   4076   4074   4077   4080     1  0.0000000  0.6508444  3
   4076   4074   4077   4078     1  0.0000000  0.6508444  3
   4076   4074   4077   4079     1  0.0000000  0.6508444  3
   4076   4074   4083   4084     1  0.0000000  0.6508444  3
   4076   4074   4083   4085     1  0.0000000  0.6508444  3
   4076   4074   4083   4087     1  0.0000000  0.6508444  3
   4077   4074   4083   4084     1  0.0000000  0.6508444  3
   4077   4074   4083   4085     1  0.0000000  0.6508444  3
   4077   4074   4083   4087     1  0.0000000  0.6508444  3
   4078   4077   4080   4086     1  0.0000000  1.0460000  1
   4078   4077   4080   4086     1  0.0000000  0.0000000  3
   4078   4077   4080   4081     1  0.0000000  0.6508444  3
   4078   4077   4080   4082     1  0.0000000  0.6508444  3
   4078   4077   4074   4083     1  0.0000000  0.6508444  3
   4079   4077   4080   4086     1  0.0000000  1.0460000  1
   4079   4077   4080   4086     1  0.0000000  0.0000000  3
   4079   4077   4080   4081     1  0.0000000  0.6508444  3
   4079   4077   4080   4082     1  0.0000000  0.6508444  3
   4079   4077   4074   4083     1  0.0000000  0.6508444  3
   4088   4091   4094   4095     1  0.0000000  0.6508444  3
   4088   4091   4094   4096     1  0.0000000  0.6508444  3
   4089   4088   4091   4094     1  0.0000000  0.6508444  3
   4089   4088   4091   4092     1  0.0000000  0.6508444  3
   4089   4088   4091   4093     1  0.0000000  0.6508444  3
   4089   4088   4097   4098     1  0.0000000  0.6508444  3
   4089   4088   4097   4099     1  0.0000000  0.6508444  3
   4089   4088   4097   4101     1  0.0000000  0.6508444  3
   4090   4088   4091   4094     1  0.0000000  0.6508444  3
   4090   4088   4091   4092     1  0.0000000  0.6508444  3
   4090   4088   4091   4093     1  0.0000000  0.6508444  3
   4090   4088   4097   4098     1  0.0000000  0.6508444  3
   4090   4088   4097   4099     1  0.0000000  0.6508444  3
   4090   4088   4097   4101     1  0.0000000  0.6508444  3
   4091   4088   4097   4098     1  0.0000000  0.6508444  3
   4091   4088   4097   4099     1  0.0000000  0.6508444  3
   4091   4088   4097   4101     1  0.0000000  0.6508444  3
   4092   4091   4088   4097     1  0.0000000  0.6508444  3
   4092   4091   4094   4100     1  0.0000000  1.0460000  1
   4092   4091   4094   4100     1  0.0000000  0.0000000  3
   4092   4091   4094   4095     1  0.0000000  0.6508444  3
   4092   4091   4094   4096     1  0.0000000  0.6508444  3
   4093   4091   4088   4097     1  0.0000000  0.6508444  3
   4093   4091   4094   4100     1  0.0000000  1.0460000  1
   4093   4091   4094   4100     1  0.0000000  0.0000000  3
   4093   4091   4094   4095     1  0.0000000  0.6508444  3
   4093   4091   4094   4096     1  0.0000000  0.6508444  3
   4102   4105   4108   4109     1  0.0000000  0.6508444  3
   4102   4105   4108   4110     1  0.0000000  0.6508444  3
   4103   4102   4105   4108     1  0.0000000  0.6508444  3
   4103   4102   4105   4106     1  0.0000000  0.6508444  3
   4103   4102   4105   4107     1  0.0000000  0.6508444  3
   4103   4102   4111   4112     1  0.0000000  0.6508444  3
   4103   4102   4111   4113     1  0.0000000  0.6508444  3
   4103   4102   4111   4115     1  0.0000000  0.6508444  3
   4104   4102   4105   4108     1  0.0000000  0.6508444  3
   4104   4102   4105   4106     1  0.0000000  0.6508444  3
   4104   4102   4105   4107     1  0.0000000  0.6508444  3
   4104   4102   4111   4112     1  0.0000000  0.6508444  3
   4104   4102   4111   4113     1  0.0000000  0.6508444  3
   4104   4102   4111   4115     1  0.0000000  0.6508444  3
   4105   4102   4111   4112     1  0.0000000  0.6508444  3
   4105   4102   4111   4113     1  0.0000000  0.6508444  3
   4105   4102   4111   4115     1  0.0000000  0.6508444  3
   4106   4105   4108   4114     1  0.0000000  1.0460000  1
   4106   4105   4108   4114     1  0.0000000  0.0000000  3
   4106   4105   4108   4109     1  0.0000000  0.6508444  3
   4106   4105   4108   4110     1  0.0000000  0.6508444  3
   4106   4105   4102   4111     1  0.0000000  0.6508444  3
   4107   4105   4108   4114     1  0.0000000  1.0460000  1
   4107   4105   4108   4114     1  0.0000000  0.0000000  3
   4107   4105   4108   4109     1  0.0000000  0.6508444  3
   4107   4105   4108   4110     1  0.0000000  0.6508444  3
   4107   4105   4102   4111     1  0.0000000  0.6508444  3
   4116   4119   4122   4123     1  0.0000000  0.6508444  3
   4116   4119   4122   4124     1  0.0000000  0.6508444  3
   4117   4116   4119   4122     1  0.0000000  0.6508444  3
   4117   4116   4119   4120     1  0.0000000  0.6508444  3
   4117   4116   4119   4121     1  0.0000000  0.6508444  3
   4117   4116   4125   4126     1  0.0000000  0.6508444  3
   4117   4116   4125   4127     1  0.0000000  0.6508444  3
   4117   4116   4125   4129     1  0.0000000  0.6508444  3
   4118   4116   4119   4122     1  0.0000000  0.6508444  3
   4118   4116   4119   4120     1  0.0000000  0.6508444  3
   4118   4116   4119   4121     1  0.0000000  0.6508444  3
   4118   4116   4125   4126     1  0.0000000  0.6508444  3
   4118   4116   4125   4127     1  0.0000000  0.6508444  3
   4118   4116   4125   4129     1  0.0000000  0.6508444  3
   4119   4116   4125   4126     1  0.0000000  0.6508444  3
   4119   4116   4125   4127     1  0.0000000  0.6508444  3
   4119   4116   4125   4129     1  0.0000000  0.6508444  3
   4120   4119   4116   4125     1  0.0000000  0.6508444  3
   4120   4119   4122   4128     1  0.0000000  1.0460000  1
   4120   4119   4122   4128     1  0.0000000  0.0000000  3
   4120   4119   4122   4123     1  0.0000000  0.6508444  3
   4120   4119   4122   4124     1  0.0000000  0.6508444  3
   4121   4119   4116   4125     1  0.0000000  0.6508444  3
   4121   4119   4122   4128     1  0.0000000  1.0460000  1
   4121   4119   4122   4128     1  0.0000000  0.0000000  3
   4121   4119   4122   4123     1  0.0000000  0.6508444  3
   4121   4119   4122   4124     1  0.0000000  0.6508444  3
   4130   4133   4136   4137     1  0.0000000  0.6508444  3
   4130   4133   4136   4138     1  0.0000000  0.6508444  3
   4131   4130   4133   4136     1  0.0000000  0.6508444  3
   4131   4130   4133   4134     1  0.0000000  0.6508444  3
   4131   4130   4133   4135     1  0.0000000  0.6508444  3
   4131   4130   4139   4140     1  0.0000000  0.6508444  3
   4131   4130   4139   4141     1  0.0000000  0.6508444  3
   4131   4130   4139   4143     1  0.0000000  0.6508444  3
   4132   4130   4133   4136     1  0.0000000  0.6508444  3
   4132   4130   4133   4134     1  0.0000000  0.6508444  3
   4132   4130   4133   4135     1  0.0000000  0.6508444  3
   4132   4130   4139   4140     1  0.0000000  0.6508444  3
   4132   4130   4139   4141     1  0.0000000  0.6508444  3
   4132   4130   4139   4143     1  0.0000000  0.6508444  3
   4133   4130   4139   4140     1  0.0000000  0.6508444  3
   4133   4130   4139   4141     1  0.0000000  0.6508444  3
   4133   4130   4139   4143     1  0.0000000  0.6508444  3
   4134   4133   4136   4142     1  0.0000000  1.0460000  1
   4134   4133   4136   4142     1  0.0000000  0.0000000  3
   4134   4133   4136   4137     1  0.0000000  0.6508444  3
   4134   4133   4136   4138     1  0.0000000  0.6508444  3
   4134   4133   4130   4139     1  0.0000000  0.6508444  3
   4135   4133   4136   4142     1  0.0000000  1.0460000  1
   4135   4133   4136   4142     1  0.0000000  0.0000000  3
   4135   4133   4136   4137     1  0.0000000  0.6508444  3
   4135   4133   4136   4138     1  0.0000000  0.6508444  3
   4135   4133   4130   4139     1  0.0000000  0.6508444  3
   4144   4147   4150   4151     1  0.0000000  0.6508444  3
   4144   4147   4150   4152     1  0.0000000  0.6508444  3
   4145   4144   4147   4150     1  0.0000000  0.6508444  3
   4145   4144   4147   4148     1  0.0000000  0.6508444  3
   4145   4144   4147   4149     1  0.0000000  0.6508444  3
   4145   4144   4153   4154     1  0.0000000  0.6508444  3
   4145   4144   4153   4155     1  0.0000000  0.6508444  3
   4145   4144   4153   4157     1  0.0000000  0.6508444  3
   4146   4144   4147   4150     1  0.0000000  0.6508444  3
   4146   4144   4147   4148     1  0.0000000  0.6508444  3
   4146   4144   4147   4149     1  0.0000000  0.6508444  3
   4146   4144   4153   4154     1  0.0000000  0.6508444  3
   4146   4144   4153   4155     1  0.0000000  0.6508444  3
   4146   4144   4153   4157     1  0.0000000  0.6508444  3
   4147   4144   4153   4154     1  0.0000000  0.6508444  3
   4147   4144   4153   4155     1  0.0000000  0.6508444  3
   4147   4144   4153   4157     1  0.0000000  0.6508444  3
   4148   4147   4144   4153     1  0.0000000  0.6508444  3
   4148   4147   4150   4156     1  0.0000000  1.0460000  1
   4148   4147   4150   4156     1  0.0000000  0.0000000  3
   4148   4147   4150   4151     1  0.0000000  0.6508444  3
   4148   4147   4150   4152     1  0.0000000  0.6508444  3
   4149   4147   4144   4153     1  0.0000000  0.6508444  3
   4149   4147   4150   4156     1  0.0000000  1.0460000  1
   4149   4147   4150   4156     1  0.0000000  0.0000000  3
   4149   4147   4150   4151     1  0.0000000  0.6508444  3
   4149   4147   4150   4152     1  0.0000000  0.6508444  3
   4158   4161   4164   4165     1  0.0000000  0.6508444  3
   4158   4161   4164   4166     1  0.0000000  0.6508444  3
   4159   4158   4161   4164     1  0.0000000  0.6508444  3
   4159   4158   4161   4162     1  0.0000000  0.6508444  3
   4159   4158   4161   4163     1  0.0000000  0.6508444  3
   4159   4158   4167   4168     1  0.0000000  0.6508444  3
   4159   4158   4167   4169     1  0.0000000  0.6508444  3
   4159   4158   4167   4171     1  0.0000000  0.6508444  3
   4160   4158   4161   4164     1  0.0000000  0.6508444  3
   4160   4158   4161   4162     1  0.0000000  0.6508444  3
   4160   4158   4161   4163     1  0.0000000  0.6508444  3
   4160   4158   4167   4168     1  0.0000000  0.6508444  3
   4160   4158   4167   4169     1  0.0000000  0.6508444  3
   4160   4158   4167   4171     1  0.0000000  0.6508444  3
   4161   4158   4167   4168     1  0.0000000  0.6508444  3
   4161   4158   4167   4169     1  0.0000000  0.6508444  3
   4161   4158   4167   4171     1  0.0000000  0.6508444  3
   4162   4161   4164   4170     1  0.0000000  1.0460000  1
   4162   4161   4164   4170     1  0.0000000  0.0000000  3
   4162   4161   4164   4165     1  0.0000000  0.6508444  3
   4162   4161   4164   4166     1  0.0000000  0.6508444  3
   4162   4161   4158   4167     1  0.0000000  0.6508444  3
   4163   4161   4164   4170     1  0.0000000  1.0460000  1
   4163   4161   4164   4170     1  0.0000000  0.0000000  3
   4163   4161   4164   4165     1  0.0000000  0.6508444  3
   4163   4161   4164   4166     1  0.0000000  0.6508444  3
   4163   4161   4158   4167     1  0.0000000  0.6508444  3
   4172   4175   4178   4179     1  0.0000000  0.6508444  3
   4172   4175   4178   4180     1  0.0000000  0.6508444  3
   4173   4172   4175   4178     1  0.0000000  0.6508444  3
   4173   4172   4175   4176     1  0.0000000  0.6508444  3
   4173   4172   4175   4177     1  0.0000000  0.6508444  3
   4173   4172   4181   4182     1  0.0000000  0.6508444  3
   4173   4172   4181   4183     1  0.0000000  0.6508444  3
   4173   4172   4181   4185     1  0.0000000  0.6508444  3
   4174   4172   4175   4178     1  0.0000000  0.6508444  3
   4174   4172   4175   4176     1  0.0000000  0.6508444  3
   4174   4172   4175   4177     1  0.0000000  0.6508444  3
   4174   4172   4181   4182     1  0.0000000  0.6508444  3
   4174   4172   4181   4183     1  0.0000000  0.6508444  3
   4174   4172   4181   4185     1  0.0000000  0.6508444  3
   4175   4172   4181   4182     1  0.0000000  0.6508444  3
   4175   4172   4181   4183     1  0.0000000  0.6508444  3
   4175   4172   4181   4185     1  0.0000000  0.6508444  3
   4176   4175   4172   4181     1  0.0000000  0.6508444  3
   4176   4175   4178   4184     1  0.0000000  1.0460000  1
   4176   4175   4178   4184     1  0.0000000  0.0000000  3
   4176   4175   4178   4179     1  0.0000000  0.6508444  3
   4176   4175   4178   4180     1  0.0000000  0.6508444  3
   4177   4175   4172   4181     1  0.0000000  0.6508444  3
   4177   4175   4178   4184     1  0.0000000  1.0460000  1
   4177   4175   4178   4184     1  0.0000000  0.0000000  3
   4177   4175   4178   4179     1  0.0000000  0.6508444  3
   4177   4175   4178   4180     1  0.0000000  0.6508444  3
   4186   4189   4192   4193     1  0.0000000  0.6508444  3
   4186   4189   4192   4194     1  0.0000000  0.6508444  3
   4187   4186   4189   4192     1  0.0000000  0.6508444  3
   4187   4186   4189   4190     1  0.0000000  0.6508444  3
   4187   4186   4189   4191     1  0.0000000  0.6508444  3
   4187   4186   4195   4196     1  0.0000000  0.6508444  3
   4187   4186   4195   4197     1  0.0000000  0.6508444  3
   4187   4186   4195   4199     1  0.0000000  0.6508444  3
   4188   4186   4189   4192     1  0.0000000  0.6508444  3
   4188   4186   4189   4190     1  0.0000000  0.6508444  3
   4188   4186   4189   4191     1  0.0000000  0.6508444  3
   4188   4186   4195   4196     1  0.0000000  0.6508444  3
   4188   4186   4195   4197     1  0.0000000  0.6508444  3
   4188   4186   4195   4199     1  0.0000000  0.6508444  3
   4189   4186   4195   4196     1  0.0000000  0.6508444  3
   4189   4186   4195   4197     1  0.0000000  0.6508444  3
   4189   4186   4195   4199     1  0.0000000  0.6508444  3
   4190   4189   4192   4198     1  0.0000000  1.0460000  1
   4190   4189   4192   4198     1  0.0000000  0.0000000  3
   4190   4189   4192   4193     1  0.0000000  0.6508444  3
   4190   4189   4192   4194     1  0.0000000  0.6508444  3
   4190   4189   4186   4195     1  0.0000000  0.6508444  3
   4191   4189   4192   4198     1  0.0000000  1.0460000  1
   4191   4189   4192   4198     1  0.0000000  0.0000000  3
   4191   4189   4192   4193     1  0.0000000  0.6508444  3
   4191   4189   4192   4194     1  0.0000000  0.6508444  3
   4191   4189   4186   4195     1  0.0000000  0.6508444  3
   4200   4203   4206   4207     1  0.0000000  0.6508444  3
   4200   4203   4206   4208     1  0.0000000  0.6508444  3
   4201   4200   4203   4206     1  0.0000000  0.6508444  3
   4201   4200   4203   4204     1  0.0000000  0.6508444  3
   4201   4200   4203   4205     1  0.0000000  0.6508444  3
   4201   4200   4209   4210     1  0.0000000  0.6508444  3
   4201   4200   4209   4211     1  0.0000000  0.6508444  3
   4201   4200   4209   4213     1  0.0000000  0.6508444  3
   4202   4200   4203   4206     1  0.0000000  0.6508444  3
   4202   4200   4203   4204     1  0.0000000  0.6508444  3
   4202   4200   4203   4205     1  0.0000000  0.6508444  3
   4202   4200   4209   4210     1  0.0000000  0.6508444  3
   4202   4200   4209   4211     1  0.0000000  0.6508444  3
   4202   4200   4209   4213     1  0.0000000  0.6508444  3
   4203   4200   4209   4210     1  0.0000000  0.6508444  3
   4203   4200   4209   4211     1  0.0000000  0.6508444  3
   4203   4200   4209   4213     1  0.0000000  0.6508444  3
   4204   4203   4200   4209     1  0.0000000  0.6508444  3
   4204   4203   4206   4212     1  0.0000000  1.0460000  1
   4204   4203   4206   4212     1  0.0000000  0.0000000  3
   4204   4203   4206   4207     1  0.0000000  0.6508444  3
   4204   4203   4206   4208     1  0.0000000  0.6508444  3
   4205   4203   4200   4209     1  0.0000000  0.6508444  3
   4205   4203   4206   4212     1  0.0000000  1.0460000  1
   4205   4203   4206   4212     1  0.0000000  0.0000000  3
   4205   4203   4206   4207     1  0.0000000  0.6508444  3
   4205   4203   4206   4208     1  0.0000000  0.6508444  3
   4214   4217   4220   4221     1  0.0000000  0.6508444  3
   4214   4217   4220   4222     1  0.0000000  0.6508444  3
   4215   4214   4217   4220     1  0.0000000  0.6508444  3
   4215   4214   4217   4218     1  0.0000000  0.6508444  3
   4215   4214   4217   4219     1  0.0000000  0.6508444  3
   4215   4214   4223   4224     1  0.0000000  0.6508444  3
   4215   4214   4223   4225     1  0.0000000  0.6508444  3
   4215   4214   4223   4227     1  0.0000000  0.6508444  3
   4216   4214   4217   4220     1  0.0000000  0.6508444  3
   4216   4214   4217   4218     1  0.0000000  0.6508444  3
   4216   4214   4217   4219     1  0.0000000  0.6508444  3
   4216   4214   4223   4224     1  0.0000000  0.6508444  3
   4216   4214   4223   4225     1  0.0000000  0.6508444  3
   4216   4214   4223   4227     1  0.0000000  0.6508444  3
   4217   4214   4223   4224     1  0.0000000  0.6508444  3
   4217   4214   4223   4225     1  0.0000000  0.6508444  3
   4217   4214   4223   4227     1  0.0000000  0.6508444  3
   4218   4217   4220   4226     1  0.0000000  1.0460000  1
   4218   4217   4220   4226     1  0.0000000  0.0000000  3
   4218   4217   4220   4221     1  0.0000000  0.6508444  3
   4218   4217   4220   4222     1  0.0000000  0.6508444  3
   4218   4217   4214   4223     1  0.0000000  0.6508444  3
   4219   4217   4220   4226     1  0.0000000  1.0460000  1
   4219   4217   4220   4226     1  0.0000000  0.0000000  3
   4219   4217   4220   4221     1  0.0000000  0.6508444  3
   4219   4217   4220   4222     1  0.0000000  0.6508444  3
   4219   4217   4214   4223     1  0.0000000  0.6508444  3
   4228   4231   4234   4235     1  0.0000000  0.6508444  3
   4228   4231   4234   4236     1  0.0000000  0.6508444  3
   4229   4228   4231   4234     1  0.0000000  0.6508444  3
   4229   4228   4231   4232     1  0.0000000  0.6508444  3
   4229   4228   4231   4233     1  0.0000000  0.6508444  3
   4229   4228   4237   4238     1  0.0000000  0.6508444  3
   4229   4228   4237   4239     1  0.0000000  0.6508444  3
   4229   4228   4237   4241     1  0.0000000  0.6508444  3
   4230   4228   4231   4234     1  0.0000000  0.6508444  3
   4230   4228   4231   4232     1  0.0000000  0.6508444  3
   4230   4228   4231   4233     1  0.0000000  0.6508444  3
   4230   4228   4237   4238     1  0.0000000  0.6508444  3
   4230   4228   4237   4239     1  0.0000000  0.6508444  3
   4230   4228   4237   4241     1  0.0000000  0.6508444  3
   4231   4228   4237   4238     1  0.0000000  0.6508444  3
   4231   4228   4237   4239     1  0.0000000  0.6508444  3
   4231   4228   4237   4241     1  0.0000000  0.6508444  3
   4232   4231   4228   4237     1  0.0000000  0.6508444  3
   4232   4231   4234   4240     1  0.0000000  1.0460000  1
   4232   4231   4234   4240     1  0.0000000  0.0000000  3
   4232   4231   4234   4235     1  0.0000000  0.6508444  3
   4232   4231   4234   4236     1  0.0000000  0.6508444  3
   4233   4231   4228   4237     1  0.0000000  0.6508444  3
   4233   4231   4234   4240     1  0.0000000  1.0460000  1
   4233   4231   4234   4240     1  0.0000000  0.0000000  3
   4233   4231   4234   4235     1  0.0000000  0.6508444  3
   4233   4231   4234   4236     1  0.0000000  0.6508444  3
   4242   4245   4248   4249     1  0.0000000  0.6508444  3
   4242   4245   4248   4250     1  0.0000000  0.6508444  3
   4243   4242   4245   4248     1  0.0000000  0.6508444  3
   4243   4242   4245   4246     1  0.0000000  0.6508444  3
   4243   4242   4245   4247     1  0.0000000  0.6508444  3
   4243   4242   4251   4252     1  0.0000000  0.6508444  3
   4243   4242   4251   4253     1  0.0000000  0.6508444  3
   4243   4242   4251   4255     1  0.0000000  0.6508444  3
   4244   4242   4245   4248     1  0.0000000  0.6508444  3
   4244   4242   4245   4246     1  0.0000000  0.6508444  3
   4244   4242   4245   4247     1  0.0000000  0.6508444  3
   4244   4242   4251   4252     1  0.0000000  0.6508444  3
   4244   4242   4251   4253     1  0.0000000  0.6508444  3
   4244   4242   4251   4255     1  0.0000000  0.6508444  3
   4245   4242   4251   4252     1  0.0000000  0.6508444  3
   4245   4242   4251   4253     1  0.0000000  0.6508444  3
   4245   4242   4251   4255     1  0.0000000  0.6508444  3
   4246   4245   4248   4254     1  0.0000000  1.0460000  1
   4246   4245   4248   4254     1  0.0000000  0.0000000  3
   4246   4245   4248   4249     1  0.0000000  0.6508444  3
   4246   4245   4248   4250     1  0.0000000  0.6508444  3
   4246   4245   4242   4251     1  0.0000000  0.6508444  3
   4247   4245   4248   4254     1  0.0000000  1.0460000  1
   4247   4245   4248   4254     1  0.0000000  0.0000000  3
   4247   4245   4248   4249     1  0.0000000  0.6508444  3
   4247   4245   4248   4250     1  0.0000000  0.6508444  3
   4247   4245   4242   4251     1  0.0000000  0.6508444  3
   4256   4259   4262   4263     1  0.0000000  0.6508444  3
   4256   4259   4262   4264     1  0.0000000  0.6508444  3
   4257   4256   4259   4262     1  0.0000000  0.6508444  3
   4257   4256   4259   4260     1  0.0000000  0.6508444  3
   4257   4256   4259   4261     1  0.0000000  0.6508444  3
   4257   4256   4265   4266     1  0.0000000  0.6508444  3
   4257   4256   4265   4267     1  0.0000000  0.6508444  3
   4257   4256   4265   4269     1  0.0000000  0.6508444  3
   4258   4256   4259   4262     1  0.0000000  0.6508444  3
   4258   4256   4259   4260     1  0.0000000  0.6508444  3
   4258   4256   4259   4261     1  0.0000000  0.6508444  3
   4258   4256   4265   4266     1  0.0000000  0.6508444  3
   4258   4256   4265   4267     1  0.0000000  0.6508444  3
   4258   4256   4265   4269     1  0.0000000  0.6508444  3
   4259   4256   4265   4266     1  0.0000000  0.6508444  3
   4259   4256   4265   4267     1  0.0000000  0.6508444  3
   4259   4256   4265   4269     1  0.0000000  0.6508444  3
   4260   4259   4256   4265     1  0.0000000  0.6508444  3
   4260   4259   4262   4268     1  0.0000000  1.0460000  1
   4260   4259   4262   4268     1  0.0000000  0.0000000  3
   4260   4259   4262   4263     1  0.0000000  0.6508444  3
   4260   4259   4262   4264     1  0.0000000  0.6508444  3
   4261   4259   4256   4265     1  0.0000000  0.6508444  3
   4261   4259   4262   4268     1  0.0000000  1.0460000  1
   4261   4259   4262   4268     1  0.0000000  0.0000000  3
   4261   4259   4262   4263     1  0.0000000  0.6508444  3
   4261   4259   4262   4264     1  0.0000000  0.6508444  3
   4270   4273   4276   4277     1  0.0000000  0.6508444  3
   4270   4273   4276   4278     1  0.0000000  0.6508444  3
   4271   4270   4273   4276     1  0.0000000  0.6508444  3
   4271   4270   4273   4274     1  0.0000000  0.6508444  3
   4271   4270   4273   4275     1  0.0000000  0.6508444  3
   4271   4270   4279   4280     1  0.0000000  0.6508444  3
   4271   4270   4279   4281     1  0.0000000  0.6508444  3
   4271   4270   4279   4283     1  0.0000000  0.6508444  3
   4272   4270   4273   4276     1  0.0000000  0.6508444  3
   4272   4270   4273   4274     1  0.0000000  0.6508444  3
   4272   4270   4273   4275     1  0.0000000  0.6508444  3
   4272   4270   4279   4280     1  0.0000000  0.6508444  3
   4272   4270   4279   4281     1  0.0000000  0.6508444  3
   4272   4270   4279   4283     1  0.0000000  0.6508444  3
   4273   4270   4279   4280     1  0.0000000  0.6508444  3
   4273   4270   4279   4281     1  0.0000000  0.6508444  3
   4273   4270   4279   4283     1  0.0000000  0.6508444  3
   4274   4273   4276   4282     1  0.0000000  1.0460000  1
   4274   4273   4276   4282     1  0.0000000  0.0000000  3
   4274   4273   4276   4277     1  0.0000000  0.6508444  3
   4274   4273   4276   4278     1  0.0000000  0.6508444  3
   4274   4273   4270   4279     1  0.0000000  0.6508444  3
   4275   4273   4276   4282     1  0.0000000  1.0460000  1
   4275   4273   4276   4282     1  0.0000000  0.0000000  3
   4275   4273   4276   4277     1  0.0000000  0.6508444  3
   4275   4273   4276   4278     1  0.0000000  0.6508444  3
   4275   4273   4270   4279     1  0.0000000  0.6508444  3
   4284   4287   4290   4291     1  0.0000000  0.6508444  3
   4284   4287   4290   4292     1  0.0000000  0.6508444  3
   4285   4284   4287   4290     1  0.0000000  0.6508444  3
   4285   4284   4287   4288     1  0.0000000  0.6508444  3
   4285   4284   4287   4289     1  0.0000000  0.6508444  3
   4285   4284   4293   4294     1  0.0000000  0.6508444  3
   4285   4284   4293   4295     1  0.0000000  0.6508444  3
   4285   4284   4293   4297     1  0.0000000  0.6508444  3
   4286   4284   4287   4290     1  0.0000000  0.6508444  3
   4286   4284   4287   4288     1  0.0000000  0.6508444  3
   4286   4284   4287   4289     1  0.0000000  0.6508444  3
   4286   4284   4293   4294     1  0.0000000  0.6508444  3
   4286   4284   4293   4295     1  0.0000000  0.6508444  3
   4286   4284   4293   4297     1  0.0000000  0.6508444  3
   4287   4284   4293   4294     1  0.0000000  0.6508444  3
   4287   4284   4293   4295     1  0.0000000  0.6508444  3
   4287   4284   4293   4297     1  0.0000000  0.6508444  3
   4288   4287   4284   4293     1  0.0000000  0.6508444  3
   4288   4287   4290   4296     1  0.0000000  1.0460000  1
   4288   4287   4290   4296     1  0.0000000  0.0000000  3
   4288   4287   4290   4291     1  0.0000000  0.6508444  3
   4288   4287   4290   4292     1  0.0000000  0.6508444  3
   4289   4287   4284   4293     1  0.0000000  0.6508444  3
   4289   4287   4290   4296     1  0.0000000  1.0460000  1
   4289   4287   4290   4296     1  0.0000000  0.0000000  3
   4289   4287   4290   4291     1  0.0000000  0.6508444  3
   4289   4287   4290   4292     1  0.0000000  0.6508444  3
   4298   4301   4304   4305     1  0.0000000  0.6508444  3
   4298   4301   4304   4306     1  0.0000000  0.6508444  3
   4299   4298   4301   4304     1  0.0000000  0.6508444  3
   4299   4298   4301   4302     1  0.0000000  0.6508444  3
   4299   4298   4301   4303     1  0.0000000  0.6508444  3
   4299   4298   4307   4308     1  0.0000000  0.6508444  3
   4299   4298   4307   4309     1  0.0000000  0.6508444  3
   4299   4298   4307   4311     1  0.0000000  0.6508444  3
   4300   4298   4301   4304     1  0.0000000  0.6508444  3
   4300   4298   4301   4302     1  0.0000000  0.6508444  3
   4300   4298   4301   4303     1  0.0000000  0.6508444  3
   4300   4298   4307   4308     1  0.0000000  0.6508444  3
   4300   4298   4307   4309     1  0.0000000  0.6508444  3
   4300   4298   4307   4311     1  0.0000000  0.6508444  3
   4301   4298   4307   4308     1  0.0000000  0.6508444  3
   4301   4298   4307   4309     1  0.0000000  0.6508444  3
   4301   4298   4307   4311     1  0.0000000  0.6508444  3
   4302   4301   4304   4310     1  0.0000000  1.0460000  1
   4302   4301   4304   4310     1  0.0000000  0.0000000  3
   4302   4301   4304   4305     1  0.0000000  0.6508444  3
   4302   4301   4304   4306     1  0.0000000  0.6508444  3
   4302   4301   4298   4307     1  0.0000000  0.6508444  3
   4303   4301   4304   4310     1  0.0000000  1.0460000  1
   4303   4301   4304   4310     1  0.0000000  0.0000000  3
   4303   4301   4304   4305     1  0.0000000  0.6508444  3
   4303   4301   4304   4306     1  0.0000000  0.6508444  3
   4303   4301   4298   4307     1  0.0000000  0.6508444  3
   4312   4315   4318   4319     1  0.0000000  0.6508444  3
   4312   4315   4318   4320     1  0.0000000  0.6508444  3
   4313   4312   4315   4318     1  0.0000000  0.6508444  3
   4313   4312   4315   4316     1  0.0000000  0.6508444  3
   4313   4312   4315   4317     1  0.0000000  0.6508444  3
   4313   4312   4321   4322     1  0.0000000  0.6508444  3
   4313   4312   4321   4323     1  0.0000000  0.6508444  3
   4313   4312   4321   4325     1  0.0000000  0.6508444  3
   4314   4312   4315   4318     1  0.0000000  0.6508444  3
   4314   4312   4315   4316     1  0.0000000  0.6508444  3
   4314   4312   4315   4317     1  0.0000000  0.6508444  3
   4314   4312   4321   4322     1  0.0000000  0.6508444  3
   4314   4312   4321   4323     1  0.0000000  0.6508444  3
   4314   4312   4321   4325     1  0.0000000  0.6508444  3
   4315   4312   4321   4322     1  0.0000000  0.6508444  3
   4315   4312   4321   4323     1  0.0000000  0.6508444  3
   4315   4312   4321   4325     1  0.0000000  0.6508444  3
   4316   4315   4312   4321     1  0.0000000  0.6508444  3
   4316   4315   4318   4324     1  0.0000000  1.0460000  1
   4316   4315   4318   4324     1  0.0000000  0.0000000  3
   4316   4315   4318   4319     1  0.0000000  0.6508444  3
   4316   4315   4318   4320     1  0.0000000  0.6508444  3
   4317   4315   4312   4321     1  0.0000000  0.6508444  3
   4317   4315   4318   4324     1  0.0000000  1.0460000  1
   4317   4315   4318   4324     1  0.0000000  0.0000000  3
   4317   4315   4318   4319     1  0.0000000  0.6508444  3
   4317   4315   4318   4320     1  0.0000000  0.6508444  3
   4326   4329   4332   4333     1  0.0000000  0.6508444  3
   4326   4329   4332   4334     1  0.0000000  0.6508444  3
   4327   4326   4329   4332     1  0.0000000  0.6508444  3
   4327   4326   4329   4330     1  0.0000000  0.6508444  3
   4327   4326   4329   4331     1  0.0000000  0.6508444  3
   4327   4326   4335   4336     1  0.0000000  0.6508444  3
   4327   4326   4335   4337     1  0.0000000  0.6508444  3
   4327   4326   4335   4339     1  0.0000000  0.6508444  3
   4328   4326   4329   4332     1  0.0000000  0.6508444  3
   4328   4326   4329   4330     1  0.0000000  0.6508444  3
   4328   4326   4329   4331     1  0.0000000  0.6508444  3
   4328   4326   4335   4336     1  0.0000000  0.6508444  3
   4328   4326   4335   4337     1  0.0000000  0.6508444  3
   4328   4326   4335   4339     1  0.0000000  0.6508444  3
   4329   4326   4335   4336     1  0.0000000  0.6508444  3
   4329   4326   4335   4337     1  0.0000000  0.6508444  3
   4329   4326   4335   4339     1  0.0000000  0.6508444  3
   4330   4329   4332   4338     1  0.0000000  1.0460000  1
   4330   4329   4332   4338     1  0.0000000  0.0000000  3
   4330   4329   4332   4333     1  0.0000000  0.6508444  3
   4330   4329   4332   4334     1  0.0000000  0.6508444  3
   4330   4329   4326   4335     1  0.0000000  0.6508444  3
   4331   4329   4332   4338     1  0.0000000  1.0460000  1
   4331   4329   4332   4338     1  0.0000000  0.0000000  3
   4331   4329   4332   4333     1  0.0000000  0.6508444  3
   4331   4329   4332   4334     1  0.0000000  0.6508444  3
   4331   4329   4326   4335     1  0.0000000  0.6508444  3
   4340   4343   4346   4347     1  0.0000000  0.6508444  3
   4340   4343   4346   4348     1  0.0000000  0.6508444  3
   4341   4340   4343   4346     1  0.0000000  0.6508444  3
   4341   4340   4343   4344     1  0.0000000  0.6508444  3
   4341   4340   4343   4345     1  0.0000000  0.6508444  3
   4341   4340   4349   4350     1  0.0000000  0.6508444  3
   4341   4340   4349   4351     1  0.0000000  0.6508444  3
   4341   4340   4349   4353     1  0.0000000  0.6508444  3
   4342   4340   4343   4346     1  0.0000000  0.6508444  3
   4342   4340   4343   4344     1  0.0000000  0.6508444  3
   4342   4340   4343   4345     1  0.0000000  0.6508444  3
   4342   4340   4349   4350     1  0.0000000  0.6508444  3
   4342   4340   4349   4351     1  0.0000000  0.6508444  3
   4342   4340   4349   4353     1  0.0000000  0.6508444  3
   4343   4340   4349   4350     1  0.0000000  0.6508444  3
   4343   4340   4349   4351     1  0.0000000  0.6508444  3
   4343   4340   4349   4353     1  0.0000000  0.6508444  3
   4344   4343   4340   4349     1  0.0000000  0.6508444  3
   4344   4343   4346   4352     1  0.0000000  1.0460000  1
   4344   4343   4346   4352     1  0.0000000  0.0000000  3
   4344   4343   4346   4347     1  0.0000000  0.6508444  3
   4344   4343   4346   4348     1  0.0000000  0.6508444  3
   4345   4343   4340   4349     1  0.0000000  0.6508444  3
   4345   4343   4346   4352     1  0.0000000  1.0460000  1
   4345   4343   4346   4352     1  0.0000000  0.0000000  3
   4345   4343   4346   4347     1  0.0000000  0.6508444  3
   4345   4343   4346   4348     1  0.0000000  0.6508444  3
   4354   4357   4360   4361     1  0.0000000  0.6508444  3
   4354   4357   4360   4362     1  0.0000000  0.6508444  3
   4355   4354   4357   4360     1  0.0000000  0.6508444  3
   4355   4354   4357   4358     1  0.0000000  0.6508444  3
   4355   4354   4357   4359     1  0.0000000  0.6508444  3
   4355   4354   4363   4364     1  0.0000000  0.6508444  3
   4355   4354   4363   4365     1  0.0000000  0.6508444  3
   4355   4354   4363   4367     1  0.0000000  0.6508444  3
   4356   4354   4357   4360     1  0.0000000  0.6508444  3
   4356   4354   4357   4358     1  0.0000000  0.6508444  3
   4356   4354   4357   4359     1  0.0000000  0.6508444  3
   4356   4354   4363   4364     1  0.0000000  0.6508444  3
   4356   4354   4363   4365     1  0.0000000  0.6508444  3
   4356   4354   4363   4367     1  0.0000000  0.6508444  3
   4357   4354   4363   4364     1  0.0000000  0.6508444  3
   4357   4354   4363   4365     1  0.0000000  0.6508444  3
   4357   4354   4363   4367     1  0.0000000  0.6508444  3
   4358   4357   4360   4366     1  0.0000000  1.0460000  1
   4358   4357   4360   4366     1  0.0000000  0.0000000  3
   4358   4357   4360   4361     1  0.0000000  0.6508444  3
   4358   4357   4360   4362     1  0.0000000  0.6508444  3
   4358   4357   4354   4363     1  0.0000000  0.6508444  3
   4359   4357   4360   4366     1  0.0000000  1.0460000  1
   4359   4357   4360   4366     1  0.0000000  0.0000000  3
   4359   4357   4360   4361     1  0.0000000  0.6508444  3
   4359   4357   4360   4362     1  0.0000000  0.6508444  3
   4359   4357   4354   4363     1  0.0000000  0.6508444  3
   4368   4371   4374   4375     1  0.0000000  0.6508444  3
   4368   4371   4374   4376     1  0.0000000  0.6508444  3
   4369   4368   4371   4374     1  0.0000000  0.6508444  3
   4369   4368   4371   4372     1  0.0000000  0.6508444  3
   4369   4368   4371   4373     1  0.0000000  0.6508444  3
   4369   4368   4377   4378     1  0.0000000  0.6508444  3
   4369   4368   4377   4379     1  0.0000000  0.6508444  3
   4369   4368   4377   4381     1  0.0000000  0.6508444  3
   4370   4368   4371   4374     1  0.0000000  0.6508444  3
   4370   4368   4371   4372     1  0.0000000  0.6508444  3
   4370   4368   4371   4373     1  0.0000000  0.6508444  3
   4370   4368   4377   4378     1  0.0000000  0.6508444  3
   4370   4368   4377   4379     1  0.0000000  0.6508444  3
   4370   4368   4377   4381     1  0.0000000  0.6508444  3
   4371   4368   4377   4378     1  0.0000000  0.6508444  3
   4371   4368   4377   4379     1  0.0000000  0.6508444  3
   4371   4368   4377   4381     1  0.0000000  0.6508444  3
   4372   4371   4368   4377     1  0.0000000  0.6508444  3
   4372   4371   4374   4380     1  0.0000000  1.0460000  1
   4372   4371   4374   4380     1  0.0000000  0.0000000  3
   4372   4371   4374   4375     1  0.0000000  0.6508444  3
   4372   4371   4374   4376     1  0.0000000  0.6508444  3
   4373   4371   4368   4377     1  0.0000000  0.6508444  3
   4373   4371   4374   4380     1  0.0000000  1.0460000  1
   4373   4371   4374   4380     1  0.0000000  0.0000000  3
   4373   4371   4374   4375     1  0.0000000  0.6508444  3
   4373   4371   4374   4376     1  0.0000000  0.6508444  3
   4382   4385   4388   4389     1  0.0000000  0.6508444  3
   4382   4385   4388   4390     1  0.0000000  0.6508444  3
   4383   4382   4385   4388     1  0.0000000  0.6508444  3
   4383   4382   4385   4386     1  0.0000000  0.6508444  3
   4383   4382   4385   4387     1  0.0000000  0.6508444  3
   4383   4382   4391   4392     1  0.0000000  0.6508444  3
   4383   4382   4391   4393     1  0.0000000  0.6508444  3
   4383   4382   4391   4395     1  0.0000000  0.6508444  3
   4384   4382   4385   4388     1  0.0000000  0.6508444  3
   4384   4382   4385   4386     1  0.0000000  0.6508444  3
   4384   4382   4385   4387     1  0.0000000  0.6508444  3
   4384   4382   4391   4392     1  0.0000000  0.6508444  3
   4384   4382   4391   4393     1  0.0000000  0.6508444  3
   4384   4382   4391   4395     1  0.0000000  0.6508444  3
   4385   4382   4391   4392     1  0.0000000  0.6508444  3
   4385   4382   4391   4393     1  0.0000000  0.6508444  3
   4385   4382   4391   4395     1  0.0000000  0.6508444  3
   4386   4385   4388   4394     1  0.0000000  1.0460000  1
   4386   4385   4388   4394     1  0.0000000  0.0000000  3
   4386   4385   4388   4389     1  0.0000000  0.6508444  3
   4386   4385   4388   4390     1  0.0000000  0.6508444  3
   4386   4385   4382   4391     1  0.0000000  0.6508444  3
   4387   4385   4388   4394     1  0.0000000  1.0460000  1
   4387   4385   4388   4394     1  0.0000000  0.0000000  3
   4387   4385   4388   4389     1  0.0000000  0.6508444  3
   4387   4385   4388   4390     1  0.0000000  0.6508444  3
   4387   4385   4382   4391     1  0.0000000  0.6508444  3
   4396   4399   4402   4403     1  0.0000000  0.6508444  3
   4396   4399   4402   4404     1  0.0000000  0.6508444  3
   4397   4396   4399   4402     1  0.0000000  0.6508444  3
   4397   4396   4399   4400     1  0.0000000  0.6508444  3
   4397   4396   4399   4401     1  0.0000000  0.6508444  3
   4397   4396   4405   4406     1  0.0000000  0.6508444  3
   4397   4396   4405   4407     1  0.0000000  0.6508444  3
   4397   4396   4405   4409     1  0.0000000  0.6508444  3
   4398   4396   4399   4402     1  0.0000000  0.6508444  3
   4398   4396   4399   4400     1  0.0000000  0.6508444  3
   4398   4396   4399   4401     1  0.0000000  0.6508444  3
   4398   4396   4405   4406     1  0.0000000  0.6508444  3
   4398   4396   4405   4407     1  0.0000000  0.6508444  3
   4398   4396   4405   4409     1  0.0000000  0.6508444  3
   4399   4396   4405   4406     1  0.0000000  0.6508444  3
   4399   4396   4405   4407     1  0.0000000  0.6508444  3
   4399   4396   4405   4409     1  0.0000000  0.6508444  3
   4400   4399   4396   4405     1  0.0000000  0.6508444  3
   4400   4399   4402   4408     1  0.0000000  1.0460000  1
   4400   4399   4402   4408     1  0.0000000  0.0000000  3
   4400   4399   4402   4403     1  0.0000000  0.6508444  3
   4400   4399   4402   4404     1  0.0000000  0.6508444  3
   4401   4399   4396   4405     1  0.0000000  0.6508444  3
   4401   4399   4402   4408     1  0.0000000  1.0460000  1
   4401   4399   4402   4408     1  0.0000000  0.0000000  3
   4401   4399   4402   4403     1  0.0000000  0.6508444  3
   4401   4399   4402   4404     1  0.0000000  0.6508444  3
   4410   4413   4416   4417     1  0.0000000  0.6508444  3
   4410   4413   4416   4418     1  0.0000000  0.6508444  3
   4411   4410   4413   4416     1  0.0000000  0.6508444  3
   4411   4410   4413   4414     1  0.0000000  0.6508444  3
   4411   4410   4413   4415     1  0.0000000  0.6508444  3
   4411   4410   4419   4420     1  0.0000000  0.6508444  3
   4411   4410   4419   4421     1  0.0000000  0.6508444  3
   4411   4410   4419   4423     1  0.0000000  0.6508444  3
   4412   4410   4413   4416     1  0.0000000  0.6508444  3
   4412   4410   4413   4414     1  0.0000000  0.6508444  3
   4412   4410   4413   4415     1  0.0000000  0.6508444  3
   4412   4410   4419   4420     1  0.0000000  0.6508444  3
   4412   4410   4419   4421     1  0.0000000  0.6508444  3
   4412   4410   4419   4423     1  0.0000000  0.6508444  3
   4413   4410   4419   4420     1  0.0000000  0.6508444  3
   4413   4410   4419   4421     1  0.0000000  0.6508444  3
   4413   4410   4419   4423     1  0.0000000  0.6508444  3
   4414   4413   4416   4422     1  0.0000000  1.0460000  1
   4414   4413   4416   4422     1  0.0000000  0.0000000  3
   4414   4413   4416   4417     1  0.0000000  0.6508444  3
   4414   4413   4416   4418     1  0.0000000  0.6508444  3
   4414   4413   4410   4419     1  0.0000000  0.6508444  3
   4415   4413   4416   4422     1  0.0000000  1.0460000  1
   4415   4413   4416   4422     1  0.0000000  0.0000000  3
   4415   4413   4416   4417     1  0.0000000  0.6508444  3
   4415   4413   4416   4418     1  0.0000000  0.6508444  3
   4415   4413   4410   4419     1  0.0000000  0.6508444  3
   4424   4427   4430   4431     1  0.0000000  0.6508444  3
   4424   4427   4430   4432     1  0.0000000  0.6508444  3
   4425   4424   4427   4430     1  0.0000000  0.6508444  3
   4425   4424   4427   4428     1  0.0000000  0.6508444  3
   4425   4424   4427   4429     1  0.0000000  0.6508444  3
   4425   4424   4433   4434     1  0.0000000  0.6508444  3
   4425   4424   4433   4435     1  0.0000000  0.6508444  3
   4425   4424   4433   4437     1  0.0000000  0.6508444  3
   4426   4424   4427   4430     1  0.0000000  0.6508444  3
   4426   4424   4427   4428     1  0.0000000  0.6508444  3
   4426   4424   4427   4429     1  0.0000000  0.6508444  3
   4426   4424   4433   4434     1  0.0000000  0.6508444  3
   4426   4424   4433   4435     1  0.0000000  0.6508444  3
   4426   4424   4433   4437     1  0.0000000  0.6508444  3
   4427   4424   4433   4434     1  0.0000000  0.6508444  3
   4427   4424   4433   4435     1  0.0000000  0.6508444  3
   4427   4424   4433   4437     1  0.0000000  0.6508444  3
   4428   4427   4424   4433     1  0.0000000  0.6508444  3
   4428   4427   4430   4436     1  0.0000000  1.0460000  1
   4428   4427   4430   4436     1  0.0000000  0.0000000  3
   4428   4427   4430   4431     1  0.0000000  0.6508444  3
   4428   4427   4430   4432     1  0.0000000  0.6508444  3
   4429   4427   4424   4433     1  0.0000000  0.6508444  3
   4429   4427   4430   4436     1  0.0000000  1.0460000  1
   4429   4427   4430   4436     1  0.0000000  0.0000000  3
   4429   4427   4430   4431     1  0.0000000  0.6508444  3
   4429   4427   4430   4432     1  0.0000000  0.6508444  3
   4438   4441   4444   4445     1  0.0000000  0.6508444  3
   4438   4441   4444   4446     1  0.0000000  0.6508444  3
   4439   4438   4441   4444     1  0.0000000  0.6508444  3
   4439   4438   4441   4442     1  0.0000000  0.6508444  3
   4439   4438   4441   4443     1  0.0000000  0.6508444  3
   4439   4438   4447   4448     1  0.0000000  0.6508444  3
   4439   4438   4447   4449     1  0.0000000  0.6508444  3
   4439   4438   4447   4451     1  0.0000000  0.6508444  3
   4440   4438   4441   4444     1  0.0000000  0.6508444  3
   4440   4438   4441   4442     1  0.0000000  0.6508444  3
   4440   4438   4441   4443     1  0.0000000  0.6508444  3
   4440   4438   4447   4448     1  0.0000000  0.6508444  3
   4440   4438   4447   4449     1  0.0000000  0.6508444  3
   4440   4438   4447   4451     1  0.0000000  0.6508444  3
   4441   4438   4447   4448     1  0.0000000  0.6508444  3
   4441   4438   4447   4449     1  0.0000000  0.6508444  3
   4441   4438   4447   4451     1  0.0000000  0.6508444  3
   4442   4441   4444   4450     1  0.0000000  1.0460000  1
   4442   4441   4444   4450     1  0.0000000  0.0000000  3
   4442   4441   4444   4445     1  0.0000000  0.6508444  3
   4442   4441   4444   4446     1  0.0000000  0.6508444  3
   4442   4441   4438   4447     1  0.0000000  0.6508444  3
   4443   4441   4444   4450     1  0.0000000  1.0460000  1
   4443   4441   4444   4450     1  0.0000000  0.0000000  3
   4443   4441   4444   4445     1  0.0000000  0.6508444  3
   4443   4441   4444   4446     1  0.0000000  0.6508444  3
   4443   4441   4438   4447     1  0.0000000  0.6508444  3
   4452   4455   4458   4459     1  0.0000000  0.6508444  3
   4452   4455   4458   4460     1  0.0000000  0.6508444  3
   4453   4452   4455   4458     1  0.0000000  0.6508444  3
   4453   4452   4455   4456     1  0.0000000  0.6508444  3
   4453   4452   4455   4457     1  0.0000000  0.6508444  3
   4453   4452   4461   4462     1  0.0000000  0.6508444  3
   4453   4452   4461   4463     1  0.0000000  0.6508444  3
   4453   4452   4461   4465     1  0.0000000  0.6508444  3
   4454   4452   4455   4458     1  0.0000000  0.6508444  3
   4454   4452   4455   4456     1  0.0000000  0.6508444  3
   4454   4452   4455   4457     1  0.0000000  0.6508444  3
   4454   4452   4461   4462     1  0.0000000  0.6508444  3
   4454   4452   4461   4463     1  0.0000000  0.6508444  3
   4454   4452   4461   4465     1  0.0000000  0.6508444  3
   4455   4452   4461   4462     1  0.0000000  0.6508444  3
   4455   4452   4461   4463     1  0.0000000  0.6508444  3
   4455   4452   4461   4465     1  0.0000000  0.6508444  3
   4456   4455   4452   4461     1  0.0000000  0.6508444  3
   4456   4455   4458   4464     1  0.0000000  1.0460000  1
   4456   4455   4458   4464     1  0.0000000  0.0000000  3
   4456   4455   4458   4459     1  0.0000000  0.6508444  3
   4456   4455   4458   4460     1  0.0000000  0.6508444  3
   4457   4455   4452   4461     1  0.0000000  0.6508444  3
   4457   4455   4458   4464     1  0.0000000  1.0460000  1
   4457   4455   4458   4464     1  0.0000000  0.0000000  3
   4457   4455   4458   4459     1  0.0000000  0.6508444  3
   4457   4455   4458   4460     1  0.0000000  0.6508444  3
   4466   4469   4472   4473     1  0.0000000  0.6508444  3
   4466   4469   4472   4474     1  0.0000000  0.6508444  3
   4467   4466   4469   4472     1  0.0000000  0.6508444  3
   4467   4466   4469   4470     1  0.0000000  0.6508444  3
   4467   4466   4469   4471     1  0.0000000  0.6508444  3
   4467   4466   4475   4476     1  0.0000000  0.6508444  3
   4467   4466   4475   4477     1  0.0000000  0.6508444  3
   4467   4466   4475   4479     1  0.0000000  0.6508444  3
   4468   4466   4469   4472     1  0.0000000  0.6508444  3
   4468   4466   4469   4470     1  0.0000000  0.6508444  3
   4468   4466   4469   4471     1  0.0000000  0.6508444  3
   4468   4466   4475   4476     1  0.0000000  0.6508444  3
   4468   4466   4475   4477     1  0.0000000  0.6508444  3
   4468   4466   4475   4479     1  0.0000000  0.6508444  3
   4469   4466   4475   4476     1  0.0000000  0.6508444  3
   4469   4466   4475   4477     1  0.0000000  0.6508444  3
   4469   4466   4475   4479     1  0.0000000  0.6508444  3
   4470   4469   4472   4478     1  0.0000000  1.0460000  1
   4470   4469   4472   4478     1  0.0000000  0.0000000  3
   4470   4469   4472   4473     1  0.0000000  0.6508444  3
   4470   4469   4472   4474     1  0.0000000  0.6508444  3
   4470   4469   4466   4475     1  0.0000000  0.6508444  3
   4471   4469   4472   4478     1  0.0000000  1.0460000  1
   4471   4469   4472   4478     1  0.0000000  0.0000000  3
   4471   4469   4472   4473     1  0.0000000  0.6508444  3
   4471   4469   4472   4474     1  0.0000000  0.6508444  3
   4471   4469   4466   4475     1  0.0000000  0.6508444  3
   4480   4483   4486   4487     1  0.0000000  0.6508444  3
   4480   4483   4486   4488     1  0.0000000  0.6508444  3
   4481   4480   4483   4486     1  0.0000000  0.6508444  3
   4481   4480   4483   4484     1  0.0000000  0.6508444  3
   4481   4480   4483   4485     1  0.0000000  0.6508444  3
   4481   4480   4489   4490     1  0.0000000  0.6508444  3
   4481   4480   4489   4491     1  0.0000000  0.6508444  3
   4481   4480   4489   4493     1  0.0000000  0.6508444  3
   4482   4480   4483   4486     1  0.0000000  0.6508444  3
   4482   4480   4483   4484     1  0.0000000  0.6508444  3
   4482   4480   4483   4485     1  0.0000000  0.6508444  3
   4482   4480   4489   4490     1  0.0000000  0.6508444  3
   4482   4480   4489   4491     1  0.0000000  0.6508444  3
   4482   4480   4489   4493     1  0.0000000  0.6508444  3
   4483   4480   4489   4490     1  0.0000000  0.6508444  3
   4483   4480   4489   4491     1  0.0000000  0.6508444  3
   4483   4480   4489   4493     1  0.0000000  0.6508444  3
   4484   4483   4480   4489     1  0.0000000  0.6508444  3
   4484   4483   4486   4492     1  0.0000000  1.0460000  1
   4484   4483   4486   4492     1  0.0000000  0.0000000  3
   4484   4483   4486   4487     1  0.0000000  0.6508444  3
   4484   4483   4486   4488     1  0.0000000  0.6508444  3
   4485   4483   4480   4489     1  0.0000000  0.6508444  3
   4485   4483   4486   4492     1  0.0000000  1.0460000  1
   4485   4483   4486   4492     1  0.0000000  0.0000000  3
   4485   4483   4486   4487     1  0.0000000  0.6508444  3
   4485   4483   4486   4488     1  0.0000000  0.6508444  3
   4494   4497   4500   4501     1  0.0000000  0.6508444  3
   4494   4497   4500   4502     1  0.0000000  0.6508444  3
   4495   4494   4497   4500     1  0.0000000  0.6508444  3
   4495   4494   4497   4498     1  0.0000000  0.6508444  3
   4495   4494   4497   4499     1  0.0000000  0.6508444  3
   4495   4494   4503   4504     1  0.0000000  0.6508444  3
   4495   4494   4503   4505     1  0.0000000  0.6508444  3
   4495   4494   4503   4507     1  0.0000000  0.6508444  3
   4496   4494   4497   4500     1  0.0000000  0.6508444  3
   4496   4494   4497   4498     1  0.0000000  0.6508444  3
   4496   4494   4497   4499     1  0.0000000  0.6508444  3
   4496   4494   4503   4504     1  0.0000000  0.6508444  3
   4496   4494   4503   4505     1  0.0000000  0.6508444  3
   4496   4494   4503   4507     1  0.0000000  0.6508444  3
   4497   4494   4503   4504     1  0.0000000  0.6508444  3
   4497   4494   4503   4505     1  0.0000000  0.6508444  3
   4497   4494   4503   4507     1  0.0000000  0.6508444  3
   4498   4497   4500   4506     1  0.0000000  1.0460000  1
   4498   4497   4500   4506     1  0.0000000  0.0000000  3
   4498   4497   4500   4501     1  0.0000000  0.6508444  3
   4498   4497   4500   4502     1  0.0000000  0.6508444  3
   4498   4497   4494   4503     1  0.0000000  0.6508444  3
   4499   4497   4500   4506     1  0.0000000  1.0460000  1
   4499   4497   4500   4506     1  0.0000000  0.0000000  3
   4499   4497   4500   4501     1  0.0000000  0.6508444  3
   4499   4497   4500   4502     1  0.0000000  0.6508444  3
   4499   4497   4494   4503     1  0.0000000  0.6508444  3
   4508   4511   4514   4515     1  0.0000000  0.6508444  3
   4508   4511   4514   4516     1  0.0000000  0.6508444  3
   4509   4508   4511   4514     1  0.0000000  0.6508444  3
   4509   4508   4511   4512     1  0.0000000  0.6508444  3
   4509   4508   4511   4513     1  0.0000000  0.6508444  3
   4509   4508   4517   4518     1  0.0000000  0.6508444  3
   4509   4508   4517   4519     1  0.0000000  0.6508444  3
   4509   4508   4517   4521     1  0.0000000  0.6508444  3
   4510   4508   4511   4514     1  0.0000000  0.6508444  3
   4510   4508   4511   4512     1  0.0000000  0.6508444  3
   4510   4508   4511   4513     1  0.0000000  0.6508444  3
   4510   4508   4517   4518     1  0.0000000  0.6508444  3
   4510   4508   4517   4519     1  0.0000000  0.6508444  3
   4510   4508   4517   4521     1  0.0000000  0.6508444  3
   4511   4508   4517   4518     1  0.0000000  0.6508444  3
   4511   4508   4517   4519     1  0.0000000  0.6508444  3
   4511   4508   4517   4521     1  0.0000000  0.6508444  3
   4512   4511   4508   4517     1  0.0000000  0.6508444  3
   4512   4511   4514   4520     1  0.0000000  1.0460000  1
   4512   4511   4514   4520     1  0.0000000  0.0000000  3
   4512   4511   4514   4515     1  0.0000000  0.6508444  3
   4512   4511   4514   4516     1  0.0000000  0.6508444  3
   4513   4511   4508   4517     1  0.0000000  0.6508444  3
   4513   4511   4514   4520     1  0.0000000  1.0460000  1
   4513   4511   4514   4520     1  0.0000000  0.0000000  3
   4513   4511   4514   4515     1  0.0000000  0.6508444  3
   4513   4511   4514   4516     1  0.0000000  0.6508444  3
   4522   4525   4528   4529     1  0.0000000  0.6508444  3
   4522   4525   4528   4530     1  0.0000000  0.6508444  3
   4523   4522   4525   4528     1  0.0000000  0.6508444  3
   4523   4522   4525   4526     1  0.0000000  0.6508444  3
   4523   4522   4525   4527     1  0.0000000  0.6508444  3
   4523   4522   4531   4532     1  0.0000000  0.6508444  3
   4523   4522   4531   4533     1  0.0000000  0.6508444  3
   4523   4522   4531   4535     1  0.0000000  0.6508444  3
   4524   4522   4525   4528     1  0.0000000  0.6508444  3
   4524   4522   4525   4526     1  0.0000000  0.6508444  3
   4524   4522   4525   4527     1  0.0000000  0.6508444  3
   4524   4522   4531   4532     1  0.0000000  0.6508444  3
   4524   4522   4531   4533     1  0.0000000  0.6508444  3
   4524   4522   4531   4535     1  0.0000000  0.6508444  3
   4525   4522   4531   4532     1  0.0000000  0.6508444  3
   4525   4522   4531   4533     1  0.0000000  0.6508444  3
   4525   4522   4531   4535     1  0.0000000  0.6508444  3
   4526   4525   4528   4534     1  0.0000000  1.0460000  1
   4526   4525   4528   4534     1  0.0000000  0.0000000  3
   4526   4525   4528   4529     1  0.0000000  0.6508444  3
   4526   4525   4528   4530     1  0.0000000  0.6508444  3
   4526   4525   4522   4531     1  0.0000000  0.6508444  3
   4527   4525   4528   4534     1  0.0000000  1.0460000  1
   4527   4525   4528   4534     1  0.0000000  0.0000000  3
   4527   4525   4528   4529     1  0.0000000  0.6508444  3
   4527   4525   4528   4530     1  0.0000000  0.6508444  3
   4527   4525   4522   4531     1  0.0000000  0.6508444  3
   4536   4539   4542   4543     1  0.0000000  0.6508444  3
   4536   4539   4542   4544     1  0.0000000  0.6508444  3
   4537   4536   4539   4542     1  0.0000000  0.6508444  3
   4537   4536   4539   4540     1  0.0000000  0.6508444  3
   4537   4536   4539   4541     1  0.0000000  0.6508444  3
   4537   4536   4545   4546     1  0.0000000  0.6508444  3
   4537   4536   4545   4547     1  0.0000000  0.6508444  3
   4537   4536   4545   4549     1  0.0000000  0.6508444  3
   4538   4536   4539   4542     1  0.0000000  0.6508444  3
   4538   4536   4539   4540     1  0.0000000  0.6508444  3
   4538   4536   4539   4541     1  0.0000000  0.6508444  3
   4538   4536   4545   4546     1  0.0000000  0.6508444  3
   4538   4536   4545   4547     1  0.0000000  0.6508444  3
   4538   4536   4545   4549     1  0.0000000  0.6508444  3
   4539   4536   4545   4546     1  0.0000000  0.6508444  3
   4539   4536   4545   4547     1  0.0000000  0.6508444  3
   4539   4536   4545   4549     1  0.0000000  0.6508444  3
   4540   4539   4536   4545     1  0.0000000  0.6508444  3
   4540   4539   4542   4548     1  0.0000000  1.0460000  1
   4540   4539   4542   4548     1  0.0000000  0.0000000  3
   4540   4539   4542   4543     1  0.0000000  0.6508444  3
   4540   4539   4542   4544     1  0.0000000  0.6508444  3
   4541   4539   4536   4545     1  0.0000000  0.6508444  3
   4541   4539   4542   4548     1  0.0000000  1.0460000  1
   4541   4539   4542   4548     1  0.0000000  0.0000000  3
   4541   4539   4542   4543     1  0.0000000  0.6508444  3
   4541   4539   4542   4544     1  0.0000000  0.6508444  3
   4550   4553   4556   4557     1  0.0000000  0.6508444  3
   4550   4553   4556   4558     1  0.0000000  0.6508444  3
   4551   4550   4553   4556     1  0.0000000  0.6508444  3
   4551   4550   4553   4554     1  0.0000000  0.6508444  3
   4551   4550   4553   4555     1  0.0000000  0.6508444  3
   4551   4550   4559   4560     1  0.0000000  0.6508444  3
   4551   4550   4559   4561     1  0.0000000  0.6508444  3
   4551   4550   4559   4563     1  0.0000000  0.6508444  3
   4552   4550   4553   4556     1  0.0000000  0.6508444  3
   4552   4550   4553   4554     1  0.0000000  0.6508444  3
   4552   4550   4553   4555     1  0.0000000  0.6508444  3
   4552   4550   4559   4560     1  0.0000000  0.6508444  3
   4552   4550   4559   4561     1  0.0000000  0.6508444  3
   4552   4550   4559   4563     1  0.0000000  0.6508444  3
   4553   4550   4559   4560     1  0.0000000  0.6508444  3
   4553   4550   4559   4561     1  0.0000000  0.6508444  3
   4553   4550   4559   4563     1  0.0000000  0.6508444  3
   4554   4553   4556   4562     1  0.0000000  1.0460000  1
   4554   4553   4556   4562     1  0.0000000  0.0000000  3
   4554   4553   4556   4557     1  0.0000000  0.6508444  3
   4554   4553   4556   4558     1  0.0000000  0.6508444  3
   4554   4553   4550   4559     1  0.0000000  0.6508444  3
   4555   4553   4556   4562     1  0.0000000  1.0460000  1
   4555   4553   4556   4562     1  0.0000000  0.0000000  3
   4555   4553   4556   4557     1  0.0000000  0.6508444  3
   4555   4553   4556   4558     1  0.0000000  0.6508444  3
   4555   4553   4550   4559     1  0.0000000  0.6508444  3
   4564   4567   4570   4571     1  0.0000000  0.6508444  3
   4564   4567   4570   4572     1  0.0000000  0.6508444  3
   4565   4564   4567   4570     1  0.0000000  0.6508444  3
   4565   4564   4567   4568     1  0.0000000  0.6508444  3
   4565   4564   4567   4569     1  0.0000000  0.6508444  3
   4565   4564   4573   4574     1  0.0000000  0.6508444  3
   4565   4564   4573   4575     1  0.0000000  0.6508444  3
   4565   4564   4573   4577     1  0.0000000  0.6508444  3
   4566   4564   4567   4570     1  0.0000000  0.6508444  3
   4566   4564   4567   4568     1  0.0000000  0.6508444  3
   4566   4564   4567   4569     1  0.0000000  0.6508444  3
   4566   4564   4573   4574     1  0.0000000  0.6508444  3
   4566   4564   4573   4575     1  0.0000000  0.6508444  3
   4566   4564   4573   4577     1  0.0000000  0.6508444  3
   4567   4564   4573   4574     1  0.0000000  0.6508444  3
   4567   4564   4573   4575     1  0.0000000  0.6508444  3
   4567   4564   4573   4577     1  0.0000000  0.6508444  3
   4568   4567   4564   4573     1  0.0000000  0.6508444  3
   4568   4567   4570   4576     1  0.0000000  1.0460000  1
   4568   4567   4570   4576     1  0.0000000  0.0000000  3
   4568   4567   4570   4571     1  0.0000000  0.6508444  3
   4568   4567   4570   4572     1  0.0000000  0.6508444  3
   4569   4567   4564   4573     1  0.0000000  0.6508444  3
   4569   4567   4570   4576     1  0.0000000  1.0460000  1
   4569   4567   4570   4576     1  0.0000000  0.0000000  3
   4569   4567   4570   4571     1  0.0000000  0.6508444  3
   4569   4567   4570   4572     1  0.0000000  0.6508444  3
   4578   4581   4584   4585     1  0.0000000  0.6508444  3
   4578   4581   4584   4586     1  0.0000000  0.6508444  3
   4579   4578   4581   4584     1  0.0000000  0.6508444  3
   4579   4578   4581   4582     1  0.0000000  0.6508444  3
   4579   4578   4581   4583     1  0.0000000  0.6508444  3
   4579   4578   4587   4588     1  0.0000000  0.6508444  3
   4579   4578   4587   4589     1  0.0000000  0.6508444  3
   4579   4578   4587   4591     1  0.0000000  0.6508444  3
   4580   4578   4581   4584     1  0.0000000  0.6508444  3
   4580   4578   4581   4582     1  0.0000000  0.6508444  3
   4580   4578   4581   4583     1  0.0000000  0.6508444  3
   4580   4578   4587   4588     1  0.0000000  0.6508444  3
   4580   4578   4587   4589     1  0.0000000  0.6508444  3
   4580   4578   4587   4591     1  0.0000000  0.6508444  3
   4581   4578   4587   4588     1  0.0000000  0.6508444  3
   4581   4578   4587   4589     1  0.0000000  0.6508444  3
   4581   4578   4587   4591     1  0.0000000  0.6508444  3
   4582   4581   4584   4590     1  0.0000000  1.0460000  1
   4582   4581   4584   4590     1  0.0000000  0.0000000  3
   4582   4581   4584   4585     1  0.0000000  0.6508444  3
   4582   4581   4584   4586     1  0.0000000  0.6508444  3
   4582   4581   4578   4587     1  0.0000000  0.6508444  3
   4583   4581   4584   4590     1  0.0000000  1.0460000  1
   4583   4581   4584   4590     1  0.0000000  0.0000000  3
   4583   4581   4584   4585     1  0.0000000  0.6508444  3
   4583   4581   4584   4586     1  0.0000000  0.6508444  3
   4583   4581   4578   4587     1  0.0000000  0.6508444  3
   4592   4595   4598   4599     1  0.0000000  0.6508444  3
   4592   4595   4598   4600     1  0.0000000  0.6508444  3
   4593   4592   4595   4598     1  0.0000000  0.6508444  3
   4593   4592   4595   4596     1  0.0000000  0.6508444  3
   4593   4592   4595   4597     1  0.0000000  0.6508444  3
   4593   4592   4601   4602     1  0.0000000  0.6508444  3
   4593   4592   4601   4603     1  0.0000000  0.6508444  3
   4593   4592   4601   4605     1  0.0000000  0.6508444  3
   4594   4592   4595   4598     1  0.0000000  0.6508444  3
   4594   4592   4595   4596     1  0.0000000  0.6508444  3
   4594   4592   4595   4597     1  0.0000000  0.6508444  3
   4594   4592   4601   4602     1  0.0000000  0.6508444  3
   4594   4592   4601   4603     1  0.0000000  0.6508444  3
   4594   4592   4601   4605     1  0.0000000  0.6508444  3
   4595   4592   4601   4602     1  0.0000000  0.6508444  3
   4595   4592   4601   4603     1  0.0000000  0.6508444  3
   4595   4592   4601   4605     1  0.0000000  0.6508444  3
   4596   4595   4592   4601     1  0.0000000  0.6508444  3
   4596   4595   4598   4604     1  0.0000000  1.0460000  1
   4596   4595   4598   4604     1  0.0000000  0.0000000  3
   4596   4595   4598   4599     1  0.0000000  0.6508444  3
   4596   4595   4598   4600     1  0.0000000  0.6508444  3
   4597   4595   4592   4601     1  0.0000000  0.6508444  3
   4597   4595   4598   4604     1  0.0000000  1.0460000  1
   4597   4595   4598   4604     1  0.0000000  0.0000000  3
   4597   4595   4598   4599     1  0.0000000  0.6508444  3
   4597   4595   4598   4600     1  0.0000000  0.6508444  3
   4606   4609   4612   4613     1  0.0000000  0.6508444  3
   4606   4609   4612   4614     1  0.0000000  0.6508444  3
   4607   4606   4609   4612     1  0.0000000  0.6508444  3
   4607   4606   4609   4610     1  0.0000000  0.6508444  3
   4607   4606   4609   4611     1  0.0000000  0.6508444  3
   4607   4606   4615   4616     1  0.0000000  0.6508444  3
   4607   4606   4615   4617     1  0.0000000  0.6508444  3
   4607   4606   4615   4619     1  0.0000000  0.6508444  3
   4608   4606   4609   4612     1  0.0000000  0.6508444  3
   4608   4606   4609   4610     1  0.0000000  0.6508444  3
   4608   4606   4609   4611     1  0.0000000  0.6508444  3
   4608   4606   4615   4616     1  0.0000000  0.6508444  3
   4608   4606   4615   4617     1  0.0000000  0.6508444  3
   4608   4606   4615   4619     1  0.0000000  0.6508444  3
   4609   4606   4615   4616     1  0.0000000  0.6508444  3
   4609   4606   4615   4617     1  0.0000000  0.6508444  3
   4609   4606   4615   4619     1  0.0000000  0.6508444  3
   4610   4609   4612   4618     1  0.0000000  1.0460000  1
   4610   4609   4612   4618     1  0.0000000  0.0000000  3
   4610   4609   4612   4613     1  0.0000000  0.6508444  3
   4610   4609   4612   4614     1  0.0000000  0.6508444  3
   4610   4609   4606   4615     1  0.0000000  0.6508444  3
   4611   4609   4612   4618     1  0.0000000  1.0460000  1
   4611   4609   4612   4618     1  0.0000000  0.0000000  3
   4611   4609   4612   4613     1  0.0000000  0.6508444  3
   4611   4609   4612   4614     1  0.0000000  0.6508444  3
   4611   4609   4606   4615     1  0.0000000  0.6508444  3
   4620   4623   4626   4627     1  0.0000000  0.6508444  3
   4620   4623   4626   4628     1  0.0000000  0.6508444  3
   4621   4620   4623   4626     1  0.0000000  0.6508444  3
   4621   4620   4623   4624     1  0.0000000  0.6508444  3
   4621   4620   4623   4625     1  0.0000000  0.6508444  3
   4621   4620   4629   4630     1  0.0000000  0.6508444  3
   4621   4620   4629   4631     1  0.0000000  0.6508444  3
   4621   4620   4629   4633     1  0.0000000  0.6508444  3
   4622   4620   4623   4626     1  0.0000000  0.6508444  3
   4622   4620   4623   4624     1  0.0000000  0.6508444  3
   4622   4620   4623   4625     1  0.0000000  0.6508444  3
   4622   4620   4629   4630     1  0.0000000  0.6508444  3
   4622   4620   4629   4631     1  0.0000000  0.6508444  3
   4622   4620   4629   4633     1  0.0000000  0.6508444  3
   4623   4620   4629   4630     1  0.0000000  0.6508444  3
   4623   4620   4629   4631     1  0.0000000  0.6508444  3
   4623   4620   4629   4633     1  0.0000000  0.6508444  3
   4624   4623   4620   4629     1  0.0000000  0.6508444  3
   4624   4623   4626   4632     1  0.0000000  1.0460000  1
   4624   4623   4626   4632     1  0.0000000  0.0000000  3
   4624   4623   4626   4627     1  0.0000000  0.6508444  3
   4624   4623   4626   4628     1  0.0000000  0.6508444  3
   4625   4623   4620   4629     1  0.0000000  0.6508444  3
   4625   4623   4626   4632     1  0.0000000  1.0460000  1
   4625   4623   4626   4632     1  0.0000000  0.0000000  3
   4625   4623   4626   4627     1  0.0000000  0.6508444  3
   4625   4623   4626   4628     1  0.0000000  0.6508444  3
   4634   4637   4640   4641     1  0.0000000  0.6508444  3
   4634   4637   4640   4642     1  0.0000000  0.6508444  3
   4635   4634   4637   4640     1  0.0000000  0.6508444  3
   4635   4634   4637   4638     1  0.0000000  0.6508444  3
   4635   4634   4637   4639     1  0.0000000  0.6508444  3
   4635   4634   4643   4644     1  0.0000000  0.6508444  3
   4635   4634   4643   4645     1  0.0000000  0.6508444  3
   4635   4634   4643   4647     1  0.0000000  0.6508444  3
   4636   4634   4637   4640     1  0.0000000  0.6508444  3
   4636   4634   4637   4638     1  0.0000000  0.6508444  3
   4636   4634   4637   4639     1  0.0000000  0.6508444  3
   4636   4634   4643   4644     1  0.0000000  0.6508444  3
   4636   4634   4643   4645     1  0.0000000  0.6508444  3
   4636   4634   4643   4647     1  0.0000000  0.6508444  3
   4637   4634   4643   4644     1  0.0000000  0.6508444  3
   4637   4634   4643   4645     1  0.0000000  0.6508444  3
   4637   4634   4643   4647     1  0.0000000  0.6508444  3
   4638   4637   4640   4646     1  0.0000000  1.0460000  1
   4638   4637   4640   4646     1  0.0000000  0.0000000  3
   4638   4637   4640   4641     1  0.0000000  0.6508444  3
   4638   4637   4640   4642     1  0.0000000  0.6508444  3
   4638   4637   4634   4643     1  0.0000000  0.6508444  3
   4639   4637   4640   4646     1  0.0000000  1.0460000  1
   4639   4637   4640   4646     1  0.0000000  0.0000000  3
   4639   4637   4640   4641     1  0.0000000  0.6508444  3
   4639   4637   4640   4642     1  0.0000000  0.6508444  3
   4639   4637   4634   4643     1  0.0000000  0.6508444  3
   4648   4651   4654   4655     1  0.0000000  0.6508444  3
   4648   4651   4654   4656     1  0.0000000  0.6508444  3
   4649   4648   4651   4654     1  0.0000000  0.6508444  3
   4649   4648   4651   4652     1  0.0000000  0.6508444  3
   4649   4648   4651   4653     1  0.0000000  0.6508444  3
   4649   4648   4657   4658     1  0.0000000  0.6508444  3
   4649   4648   4657   4659     1  0.0000000  0.6508444  3
   4649   4648   4657   4661     1  0.0000000  0.6508444  3
   4650   4648   4651   4654     1  0.0000000  0.6508444  3
   4650   4648   4651   4652     1  0.0000000  0.6508444  3
   4650   4648   4651   4653     1  0.0000000  0.6508444  3
   4650   4648   4657   4658     1  0.0000000  0.6508444  3
   4650   4648   4657   4659     1  0.0000000  0.6508444  3
   4650   4648   4657   4661     1  0.0000000  0.6508444  3
   4651   4648   4657   4658     1  0.0000000  0.6508444  3
   4651   4648   4657   4659     1  0.0000000  0.6508444  3
   4651   4648   4657   4661     1  0.0000000  0.6508444  3
   4652   4651   4648   4657     1  0.0000000  0.6508444  3
   4652   4651   4654   4660     1  0.0000000  1.0460000  1
   4652   4651   4654   4660     1  0.0000000  0.0000000  3
   4652   4651   4654   4655     1  0.0000000  0.6508444  3
   4652   4651   4654   4656     1  0.0000000  0.6508444  3
   4653   4651   4648   4657     1  0.0000000  0.6508444  3
   4653   4651   4654   4660     1  0.0000000  1.0460000  1
   4653   4651   4654   4660     1  0.0000000  0.0000000  3
   4653   4651   4654   4655     1  0.0000000  0.6508444  3
   4653   4651   4654   4656     1  0.0000000  0.6508444  3
   4662   4665   4668   4669     1  0.0000000  0.6508444  3
   4662   4665   4668   4670     1  0.0000000  0.6508444  3
   4663   4662   4665   4668     1  0.0000000  0.6508444  3
   4663   4662   4665   4666     1  0.0000000  0.6508444  3
   4663   4662   4665   4667     1  0.0000000  0.6508444  3
   4663   4662   4671   4672     1  0.0000000  0.6508444  3
   4663   4662   4671   4673     1  0.0000000  0.6508444  3
   4663   4662   4671   4675     1  0.0000000  0.6508444  3
   4664   4662   4665   4668     1  0.0000000  0.6508444  3
   4664   4662   4665   4666     1  0.0000000  0.6508444  3
   4664   4662   4665   4667     1  0.0000000  0.6508444  3
   4664   4662   4671   4672     1  0.0000000  0.6508444  3
   4664   4662   4671   4673     1  0.0000000  0.6508444  3
   4664   4662   4671   4675     1  0.0000000  0.6508444  3
   4665   4662   4671   4672     1  0.0000000  0.6508444  3
   4665   4662   4671   4673     1  0.0000000  0.6508444  3
   4665   4662   4671   4675     1  0.0000000  0.6508444  3
   4666   4665   4668   4674     1  0.0000000  1.0460000  1
   4666   4665   4668   4674     1  0.0000000  0.0000000  3
   4666   4665   4668   4669     1  0.0000000  0.6508444  3
   4666   4665   4668   4670     1  0.0000000  0.6508444  3
   4666   4665   4662   4671     1  0.0000000  0.6508444  3
   4667   4665   4668   4674     1  0.0000000  1.0460000  1
   4667   4665   4668   4674     1  0.0000000  0.0000000  3
   4667   4665   4668   4669     1  0.0000000  0.6508444  3
   4667   4665   4668   4670     1  0.0000000  0.6508444  3
   4667   4665   4662   4671     1  0.0000000  0.6508444  3
   4676   4679   4682   4683     1  0.0000000  0.6508444  3
   4676   4679   4682   4684     1  0.0000000  0.6508444  3
   4677   4676   4679   4682     1  0.0000000  0.6508444  3
   4677   4676   4679   4680     1  0.0000000  0.6508444  3
   4677   4676   4679   4681     1  0.0000000  0.6508444  3
   4677   4676   4685   4686     1  0.0000000  0.6508444  3
   4677   4676   4685   4687     1  0.0000000  0.6508444  3
   4677   4676   4685   4689     1  0.0000000  0.6508444  3
   4678   4676   4679   4682     1  0.0000000  0.6508444  3
   4678   4676   4679   4680     1  0.0000000  0.6508444  3
   4678   4676   4679   4681     1  0.0000000  0.6508444  3
   4678   4676   4685   4686     1  0.0000000  0.6508444  3
   4678   4676   4685   4687     1  0.0000000  0.6508444  3
   4678   4676   4685   4689     1  0.0000000  0.6508444  3
   4679   4676   4685   4686     1  0.0000000  0.6508444  3
   4679   4676   4685   4687     1  0.0000000  0.6508444  3
   4679   4676   4685   4689     1  0.0000000  0.6508444  3
   4680   4679   4676   4685     1  0.0000000  0.6508444  3
   4680   4679   4682   4688     1  0.0000000  1.0460000  1
   4680   4679   4682   4688     1  0.0000000  0.0000000  3
   4680   4679   4682   4683     1  0.0000000  0.6508444  3
   4680   4679   4682   4684     1  0.0000000  0.6508444  3
   4681   4679   4676   4685     1  0.0000000  0.6508444  3
   4681   4679   4682   4688     1  0.0000000  1.0460000  1
   4681   4679   4682   4688     1  0.0000000  0.0000000  3
   4681   4679   4682   4683     1  0.0000000  0.6508444  3
   4681   4679   4682   4684     1  0.0000000  0.6508444  3
   4690   4693   4696   4697     1  0.0000000  0.6508444  3
   4690   4693   4696   4698     1  0.0000000  0.6508444  3
   4691   4690   4693   4696     1  0.0000000  0.6508444  3
   4691   4690   4693   4694     1  0.0000000  0.6508444  3
   4691   4690   4693   4695     1  0.0000000  0.6508444  3
   4691   4690   4699   4700     1  0.0000000  0.6508444  3
   4691   4690   4699   4701     1  0.0000000  0.6508444  3
   4691   4690   4699   4703     1  0.0000000  0.6508444  3
   4692   4690   4693   4696     1  0.0000000  0.6508444  3
   4692   4690   4693   4694     1  0.0000000  0.6508444  3
   4692   4690   4693   4695     1  0.0000000  0.6508444  3
   4692   4690   4699   4700     1  0.0000000  0.6508444  3
   4692   4690   4699   4701     1  0.0000000  0.6508444  3
   4692   4690   4699   4703     1  0.0000000  0.6508444  3
   4693   4690   4699   4700     1  0.0000000  0.6508444  3
   4693   4690   4699   4701     1  0.0000000  0.6508444  3
   4693   4690   4699   4703     1  0.0000000  0.6508444  3
   4694   4693   4696   4702     1  0.0000000  1.0460000  1
   4694   4693   4696   4702     1  0.0000000  0.0000000  3
   4694   4693   4696   4697     1  0.0000000  0.6508444  3
   4694   4693   4696   4698     1  0.0000000  0.6508444  3
   4694   4693   4690   4699     1  0.0000000  0.6508444  3
   4695   4693   4696   4702     1  0.0000000  1.0460000  1
   4695   4693   4696   4702     1  0.0000000  0.0000000  3
   4695   4693   4696   4697     1  0.0000000  0.6508444  3
   4695   4693   4696   4698     1  0.0000000  0.6508444  3
   4695   4693   4690   4699     1  0.0000000  0.6508444  3
   4704   4707   4710   4711     1  0.0000000  0.6508444  3
   4704   4707   4710   4712     1  0.0000000  0.6508444  3
   4705   4704   4707   4710     1  0.0000000  0.6508444  3
   4705   4704   4707   4708     1  0.0000000  0.6508444  3
   4705   4704   4707   4709     1  0.0000000  0.6508444  3
   4705   4704   4713   4714     1  0.0000000  0.6508444  3
   4705   4704   4713   4715     1  0.0000000  0.6508444  3
   4705   4704   4713   4717     1  0.0000000  0.6508444  3
   4706   4704   4707   4710     1  0.0000000  0.6508444  3
   4706   4704   4707   4708     1  0.0000000  0.6508444  3
   4706   4704   4707   4709     1  0.0000000  0.6508444  3
   4706   4704   4713   4714     1  0.0000000  0.6508444  3
   4706   4704   4713   4715     1  0.0000000  0.6508444  3
   4706   4704   4713   4717     1  0.0000000  0.6508444  3
   4707   4704   4713   4714     1  0.0000000  0.6508444  3
   4707   4704   4713   4715     1  0.0000000  0.6508444  3
   4707   4704   4713   4717     1  0.0000000  0.6508444  3
   4708   4707   4704   4713     1  0.0000000  0.6508444  3
   4708   4707   4710   4716     1  0.0000000  1.0460000  1
   4708   4707   4710   4716     1  0.0000000  0.0000000  3
   4708   4707   4710   4711     1  0.0000000  0.6508444  3
   4708   4707   4710   4712     1  0.0000000  0.6508444  3
   4709   4707   4704   4713     1  0.0000000  0.6508444  3
   4709   4707   4710   4716     1  0.0000000  1.0460000  1
   4709   4707   4710   4716     1  0.0000000  0.0000000  3
   4709   4707   4710   4711     1  0.0000000  0.6508444  3
   4709   4707   4710   4712     1  0.0000000  0.6508444  3
   4718   4721   4724   4725     1  0.0000000  0.6508444  3
   4718   4721   4724   4726     1  0.0000000  0.6508444  3
   4719   4718   4721   4724     1  0.0000000  0.6508444  3
   4719   4718   4721   4722     1  0.0000000  0.6508444  3
   4719   4718   4721   4723     1  0.0000000  0.6508444  3
   4719   4718   4727   4728     1  0.0000000  0.6508444  3
   4719   4718   4727   4729     1  0.0000000  0.6508444  3
   4719   4718   4727   4731     1  0.0000000  0.6508444  3
   4720   4718   4721   4724     1  0.0000000  0.6508444  3
   4720   4718   4721   4722     1  0.0000000  0.6508444  3
   4720   4718   4721   4723     1  0.0000000  0.6508444  3
   4720   4718   4727   4728     1  0.0000000  0.6508444  3
   4720   4718   4727   4729     1  0.0000000  0.6508444  3
   4720   4718   4727   4731     1  0.0000000  0.6508444  3
   4721   4718   4727   4728     1  0.0000000  0.6508444  3
   4721   4718   4727   4729     1  0.0000000  0.6508444  3
   4721   4718   4727   4731     1  0.0000000  0.6508444  3
   4722   4721   4724   4730     1  0.0000000  1.0460000  1
   4722   4721   4724   4730     1  0.0000000  0.0000000  3
   4722   4721   4724   4725     1  0.0000000  0.6508444  3
   4722   4721   4724   4726     1  0.0000000  0.6508444  3
   4722   4721   4718   4727     1  0.0000000  0.6508444  3
   4723   4721   4724   4730     1  0.0000000  1.0460000  1
   4723   4721   4724   4730     1  0.0000000  0.0000000  3
   4723   4721   4724   4725     1  0.0000000  0.6508444  3
   4723   4721   4724   4726     1  0.0000000  0.6508444  3
   4723   4721   4718   4727     1  0.0000000  0.6508444  3
   4732   4735   4738   4739     1  0.0000000  0.6508444  3
   4732   4735   4738   4740     1  0.0000000  0.6508444  3
   4733   4732   4735   4738     1  0.0000000  0.6508444  3
   4733   4732   4735   4736     1  0.0000000  0.6508444  3
   4733   4732   4735   4737     1  0.0000000  0.6508444  3
   4733   4732   4741   4742     1  0.0000000  0.6508444  3
   4733   4732   4741   4743     1  0.0000000  0.6508444  3
   4733   4732   4741   4745     1  0.0000000  0.6508444  3
   4734   4732   4735   4738     1  0.0000000  0.6508444  3
   4734   4732   4735   4736     1  0.0000000  0.6508444  3
   4734   4732   4735   4737     1  0.0000000  0.6508444  3
   4734   4732   4741   4742     1  0.0000000  0.6508444  3
   4734   4732   4741   4743     1  0.0000000  0.6508444  3
   4734   4732   4741   4745     1  0.0000000  0.6508444  3
   4735   4732   4741   4742     1  0.0000000  0.6508444  3
   4735   4732   4741   4743     1  0.0000000  0.6508444  3
   4735   4732   4741   4745     1  0.0000000  0.6508444  3
   4736   4735   4732   4741     1  0.0000000  0.6508444  3
   4736   4735   4738   4744     1  0.0000000  1.0460000  1
   4736   4735   4738   4744     1  0.0000000  0.0000000  3
   4736   4735   4738   4739     1  0.0000000  0.6508444  3
   4736   4735   4738   4740     1  0.0000000  0.6508444  3
   4737   4735   4732   4741     1  0.0000000  0.6508444  3
   4737   4735   4738   4744     1  0.0000000  1.0460000  1
   4737   4735   4738   4744     1  0.0000000  0.0000000  3
   4737   4735   4738   4739     1  0.0000000  0.6508444  3
   4737   4735   4738   4740     1  0.0000000  0.6508444  3
   4746   4749   4752   4753     1  0.0000000  0.6508444  3
   4746   4749   4752   4754     1  0.0000000  0.6508444  3
   4747   4746   4749   4752     1  0.0000000  0.6508444  3
   4747   4746   4749   4750     1  0.0000000  0.6508444  3
   4747   4746   4749   4751     1  0.0000000  0.6508444  3
   4747   4746   4755   4756     1  0.0000000  0.6508444  3
   4747   4746   4755   4757     1  0.0000000  0.6508444  3
   4747   4746   4755   4759     1  0.0000000  0.6508444  3
   4748   4746   4749   4752     1  0.0000000  0.6508444  3
   4748   4746   4749   4750     1  0.0000000  0.6508444  3
   4748   4746   4749   4751     1  0.0000000  0.6508444  3
   4748   4746   4755   4756     1  0.0000000  0.6508444  3
   4748   4746   4755   4757     1  0.0000000  0.6508444  3
   4748   4746   4755   4759     1  0.0000000  0.6508444  3
   4749   4746   4755   4756     1  0.0000000  0.6508444  3
   4749   4746   4755   4757     1  0.0000000  0.6508444  3
   4749   4746   4755   4759     1  0.0000000  0.6508444  3
   4750   4749   4752   4758     1  0.0000000  1.0460000  1
   4750   4749   4752   4758     1  0.0000000  0.0000000  3
   4750   4749   4752   4753     1  0.0000000  0.6508444  3
   4750   4749   4752   4754     1  0.0000000  0.6508444  3
   4750   4749   4746   4755     1  0.0000000  0.6508444  3
   4751   4749   4752   4758     1  0.0000000  1.0460000  1
   4751   4749   4752   4758     1  0.0000000  0.0000000  3
   4751   4749   4752   4753     1  0.0000000  0.6508444  3
   4751   4749   4752   4754     1  0.0000000  0.6508444  3
   4751   4749   4746   4755     1  0.0000000  0.6508444  3
   4760   4763   4766   4767     1  0.0000000  0.6508444  3
   4760   4763   4766   4768     1  0.0000000  0.6508444  3
   4761   4760   4763   4766     1  0.0000000  0.6508444  3
   4761   4760   4763   4764     1  0.0000000  0.6508444  3
   4761   4760   4763   4765     1  0.0000000  0.6508444  3
   4761   4760   4769   4770     1  0.0000000  0.6508444  3
   4761   4760   4769   4771     1  0.0000000  0.6508444  3
   4761   4760   4769   4773     1  0.0000000  0.6508444  3
   4762   4760   4763   4766     1  0.0000000  0.6508444  3
   4762   4760   4763   4764     1  0.0000000  0.6508444  3
   4762   4760   4763   4765     1  0.0000000  0.6508444  3
   4762   4760   4769   4770     1  0.0000000  0.6508444  3
   4762   4760   4769   4771     1  0.0000000  0.6508444  3
   4762   4760   4769   4773     1  0.0000000  0.6508444  3
   4763   4760   4769   4770     1  0.0000000  0.6508444  3
   4763   4760   4769   4771     1  0.0000000  0.6508444  3
   4763   4760   4769   4773     1  0.0000000  0.6508444  3
   4764   4763   4760   4769     1  0.0000000  0.6508444  3
   4764   4763   4766   4772     1  0.0000000  1.0460000  1
   4764   4763   4766   4772     1  0.0000000  0.0000000  3
   4764   4763   4766   4767     1  0.0000000  0.6508444  3
   4764   4763   4766   4768     1  0.0000000  0.6508444  3
   4765   4763   4760   4769     1  0.0000000  0.6508444  3
   4765   4763   4766   4772     1  0.0000000  1.0460000  1
   4765   4763   4766   4772     1  0.0000000  0.0000000  3
   4765   4763   4766   4767     1  0.0000000  0.6508444  3
   4765   4763   4766   4768     1  0.0000000  0.6508444  3
   4774   4777   4780   4781     1  0.0000000  0.6508444  3
   4774   4777   4780   4782     1  0.0000000  0.6508444  3
   4775   4774   4777   4780     1  0.0000000  0.6508444  3
   4775   4774   4777   4778     1  0.0000000  0.6508444  3
   4775   4774   4777   4779     1  0.0000000  0.6508444  3
   4775   4774   4783   4784     1  0.0000000  0.6508444  3
   4775   4774   4783   4785     1  0.0000000  0.6508444  3
   4775   4774   4783   4787     1  0.0000000  0.6508444  3
   4776   4774   4777   4780     1  0.0000000  0.6508444  3
   4776   4774   4777   4778     1  0.0000000  0.6508444  3
   4776   4774   4777   4779     1  0.0000000  0.6508444  3
   4776   4774   4783   4784     1  0.0000000  0.6508444  3
   4776   4774   4783   4785     1  0.0000000  0.6508444  3
   4776   4774   4783   4787     1  0.0000000  0.6508444  3
   4777   4774   4783   4784     1  0.0000000  0.6508444  3
   4777   4774   4783   4785     1  0.0000000  0.6508444  3
   4777   4774   4783   4787     1  0.0000000  0.6508444  3
   4778   4777   4780   4786     1  0.0000000  1.0460000  1
   4778   4777   4780   4786     1  0.0000000  0.0000000  3
   4778   4777   4780   4781     1  0.0000000  0.6508444  3
   4778   4777   4780   4782     1  0.0000000  0.6508444  3
   4778   4777   4774   4783     1  0.0000000  0.6508444  3
   4779   4777   4780   4786     1  0.0000000  1.0460000  1
   4779   4777   4780   4786     1  0.0000000  0.0000000  3
   4779   4777   4780   4781     1  0.0000000  0.6508444  3
   4779   4777   4780   4782     1  0.0000000  0.6508444  3
   4779   4777   4774   4783     1  0.0000000  0.6508444  3
   4788   4791   4794   4795     1  0.0000000  0.6508444  3
   4788   4791   4794   4796     1  0.0000000  0.6508444  3
   4789   4788   4791   4794     1  0.0000000  0.6508444  3
   4789   4788   4791   4792     1  0.0000000  0.6508444  3
   4789   4788   4791   4793     1  0.0000000  0.6508444  3
   4789   4788   4797   4798     1  0.0000000  0.6508444  3
   4789   4788   4797   4799     1  0.0000000  0.6508444  3
   4789   4788   4797   4801     1  0.0000000  0.6508444  3
   4790   4788   4791   4794     1  0.0000000  0.6508444  3
   4790   4788   4791   4792     1  0.0000000  0.6508444  3
   4790   4788   4791   4793     1  0.0000000  0.6508444  3
   4790   4788   4797   4798     1  0.0000000  0.6508444  3
   4790   4788   4797   4799     1  0.0000000  0.6508444  3
   4790   4788   4797   4801     1  0.0000000  0.6508444  3
   4791   4788   4797   4798     1  0.0000000  0.6508444  3
   4791   4788   4797   4799     1  0.0000000  0.6508444  3
   4791   4788   4797   4801     1  0.0000000  0.6508444  3
   4792   4791   4788   4797     1  0.0000000  0.6508444  3
   4792   4791   4794   4800     1  0.0000000  1.0460000  1
   4792   4791   4794   4800     1  0.0000000  0.0000000  3
   4792   4791   4794   4795     1  0.0000000  0.6508444  3
   4792   4791   4794   4796     1  0.0000000  0.6508444  3
   4793   4791   4788   4797     1  0.0000000  0.6508444  3
   4793   4791   4794   4800     1  0.0000000  1.0460000  1
   4793   4791   4794   4800     1  0.0000000  0.0000000  3
   4793   4791   4794   4795     1  0.0000000  0.6508444  3
   4793   4791   4794   4796     1  0.0000000  0.6508444  3
   4802   4805   4808   4809     1  0.0000000  0.6508444  3
   4802   4805   4808   4810     1  0.0000000  0.6508444  3
   4803   4802   4805   4808     1  0.0000000  0.6508444  3
   4803   4802   4805   4806     1  0.0000000  0.6508444  3
   4803   4802   4805   4807     1  0.0000000  0.6508444  3
   4803   4802   4811   4812     1  0.0000000  0.6508444  3
   4803   4802   4811   4813     1  0.0000000  0.6508444  3
   4803   4802   4811   4815     1  0.0000000  0.6508444  3
   4804   4802   4805   4808     1  0.0000000  0.6508444  3
   4804   4802   4805   4806     1  0.0000000  0.6508444  3
   4804   4802   4805   4807     1  0.0000000  0.6508444  3
   4804   4802   4811   4812     1  0.0000000  0.6508444  3
   4804   4802   4811   4813     1  0.0000000  0.6508444  3
   4804   4802   4811   4815     1  0.0000000  0.6508444  3
   4805   4802   4811   4812     1  0.0000000  0.6508444  3
   4805   4802   4811   4813     1  0.0000000  0.6508444  3
   4805   4802   4811   4815     1  0.0000000  0.6508444  3
   4806   4805   4808   4814     1  0.0000000  1.0460000  1
   4806   4805   4808   4814     1  0.0000000  0.0000000  3
   4806   4805   4808   4809     1  0.0000000  0.6508444  3
   4806   4805   4808   4810     1  0.0000000  0.6508444  3
   4806   4805   4802   4811     1  0.0000000  0.6508444  3
   4807   4805   4808   4814     1  0.0000000  1.0460000  1
   4807   4805   4808   4814     1  0.0000000  0.0000000  3
   4807   4805   4808   4809     1  0.0000000  0.6508444  3
   4807   4805   4808   4810     1  0.0000000  0.6508444  3
   4807   4805   4802   4811     1  0.0000000  0.6508444  3
   4816   4819   4822   4823     1  0.0000000  0.6508444  3
   4816   4819   4822   4824     1  0.0000000  0.6508444  3
   4817   4816   4819   4822     1  0.0000000  0.6508444  3
   4817   4816   4819   4820     1  0.0000000  0.6508444  3
   4817   4816   4819   4821     1  0.0000000  0.6508444  3
   4817   4816   4825   4826     1  0.0000000  0.6508444  3
   4817   4816   4825   4827     1  0.0000000  0.6508444  3
   4817   4816   4825   4829     1  0.0000000  0.6508444  3
   4818   4816   4819   4822     1  0.0000000  0.6508444  3
   4818   4816   4819   4820     1  0.0000000  0.6508444  3
   4818   4816   4819   4821     1  0.0000000  0.6508444  3
   4818   4816   4825   4826     1  0.0000000  0.6508444  3
   4818   4816   4825   4827     1  0.0000000  0.6508444  3
   4818   4816   4825   4829     1  0.0000000  0.6508444  3
   4819   4816   4825   4826     1  0.0000000  0.6508444  3
   4819   4816   4825   4827     1  0.0000000  0.6508444  3
   4819   4816   4825   4829     1  0.0000000  0.6508444  3
   4820   4819   4816   4825     1  0.0000000  0.6508444  3
   4820   4819   4822   4828     1  0.0000000  1.0460000  1
   4820   4819   4822   4828     1  0.0000000  0.0000000  3
   4820   4819   4822   4823     1  0.0000000  0.6508444  3
   4820   4819   4822   4824     1  0.0000000  0.6508444  3
   4821   4819   4816   4825     1  0.0000000  0.6508444  3
   4821   4819   4822   4828     1  0.0000000  1.0460000  1
   4821   4819   4822   4828     1  0.0000000  0.0000000  3
   4821   4819   4822   4823     1  0.0000000  0.6508444  3
   4821   4819   4822   4824     1  0.0000000  0.6508444  3
   4830   4833   4836   4837     1  0.0000000  0.6508444  3
   4830   4833   4836   4838     1  0.0000000  0.6508444  3
   4831   4830   4833   4836     1  0.0000000  0.6508444  3
   4831   4830   4833   4834     1  0.0000000  0.6508444  3
   4831   4830   4833   4835     1  0.0000000  0.6508444  3
   4831   4830   4839   4840     1  0.0000000  0.6508444  3
   4831   4830   4839   4841     1  0.0000000  0.6508444  3
   4831   4830   4839   4843     1  0.0000000  0.6508444  3
   4832   4830   4833   4836     1  0.0000000  0.6508444  3
   4832   4830   4833   4834     1  0.0000000  0.6508444  3
   4832   4830   4833   4835     1  0.0000000  0.6508444  3
   4832   4830   4839   4840     1  0.0000000  0.6508444  3
   4832   4830   4839   4841     1  0.0000000  0.6508444  3
   4832   4830   4839   4843     1  0.0000000  0.6508444  3
   4833   4830   4839   4840     1  0.0000000  0.6508444  3
   4833   4830   4839   4841     1  0.0000000  0.6508444  3
   4833   4830   4839   4843     1  0.0000000  0.6508444  3
   4834   4833   4836   4842     1  0.0000000  1.0460000  1
   4834   4833   4836   4842     1  0.0000000  0.0000000  3
   4834   4833   4836   4837     1  0.0000000  0.6508444  3
   4834   4833   4836   4838     1  0.0000000  0.6508444  3
   4834   4833   4830   4839     1  0.0000000  0.6508444  3
   4835   4833   4836   4842     1  0.0000000  1.0460000  1
   4835   4833   4836   4842     1  0.0000000  0.0000000  3
   4835   4833   4836   4837     1  0.0000000  0.6508444  3
   4835   4833   4836   4838     1  0.0000000  0.6508444  3
   4835   4833   4830   4839     1  0.0000000  0.6508444  3
   4844   4847   4850   4851     1  0.0000000  0.6508444  3
   4844   4847   4850   4852     1  0.0000000  0.6508444  3
   4845   4844   4847   4850     1  0.0000000  0.6508444  3
   4845   4844   4847   4848     1  0.0000000  0.6508444  3
   4845   4844   4847   4849     1  0.0000000  0.6508444  3
   4845   4844   4853   4854     1  0.0000000  0.6508444  3
   4845   4844   4853   4855     1  0.0000000  0.6508444  3
   4845   4844   4853   4857     1  0.0000000  0.6508444  3
   4846   4844   4847   4850     1  0.0000000  0.6508444  3
   4846   4844   4847   4848     1  0.0000000  0.6508444  3
   4846   4844   4847   4849     1  0.0000000  0.6508444  3
   4846   4844   4853   4854     1  0.0000000  0.6508444  3
   4846   4844   4853   4855     1  0.0000000  0.6508444  3
   4846   4844   4853   4857     1  0.0000000  0.6508444  3
   4847   4844   4853   4854     1  0.0000000  0.6508444  3
   4847   4844   4853   4855     1  0.0000000  0.6508444  3
   4847   4844   4853   4857     1  0.0000000  0.6508444  3
   4848   4847   4844   4853     1  0.0000000  0.6508444  3
   4848   4847   4850   4856     1  0.0000000  1.0460000  1
   4848   4847   4850   4856     1  0.0000000  0.0000000  3
   4848   4847   4850   4851     1  0.0000000  0.6508444  3
   4848   4847   4850   4852     1  0.0000000  0.6508444  3
   4849   4847   4844   4853     1  0.0000000  0.6508444  3
   4849   4847   4850   4856     1  0.0000000  1.0460000  1
   4849   4847   4850   4856     1  0.0000000  0.0000000  3
   4849   4847   4850   4851     1  0.0000000  0.6508444  3
   4849   4847   4850   4852     1  0.0000000  0.6508444  3
   4858   4861   4864   4865     1  0.0000000  0.6508444  3
   4858   4861   4864   4866     1  0.0000000  0.6508444  3
   4859   4858   4861   4864     1  0.0000000  0.6508444  3
   4859   4858   4861   4862     1  0.0000000  0.6508444  3
   4859   4858   4861   4863     1  0.0000000  0.6508444  3
   4859   4858   4867   4868     1  0.0000000  0.6508444  3
   4859   4858   4867   4869     1  0.0000000  0.6508444  3
   4859   4858   4867   4871     1  0.0000000  0.6508444  3
   4860   4858   4861   4864     1  0.0000000  0.6508444  3
   4860   4858   4861   4862     1  0.0000000  0.6508444  3
   4860   4858   4861   4863     1  0.0000000  0.6508444  3
   4860   4858   4867   4868     1  0.0000000  0.6508444  3
   4860   4858   4867   4869     1  0.0000000  0.6508444  3
   4860   4858   4867   4871     1  0.0000000  0.6508444  3
   4861   4858   4867   4868     1  0.0000000  0.6508444  3
   4861   4858   4867   4869     1  0.0000000  0.6508444  3
   4861   4858   4867   4871     1  0.0000000  0.6508444  3
   4862   4861   4864   4870     1  0.0000000  1.0460000  1
   4862   4861   4864   4870     1  0.0000000  0.0000000  3
   4862   4861   4864   4865     1  0.0000000  0.6508444  3
   4862   4861   4864   4866     1  0.0000000  0.6508444  3
   4862   4861   4858   4867     1  0.0000000  0.6508444  3
   4863   4861   4864   4870     1  0.0000000  1.0460000  1
   4863   4861   4864   4870     1  0.0000000  0.0000000  3
   4863   4861   4864   4865     1  0.0000000  0.6508444  3
   4863   4861   4864   4866     1  0.0000000  0.6508444  3
   4863   4861   4858   4867     1  0.0000000  0.6508444  3
   4872   4875   4878   4879     1  0.0000000  0.6508444  3
   4872   4875   4878   4880     1  0.0000000  0.6508444  3
   4873   4872   4875   4878     1  0.0000000  0.6508444  3
   4873   4872   4875   4876     1  0.0000000  0.6508444  3
   4873   4872   4875   4877     1  0.0000000  0.6508444  3
   4873   4872   4881   4882     1  0.0000000  0.6508444  3
   4873   4872   4881   4883     1  0.0000000  0.6508444  3
   4873   4872   4881   4885     1  0.0000000  0.6508444  3
   4874   4872   4875   4878     1  0.0000000  0.6508444  3
   4874   4872   4875   4876     1  0.0000000  0.6508444  3
   4874   4872   4875   4877     1  0.0000000  0.6508444  3
   4874   4872   4881   4882     1  0.0000000  0.6508444  3
   4874   4872   4881   4883     1  0.0000000  0.6508444  3
   4874   4872   4881   4885     1  0.0000000  0.6508444  3
   4875   4872   4881   4882     1  0.0000000  0.6508444  3
   4875   4872   4881   4883     1  0.0000000  0.6508444  3
   4875   4872   4881   4885     1  0.0000000  0.6508444  3
   4876   4875   4872   4881     1  0.0000000  0.6508444  3
   4876   4875   4878   4884     1  0.0000000  1.0460000  1
   4876   4875   4878   4884     1  0.0000000  0.0000000  3
   4876   4875   4878   4879     1  0.0000000  0.6508444  3
   4876   4875   4878   4880     1  0.0000000  0.6508444  3
   4877   4875   4872   4881     1  0.0000000  0.6508444  3
   4877   4875   4878   4884     1  0.0000000  1.0460000  1
   4877   4875   4878   4884     1  0.0000000  0.0000000  3
   4877   4875   4878   4879     1  0.0000000  0.6508444  3
   4877   4875   4878   4880     1  0.0000000  0.6508444  3
   4886   4889   4892   4893     1  0.0000000  0.6508444  3
   4886   4889   4892   4894     1  0.0000000  0.6508444  3
   4887   4886   4889   4892     1  0.0000000  0.6508444  3
   4887   4886   4889   4890     1  0.0000000  0.6508444  3
   4887   4886   4889   4891     1  0.0000000  0.6508444  3
   4887   4886   4895   4896     1  0.0000000  0.6508444  3
   4887   4886   4895   4897     1  0.0000000  0.6508444  3
   4887   4886   4895   4899     1  0.0000000  0.6508444  3
   4888   4886   4889   4892     1  0.0000000  0.6508444  3
   4888   4886   4889   4890     1  0.0000000  0.6508444  3
   4888   4886   4889   4891     1  0.0000000  0.6508444  3
   4888   4886   4895   4896     1  0.0000000  0.6508444  3
   4888   4886   4895   4897     1  0.0000000  0.6508444  3
   4888   4886   4895   4899     1  0.0000000  0.6508444  3
   4889   4886   4895   4896     1  0.0000000  0.6508444  3
   4889   4886   4895   4897     1  0.0000000  0.6508444  3
   4889   4886   4895   4899     1  0.0000000  0.6508444  3
   4890   4889   4892   4898     1  0.0000000  1.0460000  1
   4890   4889   4892   4898     1  0.0000000  0.0000000  3
   4890   4889   4892   4893     1  0.0000000  0.6508444  3
   4890   4889   4892   4894     1  0.0000000  0.6508444  3
   4890   4889   4886   4895     1  0.0000000  0.6508444  3
   4891   4889   4892   4898     1  0.0000000  1.0460000  1
   4891   4889   4892   4898     1  0.0000000  0.0000000  3
   4891   4889   4892   4893     1  0.0000000  0.6508444  3
   4891   4889   4892   4894     1  0.0000000  0.6508444  3
   4891   4889   4886   4895     1  0.0000000  0.6508444  3
   4900   4903   4906   4907     1  0.0000000  0.6508444  3
   4900   4903   4906   4908     1  0.0000000  0.6508444  3
   4901   4900   4903   4906     1  0.0000000  0.6508444  3
   4901   4900   4903   4904     1  0.0000000  0.6508444  3
   4901   4900   4903   4905     1  0.0000000  0.6508444  3
   4901   4900   4909   4910     1  0.0000000  0.6508444  3
   4901   4900   4909   4911     1  0.0000000  0.6508444  3
   4901   4900   4909   4913     1  0.0000000  0.6508444  3
   4902   4900   4903   4906     1  0.0000000  0.6508444  3
   4902   4900   4903   4904     1  0.0000000  0.6508444  3
   4902   4900   4903   4905     1  0.0000000  0.6508444  3
   4902   4900   4909   4910     1  0.0000000  0.6508444  3
   4902   4900   4909   4911     1  0.0000000  0.6508444  3
   4902   4900   4909   4913     1  0.0000000  0.6508444  3
   4903   4900   4909   4910     1  0.0000000  0.6508444  3
   4903   4900   4909   4911     1  0.0000000  0.6508444  3
   4903   4900   4909   4913     1  0.0000000  0.6508444  3
   4904   4903   4900   4909     1  0.0000000  0.6508444  3
   4904   4903   4906   4912     1  0.0000000  1.0460000  1
   4904   4903   4906   4912     1  0.0000000  0.0000000  3
   4904   4903   4906   4907     1  0.0000000  0.6508444  3
   4904   4903   4906   4908     1  0.0000000  0.6508444  3
   4905   4903   4900   4909     1  0.0000000  0.6508444  3
   4905   4903   4906   4912     1  0.0000000  1.0460000  1
   4905   4903   4906   4912     1  0.0000000  0.0000000  3
   4905   4903   4906   4907     1  0.0000000  0.6508444  3
   4905   4903   4906   4908     1  0.0000000  0.6508444  3
   4914   4917   4920   4921     1  0.0000000  0.6508444  3
   4914   4917   4920   4922     1  0.0000000  0.6508444  3
   4915   4914   4917   4920     1  0.0000000  0.6508444  3
   4915   4914   4917   4918     1  0.0000000  0.6508444  3
   4915   4914   4917   4919     1  0.0000000  0.6508444  3
   4915   4914   4923   4924     1  0.0000000  0.6508444  3
   4915   4914   4923   4925     1  0.0000000  0.6508444  3
   4915   4914   4923   4927     1  0.0000000  0.6508444  3
   4916   4914   4917   4920     1  0.0000000  0.6508444  3
   4916   4914   4917   4918     1  0.0000000  0.6508444  3
   4916   4914   4917   4919     1  0.0000000  0.6508444  3
   4916   4914   4923   4924     1  0.0000000  0.6508444  3
   4916   4914   4923   4925     1  0.0000000  0.6508444  3
   4916   4914   4923   4927     1  0.0000000  0.6508444  3
   4917   4914   4923   4924     1  0.0000000  0.6508444  3
   4917   4914   4923   4925     1  0.0000000  0.6508444  3
   4917   4914   4923   4927     1  0.0000000  0.6508444  3
   4918   4917   4920   4926     1  0.0000000  1.0460000  1
   4918   4917   4920   4926     1  0.0000000  0.0000000  3
   4918   4917   4920   4921     1  0.0000000  0.6508444  3
   4918   4917   4920   4922     1  0.0000000  0.6508444  3
   4918   4917   4914   4923     1  0.0000000  0.6508444  3
   4919   4917   4920   4926     1  0.0000000  1.0460000  1
   4919   4917   4920   4926     1  0.0000000  0.0000000  3
   4919   4917   4920   4921     1  0.0000000  0.6508444  3
   4919   4917   4920   4922     1  0.0000000  0.6508444  3
   4919   4917   4914   4923     1  0.0000000  0.6508444  3
   4928   4931   4934   4935     1  0.0000000  0.6508444  3
   4928   4931   4934   4936     1  0.0000000  0.6508444  3
   4929   4928   4931   4934     1  0.0000000  0.6508444  3
   4929   4928   4931   4932     1  0.0000000  0.6508444  3
   4929   4928   4931   4933     1  0.0000000  0.6508444  3
   4929   4928   4937   4938     1  0.0000000  0.6508444  3
   4929   4928   4937   4939     1  0.0000000  0.6508444  3
   4929   4928   4937   4941     1  0.0000000  0.6508444  3
   4930   4928   4931   4934     1  0.0000000  0.6508444  3
   4930   4928   4931   4932     1  0.0000000  0.6508444  3
   4930   4928   4931   4933     1  0.0000000  0.6508444  3
   4930   4928   4937   4938     1  0.0000000  0.6508444  3
   4930   4928   4937   4939     1  0.0000000  0.6508444  3
   4930   4928   4937   4941     1  0.0000000  0.6508444  3
   4931   4928   4937   4938     1  0.0000000  0.6508444  3
   4931   4928   4937   4939     1  0.0000000  0.6508444  3
   4931   4928   4937   4941     1  0.0000000  0.6508444  3
   4932   4931   4928   4937     1  0.0000000  0.6508444  3
   4932   4931   4934   4940     1  0.0000000  1.0460000  1
   4932   4931   4934   4940     1  0.0000000  0.0000000  3
   4932   4931   4934   4935     1  0.0000000  0.6508444  3
   4932   4931   4934   4936     1  0.0000000  0.6508444  3
   4933   4931   4928   4937     1  0.0000000  0.6508444  3
   4933   4931   4934   4940     1  0.0000000  1.0460000  1
   4933   4931   4934   4940     1  0.0000000  0.0000000  3
   4933   4931   4934   4935     1  0.0000000  0.6508444  3
   4933   4931   4934   4936     1  0.0000000  0.6508444  3
   4942   4945   4948   4949     1  0.0000000  0.6508444  3
   4942   4945   4948   4950     1  0.0000000  0.6508444  3
   4943   4942   4945   4948     1  0.0000000  0.6508444  3
   4943   4942   4945   4946     1  0.0000000  0.6508444  3
   4943   4942   4945   4947     1  0.0000000  0.6508444  3
   4943   4942   4951   4952     1  0.0000000  0.6508444  3
   4943   4942   4951   4953     1  0.0000000  0.6508444  3
   4943   4942   4951   4955     1  0.0000000  0.6508444  3
   4944   4942   4945   4948     1  0.0000000  0.6508444  3
   4944   4942   4945   4946     1  0.0000000  0.6508444  3
   4944   4942   4945   4947     1  0.0000000  0.6508444  3
   4944   4942   4951   4952     1  0.0000000  0.6508444  3
   4944   4942   4951   4953     1  0.0000000  0.6508444  3
   4944   4942   4951   4955     1  0.0000000  0.6508444  3
   4945   4942   4951   4952     1  0.0000000  0.6508444  3
   4945   4942   4951   4953     1  0.0000000  0.6508444  3
   4945   4942   4951   4955     1  0.0000000  0.6508444  3
   4946   4945   4948   4954     1  0.0000000  1.0460000  1
   4946   4945   4948   4954     1  0.0000000  0.0000000  3
   4946   4945   4948   4949     1  0.0000000  0.6508444  3
   4946   4945   4948   4950     1  0.0000000  0.6508444  3
   4946   4945   4942   4951     1  0.0000000  0.6508444  3
   4947   4945   4948   4954     1  0.0000000  1.0460000  1
   4947   4945   4948   4954     1  0.0000000  0.0000000  3
   4947   4945   4948   4949     1  0.0000000  0.6508444  3
   4947   4945   4948   4950     1  0.0000000  0.6508444  3
   4947   4945   4942   4951     1  0.0000000  0.6508444  3
   4956   4959   4962   4963     1  0.0000000  0.6508444  3
   4956   4959   4962   4964     1  0.0000000  0.6508444  3
   4957   4956   4959   4962     1  0.0000000  0.6508444  3
   4957   4956   4959   4960     1  0.0000000  0.6508444  3
   4957   4956   4959   4961     1  0.0000000  0.6508444  3
   4957   4956   4965   4966     1  0.0000000  0.6508444  3
   4957   4956   4965   4967     1  0.0000000  0.6508444  3
   4957   4956   4965   4969     1  0.0000000  0.6508444  3
   4958   4956   4959   4962     1  0.0000000  0.6508444  3
   4958   4956   4959   4960     1  0.0000000  0.6508444  3
   4958   4956   4959   4961     1  0.0000000  0.6508444  3
   4958   4956   4965   4966     1  0.0000000  0.6508444  3
   4958   4956   4965   4967     1  0.0000000  0.6508444  3
   4958   4956   4965   4969     1  0.0000000  0.6508444  3
   4959   4956   4965   4966     1  0.0000000  0.6508444  3
   4959   4956   4965   4967     1  0.0000000  0.6508444  3
   4959   4956   4965   4969     1  0.0000000  0.6508444  3
   4960   4959   4956   4965     1  0.0000000  0.6508444  3
   4960   4959   4962   4968     1  0.0000000  1.0460000  1
   4960   4959   4962   4968     1  0.0000000  0.0000000  3
   4960   4959   4962   4963     1  0.0000000  0.6508444  3
   4960   4959   4962   4964     1  0.0000000  0.6508444  3
   4961   4959   4956   4965     1  0.0000000  0.6508444  3
   4961   4959   4962   4968     1  0.0000000  1.0460000  1
   4961   4959   4962   4968     1  0.0000000  0.0000000  3
   4961   4959   4962   4963     1  0.0000000  0.6508444  3
   4961   4959   4962   4964     1  0.0000000  0.6508444  3
   4970   4973   4976   4977     1  0.0000000  0.6508444  3
   4970   4973   4976   4978     1  0.0000000  0.6508444  3
   4971   4970   4973   4976     1  0.0000000  0.6508444  3
   4971   4970   4973   4974     1  0.0000000  0.6508444  3
   4971   4970   4973   4975     1  0.0000000  0.6508444  3
   4971   4970   4979   4980     1  0.0000000  0.6508444  3
   4971   4970   4979   4981     1  0.0000000  0.6508444  3
   4971   4970   4979   4983     1  0.0000000  0.6508444  3
   4972   4970   4973   4976     1  0.0000000  0.6508444  3
   4972   4970   4973   4974     1  0.0000000  0.6508444  3
   4972   4970   4973   4975     1  0.0000000  0.6508444  3
   4972   4970   4979   4980     1  0.0000000  0.6508444  3
   4972   4970   4979   4981     1  0.0000000  0.6508444  3
   4972   4970   4979   4983     1  0.0000000  0.6508444  3
   4973   4970   4979   4980     1  0.0000000  0.6508444  3
   4973   4970   4979   4981     1  0.0000000  0.6508444  3
   4973   4970   4979   4983     1  0.0000000  0.6508444  3
   4974   4973   4976   4982     1  0.0000000  1.0460000  1
   4974   4973   4976   4982     1  0.0000000  0.0000000  3
   4974   4973   4976   4977     1  0.0000000  0.6508444  3
   4974   4973   4976   4978     1  0.0000000  0.6508444  3
   4974   4973   4970   4979     1  0.0000000  0.6508444  3
   4975   4973   4976   4982     1  0.0000000  1.0460000  1
   4975   4973   4976   4982     1  0.0000000  0.0000000  3
   4975   4973   4976   4977     1  0.0000000  0.6508444  3
   4975   4973   4976   4978     1  0.0000000  0.6508444  3
   4975   4973   4970   4979     1  0.0000000  0.6508444  3
   4984   4987   4990   4991     1  0.0000000  0.6508444  3
   4984   4987   4990   4992     1  0.0000000  0.6508444  3
   4985   4984   4987   4990     1  0.0000000  0.6508444  3
   4985   4984   4987   4988     1  0.0000000  0.6508444  3
   4985   4984   4987   4989     1  0.0000000  0.6508444  3
   4985   4984   4993   4994     1  0.0000000  0.6508444  3
   4985   4984   4993   4995     1  0.0000000  0.6508444  3
   4985   4984   4993   4997     1  0.0000000  0.6508444  3
   4986   4984   4987   4990     1  0.0000000  0.6508444  3
   4986   4984   4987   4988     1  0.0000000  0.6508444  3
   4986   4984   4987   4989     1  0.0000000  0.6508444  3
   4986   4984   4993   4994     1  0.0000000  0.6508444  3
   4986   4984   4993   4995     1  0.0000000  0.6508444  3
   4986   4984   4993   4997     1  0.0000000  0.6508444  3
   4987   4984   4993   4994     1  0.0000000  0.6508444  3
   4987   4984   4993   4995     1  0.0000000  0.6508444  3
   4987   4984   4993   4997     1  0.0000000  0.6508444  3
   4988   4987   4984   4993     1  0.0000000  0.6508444  3
   4988   4987   4990   4996     1  0.0000000  1.0460000  1
   4988   4987   4990   4996     1  0.0000000  0.0000000  3
   4988   4987   4990   4991     1  0.0000000  0.6508444  3
   4988   4987   4990   4992     1  0.0000000  0.6508444  3
   4989   4987   4984   4993     1  0.0000000  0.6508444  3
   4989   4987   4990   4996     1  0.0000000  1.0460000  1
   4989   4987   4990   4996     1  0.0000000  0.0000000  3
   4989   4987   4990   4991     1  0.0000000  0.6508444  3
   4989   4987   4990   4992     1  0.0000000  0.6508444  3
   4998   5001   5004   5005     1  0.0000000  0.6508444  3
   4998   5001   5004   5006     1  0.0000000  0.6508444  3
   4999   4998   5001   5004     1  0.0000000  0.6508444  3
   4999   4998   5001   5002     1  0.0000000  0.6508444  3
   4999   4998   5001   5003     1  0.0000000  0.6508444  3
   4999   4998   5007   5008     1  0.0000000  0.6508444  3
   4999   4998   5007   5009     1  0.0000000  0.6508444  3
   4999   4998   5007   5011     1  0.0000000  0.6508444  3
   5000   4998   5001   5004     1  0.0000000  0.6508444  3
   5000   4998   5001   5002     1  0.0000000  0.6508444  3
   5000   4998   5001   5003     1  0.0000000  0.6508444  3
   5000   4998   5007   5008     1  0.0000000  0.6508444  3
   5000   4998   5007   5009     1  0.0000000  0.6508444  3
   5000   4998   5007   5011     1  0.0000000  0.6508444  3
   5001   4998   5007   5008     1  0.0000000  0.6508444  3
   5001   4998   5007   5009     1  0.0000000  0.6508444  3
   5001   4998   5007   5011     1  0.0000000  0.6508444  3
   5002   5001   5004   5010     1  0.0000000  1.0460000  1
   5002   5001   5004   5010     1  0.0000000  0.0000000  3
   5002   5001   5004   5005     1  0.0000000  0.6508444  3
   5002   5001   5004   5006     1  0.0000000  0.6508444  3
   5002   5001   4998   5007     1  0.0000000  0.6508444  3
   5003   5001   5004   5010     1  0.0000000  1.0460000  1
   5003   5001   5004   5010     1  0.0000000  0.0000000  3
   5003   5001   5004   5005     1  0.0000000  0.6508444  3
   5003   5001   5004   5006     1  0.0000000  0.6508444  3
   5003   5001   4998   5007     1  0.0000000  0.6508444  3
   5012   5015   5018   5019     1  0.0000000  0.6508444  3
   5012   5015   5018   5020     1  0.0000000  0.6508444  3
   5013   5012   5015   5018     1  0.0000000  0.6508444  3
   5013   5012   5015   5016     1  0.0000000  0.6508444  3
   5013   5012   5015   5017     1  0.0000000  0.6508444  3
   5013   5012   5021   5022     1  0.0000000  0.6508444  3
   5013   5012   5021   5023     1  0.0000000  0.6508444  3
   5013   5012   5021   5025     1  0.0000000  0.6508444  3
   5014   5012   5015   5018     1  0.0000000  0.6508444  3
   5014   5012   5015   5016     1  0.0000000  0.6508444  3
   5014   5012   5015   5017     1  0.0000000  0.6508444  3
   5014   5012   5021   5022     1  0.0000000  0.6508444  3
   5014   5012   5021   5023     1  0.0000000  0.6508444  3
   5014   5012   5021   5025     1  0.0000000  0.6508444  3
   5015   5012   5021   5022     1  0.0000000  0.6508444  3
   5015   5012   5021   5023     1  0.0000000  0.6508444  3
   5015   5012   5021   5025     1  0.0000000  0.6508444  3
   5016   5015   5012   5021     1  0.0000000  0.6508444  3
   5016   5015   5018   5024     1  0.0000000  1.0460000  1
   5016   5015   5018   5024     1  0.0000000  0.0000000  3
   5016   5015   5018   5019     1  0.0000000  0.6508444  3
   5016   5015   5018   5020     1  0.0000000  0.6508444  3
   5017   5015   5012   5021     1  0.0000000  0.6508444  3
   5017   5015   5018   5024     1  0.0000000  1.0460000  1
   5017   5015   5018   5024     1  0.0000000  0.0000000  3
   5017   5015   5018   5019     1  0.0000000  0.6508444  3
   5017   5015   5018   5020     1  0.0000000  0.6508444  3
   5026   5029   5032   5033     1  0.0000000  0.6508444  3
   5026   5029   5032   5034     1  0.0000000  0.6508444  3
   5027   5026   5029   5032     1  0.0000000  0.6508444  3
   5027   5026   5029   5030     1  0.0000000  0.6508444  3
   5027   5026   5029   5031     1  0.0000000  0.6508444  3
   5027   5026   5035   5036     1  0.0000000  0.6508444  3
   5027   5026   5035   5037     1  0.0000000  0.6508444  3
   5027   5026   5035   5039     1  0.0000000  0.6508444  3
   5028   5026   5029   5032     1  0.0000000  0.6508444  3
   5028   5026   5029   5030     1  0.0000000  0.6508444  3
   5028   5026   5029   5031     1  0.0000000  0.6508444  3
   5028   5026   5035   5036     1  0.0000000  0.6508444  3
   5028   5026   5035   5037     1  0.0000000  0.6508444  3
   5028   5026   5035   5039     1  0.0000000  0.6508444  3
   5029   5026   5035   5036     1  0.0000000  0.6508444  3
   5029   5026   5035   5037     1  0.0000000  0.6508444  3
   5029   5026   5035   5039     1  0.0000000  0.6508444  3
   5030   5029   5032   5038     1  0.0000000  1.0460000  1
   5030   5029   5032   5038     1  0.0000000  0.0000000  3
   5030   5029   5032   5033     1  0.0000000  0.6508444  3
   5030   5029   5032   5034     1  0.0000000  0.6508444  3
   5030   5029   5026   5035     1  0.0000000  0.6508444  3
   5031   5029   5032   5038     1  0.0000000  1.0460000  1
   5031   5029   5032   5038     1  0.0000000  0.0000000  3
   5031   5029   5032   5033     1  0.0000000  0.6508444  3
   5031   5029   5032   5034     1  0.0000000  0.6508444  3
   5031   5029   5026   5035     1  0.0000000  0.6508444  3
   5040   5043   5046   5047     1  0.0000000  0.6508444  3
   5040   5043   5046   5048     1  0.0000000  0.6508444  3
   5041   5040   5043   5046     1  0.0000000  0.6508444  3
   5041   5040   5043   5044     1  0.0000000  0.6508444  3
   5041   5040   5043   5045     1  0.0000000  0.6508444  3
   5041   5040   5049   5050     1  0.0000000  0.6508444  3
   5041   5040   5049   5051     1  0.0000000  0.6508444  3
   5041   5040   5049   5053     1  0.0000000  0.6508444  3
   5042   5040   5043   5046     1  0.0000000  0.6508444  3
   5042   5040   5043   5044     1  0.0000000  0.6508444  3
   5042   5040   5043   5045     1  0.0000000  0.6508444  3
   5042   5040   5049   5050     1  0.0000000  0.6508444  3
   5042   5040   5049   5051     1  0.0000000  0.6508444  3
   5042   5040   5049   5053     1  0.0000000  0.6508444  3
   5043   5040   5049   5050     1  0.0000000  0.6508444  3
   5043   5040   5049   5051     1  0.0000000  0.6508444  3
   5043   5040   5049   5053     1  0.0000000  0.6508444  3
   5044   5043   5040   5049     1  0.0000000  0.6508444  3
   5044   5043   5046   5052     1  0.0000000  1.0460000  1
   5044   5043   5046   5052     1  0.0000000  0.0000000  3
   5044   5043   5046   5047     1  0.0000000  0.6508444  3
   5044   5043   5046   5048     1  0.0000000  0.6508444  3
   5045   5043   5040   5049     1  0.0000000  0.6508444  3
   5045   5043   5046   5052     1  0.0000000  1.0460000  1
   5045   5043   5046   5052     1  0.0000000  0.0000000  3
   5045   5043   5046   5047     1  0.0000000  0.6508444  3
   5045   5043   5046   5048     1  0.0000000  0.6508444  3
   5054   5057   5060   5061     1  0.0000000  0.6508444  3
   5054   5057   5060   5062     1  0.0000000  0.6508444  3
   5055   5054   5057   5060     1  0.0000000  0.6508444  3
   5055   5054   5057   5058     1  0.0000000  0.6508444  3
   5055   5054   5057   5059     1  0.0000000  0.6508444  3
   5055   5054   5063   5064     1  0.0000000  0.6508444  3
   5055   5054   5063   5065     1  0.0000000  0.6508444  3
   5055   5054   5063   5067     1  0.0000000  0.6508444  3
   5056   5054   5057   5060     1  0.0000000  0.6508444  3
   5056   5054   5057   5058     1  0.0000000  0.6508444  3
   5056   5054   5057   5059     1  0.0000000  0.6508444  3
   5056   5054   5063   5064     1  0.0000000  0.6508444  3
   5056   5054   5063   5065     1  0.0000000  0.6508444  3
   5056   5054   5063   5067     1  0.0000000  0.6508444  3
   5057   5054   5063   5064     1  0.0000000  0.6508444  3
   5057   5054   5063   5065     1  0.0000000  0.6508444  3
   5057   5054   5063   5067     1  0.0000000  0.6508444  3
   5058   5057   5060   5066     1  0.0000000  1.0460000  1
   5058   5057   5060   5066     1  0.0000000  0.0000000  3
   5058   5057   5060   5061     1  0.0000000  0.6508444  3
   5058   5057   5060   5062     1  0.0000000  0.6508444  3
   5058   5057   5054   5063     1  0.0000000  0.6508444  3
   5059   5057   5060   5066     1  0.0000000  1.0460000  1
   5059   5057   5060   5066     1  0.0000000  0.0000000  3
   5059   5057   5060   5061     1  0.0000000  0.6508444  3
   5059   5057   5060   5062     1  0.0000000  0.6508444  3
   5059   5057   5054   5063     1  0.0000000  0.6508444  3
   5068   5071   5074   5075     1  0.0000000  0.6508444  3
   5068   5071   5074   5076     1  0.0000000  0.6508444  3
   5069   5068   5071   5074     1  0.0000000  0.6508444  3
   5069   5068   5071   5072     1  0.0000000  0.6508444  3
   5069   5068   5071   5073     1  0.0000000  0.6508444  3
   5069   5068   5077   5078     1  0.0000000  0.6508444  3
   5069   5068   5077   5079     1  0.0000000  0.6508444  3
   5069   5068   5077   5081     1  0.0000000  0.6508444  3
   5070   5068   5071   5074     1  0.0000000  0.6508444  3
   5070   5068   5071   5072     1  0.0000000  0.6508444  3
   5070   5068   5071   5073     1  0.0000000  0.6508444  3
   5070   5068   5077   5078     1  0.0000000  0.6508444  3
   5070   5068   5077   5079     1  0.0000000  0.6508444  3
   5070   5068   5077   5081     1  0.0000000  0.6508444  3
   5071   5068   5077   5078     1  0.0000000  0.6508444  3
   5071   5068   5077   5079     1  0.0000000  0.6508444  3
   5071   5068   5077   5081     1  0.0000000  0.6508444  3
   5072   5071   5068   5077     1  0.0000000  0.6508444  3
   5072   5071   5074   5080     1  0.0000000  1.0460000  1
   5072   5071   5074   5080     1  0.0000000  0.0000000  3
   5072   5071   5074   5075     1  0.0000000  0.6508444  3
   5072   5071   5074   5076     1  0.0000000  0.6508444  3
   5073   5071   5068   5077     1  0.0000000  0.6508444  3
   5073   5071   5074   5080     1  0.0000000  1.0460000  1
   5073   5071   5074   5080     1  0.0000000  0.0000000  3
   5073   5071   5074   5075     1  0.0000000  0.6508444  3
   5073   5071   5074   5076     1  0.0000000  0.6508444  3
   5082   5085   5088   5089     1  0.0000000  0.6508444  3
   5082   5085   5088   5090     1  0.0000000  0.6508444  3
   5083   5082   5085   5088     1  0.0000000  0.6508444  3
   5083   5082   5085   5086     1  0.0000000  0.6508444  3
   5083   5082   5085   5087     1  0.0000000  0.6508444  3
   5083   5082   5091   5092     1  0.0000000  0.6508444  3
   5083   5082   5091   5093     1  0.0000000  0.6508444  3
   5083   5082   5091   5095     1  0.0000000  0.6508444  3
   5084   5082   5085   5088     1  0.0000000  0.6508444  3
   5084   5082   5085   5086     1  0.0000000  0.6508444  3
   5084   5082   5085   5087     1  0.0000000  0.6508444  3
   5084   5082   5091   5092     1  0.0000000  0.6508444  3
   5084   5082   5091   5093     1  0.0000000  0.6508444  3
   5084   5082   5091   5095     1  0.0000000  0.6508444  3
   5085   5082   5091   5092     1  0.0000000  0.6508444  3
   5085   5082   5091   5093     1  0.0000000  0.6508444  3
   5085   5082   5091   5095     1  0.0000000  0.6508444  3
   5086   5085   5088   5094     1  0.0000000  1.0460000  1
   5086   5085   5088   5094     1  0.0000000  0.0000000  3
   5086   5085   5088   5089     1  0.0000000  0.6508444  3
   5086   5085   5088   5090     1  0.0000000  0.6508444  3
   5086   5085   5082   5091     1  0.0000000  0.6508444  3
   5087   5085   5088   5094     1  0.0000000  1.0460000  1
   5087   5085   5088   5094     1  0.0000000  0.0000000  3
   5087   5085   5088   5089     1  0.0000000  0.6508444  3
   5087   5085   5088   5090     1  0.0000000  0.6508444  3
   5087   5085   5082   5091     1  0.0000000  0.6508444  3
   5096   5099   5102   5103     1  0.0000000  0.6508444  3
   5096   5099   5102   5104     1  0.0000000  0.6508444  3
   5097   5096   5099   5102     1  0.0000000  0.6508444  3
   5097   5096   5099   5100     1  0.0000000  0.6508444  3
   5097   5096   5099   5101     1  0.0000000  0.6508444  3
   5097   5096   5105   5106     1  0.0000000  0.6508444  3
   5097   5096   5105   5107     1  0.0000000  0.6508444  3
   5097   5096   5105   5109     1  0.0000000  0.6508444  3
   5098   5096   5099   5102     1  0.0000000  0.6508444  3
   5098   5096   5099   5100     1  0.0000000  0.6508444  3
   5098   5096   5099   5101     1  0.0000000  0.6508444  3
   5098   5096   5105   5106     1  0.0000000  0.6508444  3
   5098   5096   5105   5107     1  0.0000000  0.6508444  3
   5098   5096   5105   5109     1  0.0000000  0.6508444  3
   5099   5096   5105   5106     1  0.0000000  0.6508444  3
   5099   5096   5105   5107     1  0.0000000  0.6508444  3
   5099   5096   5105   5109     1  0.0000000  0.6508444  3
   5100   5099   5096   5105     1  0.0000000  0.6508444  3
   5100   5099   5102   5108     1  0.0000000  1.0460000  1
   5100   5099   5102   5108     1  0.0000000  0.0000000  3
   5100   5099   5102   5103     1  0.0000000  0.6508444  3
   5100   5099   5102   5104     1  0.0000000  0.6508444  3
   5101   5099   5096   5105     1  0.0000000  0.6508444  3
   5101   5099   5102   5108     1  0.0000000  1.0460000  1
   5101   5099   5102   5108     1  0.0000000  0.0000000  3
   5101   5099   5102   5103     1  0.0000000  0.6508444  3
   5101   5099   5102   5104     1  0.0000000  0.6508444  3
   5110   5113   5116   5117     1  0.0000000  0.6508444  3
   5110   5113   5116   5118     1  0.0000000  0.6508444  3
   5111   5110   5113   5116     1  0.0000000  0.6508444  3
   5111   5110   5113   5114     1  0.0000000  0.6508444  3
   5111   5110   5113   5115     1  0.0000000  0.6508444  3
   5111   5110   5119   5120     1  0.0000000  0.6508444  3
   5111   5110   5119   5121     1  0.0000000  0.6508444  3
   5111   5110   5119   5123     1  0.0000000  0.6508444  3
   5112   5110   5113   5116     1  0.0000000  0.6508444  3
   5112   5110   5113   5114     1  0.0000000  0.6508444  3
   5112   5110   5113   5115     1  0.0000000  0.6508444  3
   5112   5110   5119   5120     1  0.0000000  0.6508444  3
   5112   5110   5119   5121     1  0.0000000  0.6508444  3
   5112   5110   5119   5123     1  0.0000000  0.6508444  3
   5113   5110   5119   5120     1  0.0000000  0.6508444  3
   5113   5110   5119   5121     1  0.0000000  0.6508444  3
   5113   5110   5119   5123     1  0.0000000  0.6508444  3
   5114   5113   5116   5122     1  0.0000000  1.0460000  1
   5114   5113   5116   5122     1  0.0000000  0.0000000  3
   5114   5113   5116   5117     1  0.0000000  0.6508444  3
   5114   5113   5116   5118     1  0.0000000  0.6508444  3
   5114   5113   5110   5119     1  0.0000000  0.6508444  3
   5115   5113   5116   5122     1  0.0000000  1.0460000  1
   5115   5113   5116   5122     1  0.0000000  0.0000000  3
   5115   5113   5116   5117     1  0.0000000  0.6508444  3
   5115   5113   5116   5118     1  0.0000000  0.6508444  3
   5115   5113   5110   5119     1  0.0000000  0.6508444  3
   5124   5127   5130   5131     1  0.0000000  0.6508444  3
   5124   5127   5130   5132     1  0.0000000  0.6508444  3
   5125   5124   5127   5130     1  0.0000000  0.6508444  3
   5125   5124   5127   5128     1  0.0000000  0.6508444  3
   5125   5124   5127   5129     1  0.0000000  0.6508444  3
   5125   5124   5133   5134     1  0.0000000  0.6508444  3
   5125   5124   5133   5135     1  0.0000000  0.6508444  3
   5125   5124   5133   5137     1  0.0000000  0.6508444  3
   5126   5124   5127   5130     1  0.0000000  0.6508444  3
   5126   5124   5127   5128     1  0.0000000  0.6508444  3
   5126   5124   5127   5129     1  0.0000000  0.6508444  3
   5126   5124   5133   5134     1  0.0000000  0.6508444  3
   5126   5124   5133   5135     1  0.0000000  0.6508444  3
   5126   5124   5133   5137     1  0.0000000  0.6508444  3
   5127   5124   5133   5134     1  0.0000000  0.6508444  3
   5127   5124   5133   5135     1  0.0000000  0.6508444  3
   5127   5124   5133   5137     1  0.0000000  0.6508444  3
   5128   5127   5124   5133     1  0.0000000  0.6508444  3
   5128   5127   5130   5136     1  0.0000000  1.0460000  1
   5128   5127   5130   5136     1  0.0000000  0.0000000  3
   5128   5127   5130   5131     1  0.0000000  0.6508444  3
   5128   5127   5130   5132     1  0.0000000  0.6508444  3
   5129   5127   5124   5133     1  0.0000000  0.6508444  3
   5129   5127   5130   5136     1  0.0000000  1.0460000  1
   5129   5127   5130   5136     1  0.0000000  0.0000000  3
   5129   5127   5130   5131     1  0.0000000  0.6508444  3
   5129   5127   5130   5132     1  0.0000000  0.6508444  3
   5138   5141   5144   5145     1  0.0000000  0.6508444  3
   5138   5141   5144   5146     1  0.0000000  0.6508444  3
   5139   5138   5141   5144     1  0.0000000  0.6508444  3
   5139   5138   5141   5142     1  0.0000000  0.6508444  3
   5139   5138   5141   5143     1  0.0000000  0.6508444  3
   5139   5138   5147   5148     1  0.0000000  0.6508444  3
   5139   5138   5147   5149     1  0.0000000  0.6508444  3
   5139   5138   5147   5151     1  0.0000000  0.6508444  3
   5140   5138   5141   5144     1  0.0000000  0.6508444  3
   5140   5138   5141   5142     1  0.0000000  0.6508444  3
   5140   5138   5141   5143     1  0.0000000  0.6508444  3
   5140   5138   5147   5148     1  0.0000000  0.6508444  3
   5140   5138   5147   5149     1  0.0000000  0.6508444  3
   5140   5138   5147   5151     1  0.0000000  0.6508444  3
   5141   5138   5147   5148     1  0.0000000  0.6508444  3
   5141   5138   5147   5149     1  0.0000000  0.6508444  3
   5141   5138   5147   5151     1  0.0000000  0.6508444  3
   5142   5141   5144   5150     1  0.0000000  1.0460000  1
   5142   5141   5144   5150     1  0.0000000  0.0000000  3
   5142   5141   5144   5145     1  0.0000000  0.6508444  3
   5142   5141   5144   5146     1  0.0000000  0.6508444  3
   5142   5141   5138   5147     1  0.0000000  0.6508444  3
   5143   5141   5144   5150     1  0.0000000  1.0460000  1
   5143   5141   5144   5150     1  0.0000000  0.0000000  3
   5143   5141   5144   5145     1  0.0000000  0.6508444  3
   5143   5141   5144   5146     1  0.0000000  0.6508444  3
   5143   5141   5138   5147     1  0.0000000  0.6508444  3
   5152   5155   5158   5159     1  0.0000000  0.6508444  3
   5152   5155   5158   5160     1  0.0000000  0.6508444  3
   5153   5152   5155   5158     1  0.0000000  0.6508444  3
   5153   5152   5155   5156     1  0.0000000  0.6508444  3
   5153   5152   5155   5157     1  0.0000000  0.6508444  3
   5153   5152   5161   5162     1  0.0000000  0.6508444  3
   5153   5152   5161   5163     1  0.0000000  0.6508444  3
   5153   5152   5161   5165     1  0.0000000  0.6508444  3
   5154   5152   5155   5158     1  0.0000000  0.6508444  3
   5154   5152   5155   5156     1  0.0000000  0.6508444  3
   5154   5152   5155   5157     1  0.0000000  0.6508444  3
   5154   5152   5161   5162     1  0.0000000  0.6508444  3
   5154   5152   5161   5163     1  0.0000000  0.6508444  3
   5154   5152   5161   5165     1  0.0000000  0.6508444  3
   5155   5152   5161   5162     1  0.0000000  0.6508444  3
   5155   5152   5161   5163     1  0.0000000  0.6508444  3
   5155   5152   5161   5165     1  0.0000000  0.6508444  3
   5156   5155   5152   5161     1  0.0000000  0.6508444  3
   5156   5155   5158   5164     1  0.0000000  1.0460000  1
   5156   5155   5158   5164     1  0.0000000  0.0000000  3
   5156   5155   5158   5159     1  0.0000000  0.6508444  3
   5156   5155   5158   5160     1  0.0000000  0.6508444  3
   5157   5155   5152   5161     1  0.0000000  0.6508444  3
   5157   5155   5158   5164     1  0.0000000  1.0460000  1
   5157   5155   5158   5164     1  0.0000000  0.0000000  3
   5157   5155   5158   5159     1  0.0000000  0.6508444  3
   5157   5155   5158   5160     1  0.0000000  0.6508444  3
   5166   5169   5172   5173     1  0.0000000  0.6508444  3
   5166   5169   5172   5174     1  0.0000000  0.6508444  3
   5167   5166   5169   5172     1  0.0000000  0.6508444  3
   5167   5166   5169   5170     1  0.0000000  0.6508444  3
   5167   5166   5169   5171     1  0.0000000  0.6508444  3
   5167   5166   5175   5176     1  0.0000000  0.6508444  3
   5167   5166   5175   5177     1  0.0000000  0.6508444  3
   5167   5166   5175   5179     1  0.0000000  0.6508444  3
   5168   5166   5169   5172     1  0.0000000  0.6508444  3
   5168   5166   5169   5170     1  0.0000000  0.6508444  3
   5168   5166   5169   5171     1  0.0000000  0.6508444  3
   5168   5166   5175   5176     1  0.0000000  0.6508444  3
   5168   5166   5175   5177     1  0.0000000  0.6508444  3
   5168   5166   5175   5179     1  0.0000000  0.6508444  3
   5169   5166   5175   5176     1  0.0000000  0.6508444  3
   5169   5166   5175   5177     1  0.0000000  0.6508444  3
   5169   5166   5175   5179     1  0.0000000  0.6508444  3
   5170   5169   5172   5178     1  0.0000000  1.0460000  1
   5170   5169   5172   5178     1  0.0000000  0.0000000  3
   5170   5169   5172   5173     1  0.0000000  0.6508444  3
   5170   5169   5172   5174     1  0.0000000  0.6508444  3
   5170   5169   5166   5175     1  0.0000000  0.6508444  3
   5171   5169   5172   5178     1  0.0000000  1.0460000  1
   5171   5169   5172   5178     1  0.0000000  0.0000000  3
   5171   5169   5172   5173     1  0.0000000  0.6508444  3
   5171   5169   5172   5174     1  0.0000000  0.6508444  3
   5171   5169   5166   5175     1  0.0000000  0.6508444  3
   5180   5183   5186   5187     1  0.0000000  0.6508444  3
   5180   5183   5186   5188     1  0.0000000  0.6508444  3
   5181   5180   5183   5186     1  0.0000000  0.6508444  3
   5181   5180   5183   5184     1  0.0000000  0.6508444  3
   5181   5180   5183   5185     1  0.0000000  0.6508444  3
   5181   5180   5189   5190     1  0.0000000  0.6508444  3
   5181   5180   5189   5191     1  0.0000000  0.6508444  3
   5181   5180   5189   5193     1  0.0000000  0.6508444  3
   5182   5180   5183   5186     1  0.0000000  0.6508444  3
   5182   5180   5183   5184     1  0.0000000  0.6508444  3
   5182   5180   5183   5185     1  0.0000000  0.6508444  3
   5182   5180   5189   5190     1  0.0000000  0.6508444  3
   5182   5180   5189   5191     1  0.0000000  0.6508444  3
   5182   5180   5189   5193     1  0.0000000  0.6508444  3
   5183   5180   5189   5190     1  0.0000000  0.6508444  3
   5183   5180   5189   5191     1  0.0000000  0.6508444  3
   5183   5180   5189   5193     1  0.0000000  0.6508444  3
   5184   5183   5180   5189     1  0.0000000  0.6508444  3
   5184   5183   5186   5192     1  0.0000000  1.0460000  1
   5184   5183   5186   5192     1  0.0000000  0.0000000  3
   5184   5183   5186   5187     1  0.0000000  0.6508444  3
   5184   5183   5186   5188     1  0.0000000  0.6508444  3
   5185   5183   5180   5189     1  0.0000000  0.6508444  3
   5185   5183   5186   5192     1  0.0000000  1.0460000  1
   5185   5183   5186   5192     1  0.0000000  0.0000000  3
   5185   5183   5186   5187     1  0.0000000  0.6508444  3
   5185   5183   5186   5188     1  0.0000000  0.6508444  3
   5194   5197   5200   5201     1  0.0000000  0.6508444  3
   5194   5197   5200   5202     1  0.0000000  0.6508444  3
   5195   5194   5197   5200     1  0.0000000  0.6508444  3
   5195   5194   5197   5198     1  0.0000000  0.6508444  3
   5195   5194   5197   5199     1  0.0000000  0.6508444  3
   5195   5194   5203   5204     1  0.0000000  0.6508444  3
   5195   5194   5203   5205     1  0.0000000  0.6508444  3
   5195   5194   5203   5207     1  0.0000000  0.6508444  3
   5196   5194   5197   5200     1  0.0000000  0.6508444  3
   5196   5194   5197   5198     1  0.0000000  0.6508444  3
   5196   5194   5197   5199     1  0.0000000  0.6508444  3
   5196   5194   5203   5204     1  0.0000000  0.6508444  3
   5196   5194   5203   5205     1  0.0000000  0.6508444  3
   5196   5194   5203   5207     1  0.0000000  0.6508444  3
   5197   5194   5203   5204     1  0.0000000  0.6508444  3
   5197   5194   5203   5205     1  0.0000000  0.6508444  3
   5197   5194   5203   5207     1  0.0000000  0.6508444  3
   5198   5197   5200   5206     1  0.0000000  1.0460000  1
   5198   5197   5200   5206     1  0.0000000  0.0000000  3
   5198   5197   5200   5201     1  0.0000000  0.6508444  3
   5198   5197   5200   5202     1  0.0000000  0.6508444  3
   5198   5197   5194   5203     1  0.0000000  0.6508444  3
   5199   5197   5200   5206     1  0.0000000  1.0460000  1
   5199   5197   5200   5206     1  0.0000000  0.0000000  3
   5199   5197   5200   5201     1  0.0000000  0.6508444  3
   5199   5197   5200   5202     1  0.0000000  0.6508444  3
   5199   5197   5194   5203     1  0.0000000  0.6508444  3
   5208   5211   5214   5215     1  0.0000000  0.6508444  3
   5208   5211   5214   5216     1  0.0000000  0.6508444  3
   5209   5208   5211   5214     1  0.0000000  0.6508444  3
   5209   5208   5211   5212     1  0.0000000  0.6508444  3
   5209   5208   5211   5213     1  0.0000000  0.6508444  3
   5209   5208   5217   5218     1  0.0000000  0.6508444  3
   5209   5208   5217   5219     1  0.0000000  0.6508444  3
   5209   5208   5217   5221     1  0.0000000  0.6508444  3
   5210   5208   5211   5214     1  0.0000000  0.6508444  3
   5210   5208   5211   5212     1  0.0000000  0.6508444  3
   5210   5208   5211   5213     1  0.0000000  0.6508444  3
   5210   5208   5217   5218     1  0.0000000  0.6508444  3
   5210   5208   5217   5219     1  0.0000000  0.6508444  3
   5210   5208   5217   5221     1  0.0000000  0.6508444  3
   5211   5208   5217   5218     1  0.0000000  0.6508444  3
   5211   5208   5217   5219     1  0.0000000  0.6508444  3
   5211   5208   5217   5221     1  0.0000000  0.6508444  3
   5212   5211   5208   5217     1  0.0000000  0.6508444  3
   5212   5211   5214   5220     1  0.0000000  1.0460000  1
   5212   5211   5214   5220     1  0.0000000  0.0000000  3
   5212   5211   5214   5215     1  0.0000000  0.6508444  3
   5212   5211   5214   5216     1  0.0000000  0.6508444  3
   5213   5211   5208   5217     1  0.0000000  0.6508444  3
   5213   5211   5214   5220     1  0.0000000  1.0460000  1
   5213   5211   5214   5220     1  0.0000000  0.0000000  3
   5213   5211   5214   5215     1  0.0000000  0.6508444  3
   5213   5211   5214   5216     1  0.0000000  0.6508444  3
   5222   5225   5228   5229     1  0.0000000  0.6508444  3
   5222   5225   5228   5230     1  0.0000000  0.6508444  3
   5223   5222   5225   5228     1  0.0000000  0.6508444  3
   5223   5222   5225   5226     1  0.0000000  0.6508444  3
   5223   5222   5225   5227     1  0.0000000  0.6508444  3
   5223   5222   5231   5232     1  0.0000000  0.6508444  3
   5223   5222   5231   5233     1  0.0000000  0.6508444  3
   5223   5222   5231   5235     1  0.0000000  0.6508444  3
   5224   5222   5225   5228     1  0.0000000  0.6508444  3
   5224   5222   5225   5226     1  0.0000000  0.6508444  3
   5224   5222   5225   5227     1  0.0000000  0.6508444  3
   5224   5222   5231   5232     1  0.0000000  0.6508444  3
   5224   5222   5231   5233     1  0.0000000  0.6508444  3
   5224   5222   5231   5235     1  0.0000000  0.6508444  3
   5225   5222   5231   5232     1  0.0000000  0.6508444  3
   5225   5222   5231   5233     1  0.0000000  0.6508444  3
   5225   5222   5231   5235     1  0.0000000  0.6508444  3
   5226   5225   5228   5234     1  0.0000000  1.0460000  1
   5226   5225   5228   5234     1  0.0000000  0.0000000  3
   5226   5225   5228   5229     1  0.0000000  0.6508444  3
   5226   5225   5228   5230     1  0.0000000  0.6508444  3
   5226   5225   5222   5231     1  0.0000000  0.6508444  3
   5227   5225   5228   5234     1  0.0000000  1.0460000  1
   5227   5225   5228   5234     1  0.0000000  0.0000000  3
   5227   5225   5228   5229     1  0.0000000  0.6508444  3
   5227   5225   5228   5230     1  0.0000000  0.6508444  3
   5227   5225   5222   5231     1  0.0000000  0.6508444  3
   5236   5239   5242   5243     1  0.0000000  0.6508444  3
   5236   5239   5242   5244     1  0.0000000  0.6508444  3
   5237   5236   5239   5242     1  0.0000000  0.6508444  3
   5237   5236   5239   5240     1  0.0000000  0.6508444  3
   5237   5236   5239   5241     1  0.0000000  0.6508444  3
   5237   5236   5245   5246     1  0.0000000  0.6508444  3
   5237   5236   5245   5247     1  0.0000000  0.6508444  3
   5237   5236   5245   5249     1  0.0000000  0.6508444  3
   5238   5236   5239   5242     1  0.0000000  0.6508444  3
   5238   5236   5239   5240     1  0.0000000  0.6508444  3
   5238   5236   5239   5241     1  0.0000000  0.6508444  3
   5238   5236   5245   5246     1  0.0000000  0.6508444  3
   5238   5236   5245   5247     1  0.0000000  0.6508444  3
   5238   5236   5245   5249     1  0.0000000  0.6508444  3
   5239   5236   5245   5246     1  0.0000000  0.6508444  3
   5239   5236   5245   5247     1  0.0000000  0.6508444  3
   5239   5236   5245   5249     1  0.0000000  0.6508444  3
   5240   5239   5236   5245     1  0.0000000  0.6508444  3
   5240   5239   5242   5248     1  0.0000000  1.0460000  1
   5240   5239   5242   5248     1  0.0000000  0.0000000  3
   5240   5239   5242   5243     1  0.0000000  0.6508444  3
   5240   5239   5242   5244     1  0.0000000  0.6508444  3
   5241   5239   5236   5245     1  0.0000000  0.6508444  3
   5241   5239   5242   5248     1  0.0000000  1.0460000  1
   5241   5239   5242   5248     1  0.0000000  0.0000000  3
   5241   5239   5242   5243     1  0.0000000  0.6508444  3
   5241   5239   5242   5244     1  0.0000000  0.6508444  3
   5250   5253   5256   5257     1  0.0000000  0.6508444  3
   5250   5253   5256   5258     1  0.0000000  0.6508444  3
   5251   5250   5253   5256     1  0.0000000  0.6508444  3
   5251   5250   5253   5254     1  0.0000000  0.6508444  3
   5251   5250   5253   5255     1  0.0000000  0.6508444  3
   5251   5250   5259   5260     1  0.0000000  0.6508444  3
   5251   5250   5259   5261     1  0.0000000  0.6508444  3
   5251   5250   5259   5263     1  0.0000000  0.6508444  3
   5252   5250   5253   5256     1  0.0000000  0.6508444  3
   5252   5250   5253   5254     1  0.0000000  0.6508444  3
   5252   5250   5253   5255     1  0.0000000  0.6508444  3
   5252   5250   5259   5260     1  0.0000000  0.6508444  3
   5252   5250   5259   5261     1  0.0000000  0.6508444  3
   5252   5250   5259   5263     1  0.0000000  0.6508444  3
   5253   5250   5259   5260     1  0.0000000  0.6508444  3
   5253   5250   5259   5261     1  0.0000000  0.6508444  3
   5253   5250   5259   5263     1  0.0000000  0.6508444  3
   5254   5253   5256   5262     1  0.0000000  1.0460000  1
   5254   5253   5256   5262     1  0.0000000  0.0000000  3
   5254   5253   5256   5257     1  0.0000000  0.6508444  3
   5254   5253   5256   5258     1  0.0000000  0.6508444  3
   5254   5253   5250   5259     1  0.0000000  0.6508444  3
   5255   5253   5256   5262     1  0.0000000  1.0460000  1
   5255   5253   5256   5262     1  0.0000000  0.0000000  3
   5255   5253   5256   5257     1  0.0000000  0.6508444  3
   5255   5253   5256   5258     1  0.0000000  0.6508444  3
   5255   5253   5250   5259     1  0.0000000  0.6508444  3
   5264   5267   5270   5271     1  0.0000000  0.6508444  3
   5264   5267   5270   5272     1  0.0000000  0.6508444  3
   5265   5264   5267   5270     1  0.0000000  0.6508444  3
   5265   5264   5267   5268     1  0.0000000  0.6508444  3
   5265   5264   5267   5269     1  0.0000000  0.6508444  3
   5265   5264   5273   5274     1  0.0000000  0.6508444  3
   5265   5264   5273   5275     1  0.0000000  0.6508444  3
   5265   5264   5273   5277     1  0.0000000  0.6508444  3
   5266   5264   5267   5270     1  0.0000000  0.6508444  3
   5266   5264   5267   5268     1  0.0000000  0.6508444  3
   5266   5264   5267   5269     1  0.0000000  0.6508444  3
   5266   5264   5273   5274     1  0.0000000  0.6508444  3
   5266   5264   5273   5275     1  0.0000000  0.6508444  3
   5266   5264   5273   5277     1  0.0000000  0.6508444  3
   5267   5264   5273   5274     1  0.0000000  0.6508444  3
   5267   5264   5273   5275     1  0.0000000  0.6508444  3
   5267   5264   5273   5277     1  0.0000000  0.6508444  3
   5268   5267   5264   5273     1  0.0000000  0.6508444  3
   5268   5267   5270   5276     1  0.0000000  1.0460000  1
   5268   5267   5270   5276     1  0.0000000  0.0000000  3
   5268   5267   5270   5271     1  0.0000000  0.6508444  3
   5268   5267   5270   5272     1  0.0000000  0.6508444  3
   5269   5267   5264   5273     1  0.0000000  0.6508444  3
   5269   5267   5270   5276     1  0.0000000  1.0460000  1
   5269   5267   5270   5276     1  0.0000000  0.0000000  3
   5269   5267   5270   5271     1  0.0000000  0.6508444  3
   5269   5267   5270   5272     1  0.0000000  0.6508444  3
   5278   5281   5284   5285     1  0.0000000  0.6508444  3
   5278   5281   5284   5286     1  0.0000000  0.6508444  3
   5279   5278   5281   5284     1  0.0000000  0.6508444  3
   5279   5278   5281   5282     1  0.0000000  0.6508444  3
   5279   5278   5281   5283     1  0.0000000  0.6508444  3
   5279   5278   5287   5288     1  0.0000000  0.6508444  3
   5279   5278   5287   5289     1  0.0000000  0.6508444  3
   5279   5278   5287   5291     1  0.0000000  0.6508444  3
   5280   5278   5281   5284     1  0.0000000  0.6508444  3
   5280   5278   5281   5282     1  0.0000000  0.6508444  3
   5280   5278   5281   5283     1  0.0000000  0.6508444  3
   5280   5278   5287   5288     1  0.0000000  0.6508444  3
   5280   5278   5287   5289     1  0.0000000  0.6508444  3
   5280   5278   5287   5291     1  0.0000000  0.6508444  3
   5281   5278   5287   5288     1  0.0000000  0.6508444  3
   5281   5278   5287   5289     1  0.0000000  0.6508444  3
   5281   5278   5287   5291     1  0.0000000  0.6508444  3
   5282   5281   5284   5290     1  0.0000000  1.0460000  1
   5282   5281   5284   5290     1  0.0000000  0.0000000  3
   5282   5281   5284   5285     1  0.0000000  0.6508444  3
   5282   5281   5284   5286     1  0.0000000  0.6508444  3
   5282   5281   5278   5287     1  0.0000000  0.6508444  3
   5283   5281   5284   5290     1  0.0000000  1.0460000  1
   5283   5281   5284   5290     1  0.0000000  0.0000000  3
   5283   5281   5284   5285     1  0.0000000  0.6508444  3
   5283   5281   5284   5286     1  0.0000000  0.6508444  3
   5283   5281   5278   5287     1  0.0000000  0.6508444  3
   5292   5295   5298   5299     1  0.0000000  0.6508444  3
   5292   5295   5298   5300     1  0.0000000  0.6508444  3
   5293   5292   5295   5298     1  0.0000000  0.6508444  3
   5293   5292   5295   5296     1  0.0000000  0.6508444  3
   5293   5292   5295   5297     1  0.0000000  0.6508444  3
   5293   5292   5301   5302     1  0.0000000  0.6508444  3
   5293   5292   5301   5303     1  0.0000000  0.6508444  3
   5293   5292   5301   5305     1  0.0000000  0.6508444  3
   5294   5292   5295   5298     1  0.0000000  0.6508444  3
   5294   5292   5295   5296     1  0.0000000  0.6508444  3
   5294   5292   5295   5297     1  0.0000000  0.6508444  3
   5294   5292   5301   5302     1  0.0000000  0.6508444  3
   5294   5292   5301   5303     1  0.0000000  0.6508444  3
   5294   5292   5301   5305     1  0.0000000  0.6508444  3
   5295   5292   5301   5302     1  0.0000000  0.6508444  3
   5295   5292   5301   5303     1  0.0000000  0.6508444  3
   5295   5292   5301   5305     1  0.0000000  0.6508444  3
   5296   5295   5292   5301     1  0.0000000  0.6508444  3
   5296   5295   5298   5304     1  0.0000000  1.0460000  1
   5296   5295   5298   5304     1  0.0000000  0.0000000  3
   5296   5295   5298   5299     1  0.0000000  0.6508444  3
   5296   5295   5298   5300     1  0.0000000  0.6508444  3
   5297   5295   5292   5301     1  0.0000000  0.6508444  3
   5297   5295   5298   5304     1  0.0000000  1.0460000  1
   5297   5295   5298   5304     1  0.0000000  0.0000000  3
   5297   5295   5298   5299     1  0.0000000  0.6508444  3
   5297   5295   5298   5300     1  0.0000000  0.6508444  3
   5306   5309   5312   5313     1  0.0000000  0.6508444  3
   5306   5309   5312   5314     1  0.0000000  0.6508444  3
   5307   5306   5309   5312     1  0.0000000  0.6508444  3
   5307   5306   5309   5310     1  0.0000000  0.6508444  3
   5307   5306   5309   5311     1  0.0000000  0.6508444  3
   5307   5306   5315   5316     1  0.0000000  0.6508444  3
   5307   5306   5315   5317     1  0.0000000  0.6508444  3
   5307   5306   5315   5319     1  0.0000000  0.6508444  3
   5308   5306   5309   5312     1  0.0000000  0.6508444  3
   5308   5306   5309   5310     1  0.0000000  0.6508444  3
   5308   5306   5309   5311     1  0.0000000  0.6508444  3
   5308   5306   5315   5316     1  0.0000000  0.6508444  3
   5308   5306   5315   5317     1  0.0000000  0.6508444  3
   5308   5306   5315   5319     1  0.0000000  0.6508444  3
   5309   5306   5315   5316     1  0.0000000  0.6508444  3
   5309   5306   5315   5317     1  0.0000000  0.6508444  3
   5309   5306   5315   5319     1  0.0000000  0.6508444  3
   5310   5309   5312   5318     1  0.0000000  1.0460000  1
   5310   5309   5312   5318     1  0.0000000  0.0000000  3
   5310   5309   5312   5313     1  0.0000000  0.6508444  3
   5310   5309   5312   5314     1  0.0000000  0.6508444  3
   5310   5309   5306   5315     1  0.0000000  0.6508444  3
   5311   5309   5312   5318     1  0.0000000  1.0460000  1
   5311   5309   5312   5318     1  0.0000000  0.0000000  3
   5311   5309   5312   5313     1  0.0000000  0.6508444  3
   5311   5309   5312   5314     1  0.0000000  0.6508444  3
   5311   5309   5306   5315     1  0.0000000  0.6508444  3
   5320   5323   5326   5327     1  0.0000000  0.6508444  3
   5320   5323   5326   5328     1  0.0000000  0.6508444  3
   5321   5320   5323   5326     1  0.0000000  0.6508444  3
   5321   5320   5323   5324     1  0.0000000  0.6508444  3
   5321   5320   5323   5325     1  0.0000000  0.6508444  3
   5321   5320   5329   5330     1  0.0000000  0.6508444  3
   5321   5320   5329   5331     1  0.0000000  0.6508444  3
   5321   5320   5329   5333     1  0.0000000  0.6508444  3
   5322   5320   5323   5326     1  0.0000000  0.6508444  3
   5322   5320   5323   5324     1  0.0000000  0.6508444  3
   5322   5320   5323   5325     1  0.0000000  0.6508444  3
   5322   5320   5329   5330     1  0.0000000  0.6508444  3
   5322   5320   5329   5331     1  0.0000000  0.6508444  3
   5322   5320   5329   5333     1  0.0000000  0.6508444  3
   5323   5320   5329   5330     1  0.0000000  0.6508444  3
   5323   5320   5329   5331     1  0.0000000  0.6508444  3
   5323   5320   5329   5333     1  0.0000000  0.6508444  3
   5324   5323   5320   5329     1  0.0000000  0.6508444  3
   5324   5323   5326   5332     1  0.0000000  1.0460000  1
   5324   5323   5326   5332     1  0.0000000  0.0000000  3
   5324   5323   5326   5327     1  0.0000000  0.6508444  3
   5324   5323   5326   5328     1  0.0000000  0.6508444  3
   5325   5323   5320   5329     1  0.0000000  0.6508444  3
   5325   5323   5326   5332     1  0.0000000  1.0460000  1
   5325   5323   5326   5332     1  0.0000000  0.0000000  3
   5325   5323   5326   5327     1  0.0000000  0.6508444  3
   5325   5323   5326   5328     1  0.0000000  0.6508444  3
   5334   5337   5340   5341     1  0.0000000  0.6508444  3
   5334   5337   5340   5342     1  0.0000000  0.6508444  3
   5335   5334   5337   5340     1  0.0000000  0.6508444  3
   5335   5334   5337   5338     1  0.0000000  0.6508444  3
   5335   5334   5337   5339     1  0.0000000  0.6508444  3
   5335   5334   5343   5344     1  0.0000000  0.6508444  3
   5335   5334   5343   5345     1  0.0000000  0.6508444  3
   5335   5334   5343   5347     1  0.0000000  0.6508444  3
   5336   5334   5337   5340     1  0.0000000  0.6508444  3
   5336   5334   5337   5338     1  0.0000000  0.6508444  3
   5336   5334   5337   5339     1  0.0000000  0.6508444  3
   5336   5334   5343   5344     1  0.0000000  0.6508444  3
   5336   5334   5343   5345     1  0.0000000  0.6508444  3
   5336   5334   5343   5347     1  0.0000000  0.6508444  3
   5337   5334   5343   5344     1  0.0000000  0.6508444  3
   5337   5334   5343   5345     1  0.0000000  0.6508444  3
   5337   5334   5343   5347     1  0.0000000  0.6508444  3
   5338   5337   5340   5346     1  0.0000000  1.0460000  1
   5338   5337   5340   5346     1  0.0000000  0.0000000  3
   5338   5337   5340   5341     1  0.0000000  0.6508444  3
   5338   5337   5340   5342     1  0.0000000  0.6508444  3
   5338   5337   5334   5343     1  0.0000000  0.6508444  3
   5339   5337   5340   5346     1  0.0000000  1.0460000  1
   5339   5337   5340   5346     1  0.0000000  0.0000000  3
   5339   5337   5340   5341     1  0.0000000  0.6508444  3
   5339   5337   5340   5342     1  0.0000000  0.6508444  3
   5339   5337   5334   5343     1  0.0000000  0.6508444  3
   5348   5351   5354   5355     1  0.0000000  0.6508444  3
   5348   5351   5354   5356     1  0.0000000  0.6508444  3
   5349   5348   5351   5354     1  0.0000000  0.6508444  3
   5349   5348   5351   5352     1  0.0000000  0.6508444  3
   5349   5348   5351   5353     1  0.0000000  0.6508444  3
   5349   5348   5357   5358     1  0.0000000  0.6508444  3
   5349   5348   5357   5359     1  0.0000000  0.6508444  3
   5349   5348   5357   5361     1  0.0000000  0.6508444  3
   5350   5348   5351   5354     1  0.0000000  0.6508444  3
   5350   5348   5351   5352     1  0.0000000  0.6508444  3
   5350   5348   5351   5353     1  0.0000000  0.6508444  3
   5350   5348   5357   5358     1  0.0000000  0.6508444  3
   5350   5348   5357   5359     1  0.0000000  0.6508444  3
   5350   5348   5357   5361     1  0.0000000  0.6508444  3
   5351   5348   5357   5358     1  0.0000000  0.6508444  3
   5351   5348   5357   5359     1  0.0000000  0.6508444  3
   5351   5348   5357   5361     1  0.0000000  0.6508444  3
   5352   5351   5348   5357     1  0.0000000  0.6508444  3
   5352   5351   5354   5360     1  0.0000000  1.0460000  1
   5352   5351   5354   5360     1  0.0000000  0.0000000  3
   5352   5351   5354   5355     1  0.0000000  0.6508444  3
   5352   5351   5354   5356     1  0.0000000  0.6508444  3
   5353   5351   5348   5357     1  0.0000000  0.6508444  3
   5353   5351   5354   5360     1  0.0000000  1.0460000  1
   5353   5351   5354   5360     1  0.0000000  0.0000000  3
   5353   5351   5354   5355     1  0.0000000  0.6508444  3
   5353   5351   5354   5356     1  0.0000000  0.6508444  3
   5362   5365   5368   5369     1  0.0000000  0.6508444  3
   5362   5365   5368   5370     1  0.0000000  0.6508444  3
   5363   5362   5365   5368     1  0.0000000  0.6508444  3
   5363   5362   5365   5366     1  0.0000000  0.6508444  3
   5363   5362   5365   5367     1  0.0000000  0.6508444  3
   5363   5362   5371   5372     1  0.0000000  0.6508444  3
   5363   5362   5371   5373     1  0.0000000  0.6508444  3
   5363   5362   5371   5375     1  0.0000000  0.6508444  3
   5364   5362   5365   5368     1  0.0000000  0.6508444  3
   5364   5362   5365   5366     1  0.0000000  0.6508444  3
   5364   5362   5365   5367     1  0.0000000  0.6508444  3
   5364   5362   5371   5372     1  0.0000000  0.6508444  3
   5364   5362   5371   5373     1  0.0000000  0.6508444  3
   5364   5362   5371   5375     1  0.0000000  0.6508444  3
   5365   5362   5371   5372     1  0.0000000  0.6508444  3
   5365   5362   5371   5373     1  0.0000000  0.6508444  3
   5365   5362   5371   5375     1  0.0000000  0.6508444  3
   5366   5365   5368   5374     1  0.0000000  1.0460000  1
   5366   5365   5368   5374     1  0.0000000  0.0000000  3
   5366   5365   5368   5369     1  0.0000000  0.6508444  3
   5366   5365   5368   5370     1  0.0000000  0.6508444  3
   5366   5365   5362   5371     1  0.0000000  0.6508444  3
   5367   5365   5368   5374     1  0.0000000  1.0460000  1
   5367   5365   5368   5374     1  0.0000000  0.0000000  3
   5367   5365   5368   5369     1  0.0000000  0.6508444  3
   5367   5365   5368   5370     1  0.0000000  0.6508444  3
   5367   5365   5362   5371     1  0.0000000  0.6508444  3
   5376   5379   5382   5383     1  0.0000000  0.6508444  3
   5376   5379   5382   5384     1  0.0000000  0.6508444  3
   5377   5376   5379   5382     1  0.0000000  0.6508444  3
   5377   5376   5379   5380     1  0.0000000  0.6508444  3
   5377   5376   5379   5381     1  0.0000000  0.6508444  3
   5377   5376   5385   5386     1  0.0000000  0.6508444  3
   5377   5376   5385   5387     1  0.0000000  0.6508444  3
   5377   5376   5385   5389     1  0.0000000  0.6508444  3
   5378   5376   5379   5382     1  0.0000000  0.6508444  3
   5378   5376   5379   5380     1  0.0000000  0.6508444  3
   5378   5376   5379   5381     1  0.0000000  0.6508444  3
   5378   5376   5385   5386     1  0.0000000  0.6508444  3
   5378   5376   5385   5387     1  0.0000000  0.6508444  3
   5378   5376   5385   5389     1  0.0000000  0.6508444  3
   5379   5376   5385   5386     1  0.0000000  0.6508444  3
   5379   5376   5385   5387     1  0.0000000  0.6508444  3
   5379   5376   5385   5389     1  0.0000000  0.6508444  3
   5380   5379   5376   5385     1  0.0000000  0.6508444  3
   5380   5379   5382   5388     1  0.0000000  1.0460000  1
   5380   5379   5382   5388     1  0.0000000  0.0000000  3
   5380   5379   5382   5383     1  0.0000000  0.6508444  3
   5380   5379   5382   5384     1  0.0000000  0.6508444  3
   5381   5379   5376   5385     1  0.0000000  0.6508444  3
   5381   5379   5382   5388     1  0.0000000  1.0460000  1
   5381   5379   5382   5388     1  0.0000000  0.0000000  3
   5381   5379   5382   5383     1  0.0000000  0.6508444  3
   5381   5379   5382   5384     1  0.0000000  0.6508444  3
   5390   5393   5396   5397     1  0.0000000  0.6508444  3
   5390   5393   5396   5398     1  0.0000000  0.6508444  3
   5391   5390   5393   5396     1  0.0000000  0.6508444  3
   5391   5390   5393   5394     1  0.0000000  0.6508444  3
   5391   5390   5393   5395     1  0.0000000  0.6508444  3
   5391   5390   5399   5400     1  0.0000000  0.6508444  3
   5391   5390   5399   5401     1  0.0000000  0.6508444  3
   5391   5390   5399   5403     1  0.0000000  0.6508444  3
   5392   5390   5393   5396     1  0.0000000  0.6508444  3
   5392   5390   5393   5394     1  0.0000000  0.6508444  3
   5392   5390   5393   5395     1  0.0000000  0.6508444  3
   5392   5390   5399   5400     1  0.0000000  0.6508444  3
   5392   5390   5399   5401     1  0.0000000  0.6508444  3
   5392   5390   5399   5403     1  0.0000000  0.6508444  3
   5393   5390   5399   5400     1  0.0000000  0.6508444  3
   5393   5390   5399   5401     1  0.0000000  0.6508444  3
   5393   5390   5399   5403     1  0.0000000  0.6508444  3
   5394   5393   5396   5402     1  0.0000000  1.0460000  1
   5394   5393   5396   5402     1  0.0000000  0.0000000  3
   5394   5393   5396   5397     1  0.0000000  0.6508444  3
   5394   5393   5396   5398     1  0.0000000  0.6508444  3
   5394   5393   5390   5399     1  0.0000000  0.6508444  3
   5395   5393   5396   5402     1  0.0000000  1.0460000  1
   5395   5393   5396   5402     1  0.0000000  0.0000000  3
   5395   5393   5396   5397     1  0.0000000  0.6508444  3
   5395   5393   5396   5398     1  0.0000000  0.6508444  3
   5395   5393   5390   5399     1  0.0000000  0.6508444  3
   5404   5407   5410   5411     1  0.0000000  0.6508444  3
   5404   5407   5410   5412     1  0.0000000  0.6508444  3
   5405   5404   5407   5410     1  0.0000000  0.6508444  3
   5405   5404   5407   5408     1  0.0000000  0.6508444  3
   5405   5404   5407   5409     1  0.0000000  0.6508444  3
   5405   5404   5413   5414     1  0.0000000  0.6508444  3
   5405   5404   5413   5415     1  0.0000000  0.6508444  3
   5405   5404   5413   5417     1  0.0000000  0.6508444  3
   5406   5404   5407   5410     1  0.0000000  0.6508444  3
   5406   5404   5407   5408     1  0.0000000  0.6508444  3
   5406   5404   5407   5409     1  0.0000000  0.6508444  3
   5406   5404   5413   5414     1  0.0000000  0.6508444  3
   5406   5404   5413   5415     1  0.0000000  0.6508444  3
   5406   5404   5413   5417     1  0.0000000  0.6508444  3
   5407   5404   5413   5414     1  0.0000000  0.6508444  3
   5407   5404   5413   5415     1  0.0000000  0.6508444  3
   5407   5404   5413   5417     1  0.0000000  0.6508444  3
   5408   5407   5404   5413     1  0.0000000  0.6508444  3
   5408   5407   5410   5416     1  0.0000000  1.0460000  1
   5408   5407   5410   5416     1  0.0000000  0.0000000  3
   5408   5407   5410   5411     1  0.0000000  0.6508444  3
   5408   5407   5410   5412     1  0.0000000  0.6508444  3
   5409   5407   5404   5413     1  0.0000000  0.6508444  3
   5409   5407   5410   5416     1  0.0000000  1.0460000  1
   5409   5407   5410   5416     1  0.0000000  0.0000000  3
   5409   5407   5410   5411     1  0.0000000  0.6508444  3
   5409   5407   5410   5412     1  0.0000000  0.6508444  3
   5418   5421   5424   5425     1  0.0000000  0.6508444  3
   5418   5421   5424   5426     1  0.0000000  0.6508444  3
   5419   5418   5421   5424     1  0.0000000  0.6508444  3
   5419   5418   5421   5422     1  0.0000000  0.6508444  3
   5419   5418   5421   5423     1  0.0000000  0.6508444  3
   5419   5418   5427   5428     1  0.0000000  0.6508444  3
   5419   5418   5427   5429     1  0.0000000  0.6508444  3
   5419   5418   5427   5431     1  0.0000000  0.6508444  3
   5420   5418   5421   5424     1  0.0000000  0.6508444  3
   5420   5418   5421   5422     1  0.0000000  0.6508444  3
   5420   5418   5421   5423     1  0.0000000  0.6508444  3
   5420   5418   5427   5428     1  0.0000000  0.6508444  3
   5420   5418   5427   5429     1  0.0000000  0.6508444  3
   5420   5418   5427   5431     1  0.0000000  0.6508444  3
   5421   5418   5427   5428     1  0.0000000  0.6508444  3
   5421   5418   5427   5429     1  0.0000000  0.6508444  3
   5421   5418   5427   5431     1  0.0000000  0.6508444  3
   5422   5421   5424   5430     1  0.0000000  1.0460000  1
   5422   5421   5424   5430     1  0.0000000  0.0000000  3
   5422   5421   5424   5425     1  0.0000000  0.6508444  3
   5422   5421   5424   5426     1  0.0000000  0.6508444  3
   5422   5421   5418   5427     1  0.0000000  0.6508444  3
   5423   5421   5424   5430     1  0.0000000  1.0460000  1
   5423   5421   5424   5430     1  0.0000000  0.0000000  3
   5423   5421   5424   5425     1  0.0000000  0.6508444  3
   5423   5421   5424   5426     1  0.0000000  0.6508444  3
   5423   5421   5418   5427     1  0.0000000  0.6508444  3
   5432   5435   5438   5439     1  0.0000000  0.6508444  3
   5432   5435   5438   5440     1  0.0000000  0.6508444  3
   5433   5432   5435   5438     1  0.0000000  0.6508444  3
   5433   5432   5435   5436     1  0.0000000  0.6508444  3
   5433   5432   5435   5437     1  0.0000000  0.6508444  3
   5433   5432   5441   5442     1  0.0000000  0.6508444  3
   5433   5432   5441   5443     1  0.0000000  0.6508444  3
   5433   5432   5441   5445     1  0.0000000  0.6508444  3
   5434   5432   5435   5438     1  0.0000000  0.6508444  3
   5434   5432   5435   5436     1  0.0000000  0.6508444  3
   5434   5432   5435   5437     1  0.0000000  0.6508444  3
   5434   5432   5441   5442     1  0.0000000  0.6508444  3
   5434   5432   5441   5443     1  0.0000000  0.6508444  3
   5434   5432   5441   5445     1  0.0000000  0.6508444  3
   5435   5432   5441   5442     1  0.0000000  0.6508444  3
   5435   5432   5441   5443     1  0.0000000  0.6508444  3
   5435   5432   5441   5445     1  0.0000000  0.6508444  3
   5436   5435   5432   5441     1  0.0000000  0.6508444  3
   5436   5435   5438   5444     1  0.0000000  1.0460000  1
   5436   5435   5438   5444     1  0.0000000  0.0000000  3
   5436   5435   5438   5439     1  0.0000000  0.6508444  3
   5436   5435   5438   5440     1  0.0000000  0.6508444  3
   5437   5435   5432   5441     1  0.0000000  0.6508444  3
   5437   5435   5438   5444     1  0.0000000  1.0460000  1
   5437   5435   5438   5444     1  0.0000000  0.0000000  3
   5437   5435   5438   5439     1  0.0000000  0.6508444  3
   5437   5435   5438   5440     1  0.0000000  0.6508444  3
   5446   5449   5452   5453     1  0.0000000  0.6508444  3
   5446   5449   5452   5454     1  0.0000000  0.6508444  3
   5447   5446   5449   5452     1  0.0000000  0.6508444  3
   5447   5446   5449   5450     1  0.0000000  0.6508444  3
   5447   5446   5449   5451     1  0.0000000  0.6508444  3
   5447   5446   5455   5456     1  0.0000000  0.6508444  3
   5447   5446   5455   5457     1  0.0000000  0.6508444  3
   5447   5446   5455   5459     1  0.0000000  0.6508444  3
   5448   5446   5449   5452     1  0.0000000  0.6508444  3
   5448   5446   5449   5450     1  0.0000000  0.6508444  3
   5448   5446   5449   5451     1  0.0000000  0.6508444  3
   5448   5446   5455   5456     1  0.0000000  0.6508444  3
   5448   5446   5455   5457     1  0.0000000  0.6508444  3
   5448   5446   5455   5459     1  0.0000000  0.6508444  3
   5449   5446   5455   5456     1  0.0000000  0.6508444  3
   5449   5446   5455   5457     1  0.0000000  0.6508444  3
   5449   5446   5455   5459     1  0.0000000  0.6508444  3
   5450   5449   5452   5458     1  0.0000000  1.0460000  1
   5450   5449   5452   5458     1  0.0000000  0.0000000  3
   5450   5449   5452   5453     1  0.0000000  0.6508444  3
   5450   5449   5452   5454     1  0.0000000  0.6508444  3
   5450   5449   5446   5455     1  0.0000000  0.6508444  3
   5451   5449   5452   5458     1  0.0000000  1.0460000  1
   5451   5449   5452   5458     1  0.0000000  0.0000000  3
   5451   5449   5452   5453     1  0.0000000  0.6508444  3
   5451   5449   5452   5454     1  0.0000000  0.6508444  3
   5451   5449   5446   5455     1  0.0000000  0.6508444  3
   5460   5463   5466   5467     1  0.0000000  0.6508444  3
   5460   5463   5466   5468     1  0.0000000  0.6508444  3
   5461   5460   5463   5466     1  0.0000000  0.6508444  3
   5461   5460   5463   5464     1  0.0000000  0.6508444  3
   5461   5460   5463   5465     1  0.0000000  0.6508444  3
   5461   5460   5469   5470     1  0.0000000  0.6508444  3
   5461   5460   5469   5471     1  0.0000000  0.6508444  3
   5461   5460   5469   5473     1  0.0000000  0.6508444  3
   5462   5460   5463   5466     1  0.0000000  0.6508444  3
   5462   5460   5463   5464     1  0.0000000  0.6508444  3
   5462   5460   5463   5465     1  0.0000000  0.6508444  3
   5462   5460   5469   5470     1  0.0000000  0.6508444  3
   5462   5460   5469   5471     1  0.0000000  0.6508444  3
   5462   5460   5469   5473     1  0.0000000  0.6508444  3
   5463   5460   5469   5470     1  0.0000000  0.6508444  3
   5463   5460   5469   5471     1  0.0000000  0.6508444  3
   5463   5460   5469   5473     1  0.0000000  0.6508444  3
   5464   5463   5460   5469     1  0.0000000  0.6508444  3
   5464   5463   5466   5472     1  0.0000000  1.0460000  1
   5464   5463   5466   5472     1  0.0000000  0.0000000  3
   5464   5463   5466   5467     1  0.0000000  0.6508444  3
   5464   5463   5466   5468     1  0.0000000  0.6508444  3
   5465   5463   5460   5469     1  0.0000000  0.6508444  3
   5465   5463   5466   5472     1  0.0000000  1.0460000  1
   5465   5463   5466   5472     1  0.0000000  0.0000000  3
   5465   5463   5466   5467     1  0.0000000  0.6508444  3
   5465   5463   5466   5468     1  0.0000000  0.6508444  3
   5474   5477   5480   5481     1  0.0000000  0.6508444  3
   5474   5477   5480   5482     1  0.0000000  0.6508444  3
   5475   5474   5477   5480     1  0.0000000  0.6508444  3
   5475   5474   5477   5478     1  0.0000000  0.6508444  3
   5475   5474   5477   5479     1  0.0000000  0.6508444  3
   5475   5474   5483   5484     1  0.0000000  0.6508444  3
   5475   5474   5483   5485     1  0.0000000  0.6508444  3
   5475   5474   5483   5487     1  0.0000000  0.6508444  3
   5476   5474   5477   5480     1  0.0000000  0.6508444  3
   5476   5474   5477   5478     1  0.0000000  0.6508444  3
   5476   5474   5477   5479     1  0.0000000  0.6508444  3
   5476   5474   5483   5484     1  0.0000000  0.6508444  3
   5476   5474   5483   5485     1  0.0000000  0.6508444  3
   5476   5474   5483   5487     1  0.0000000  0.6508444  3
   5477   5474   5483   5484     1  0.0000000  0.6508444  3
   5477   5474   5483   5485     1  0.0000000  0.6508444  3
   5477   5474   5483   5487     1  0.0000000  0.6508444  3
   5478   5477   5480   5486     1  0.0000000  1.0460000  1
   5478   5477   5480   5486     1  0.0000000  0.0000000  3
   5478   5477   5480   5481     1  0.0000000  0.6508444  3
   5478   5477   5480   5482     1  0.0000000  0.6508444  3
   5478   5477   5474   5483     1  0.0000000  0.6508444  3
   5479   5477   5480   5486     1  0.0000000  1.0460000  1
   5479   5477   5480   5486     1  0.0000000  0.0000000  3
   5479   5477   5480   5481     1  0.0000000  0.6508444  3
   5479   5477   5480   5482     1  0.0000000  0.6508444  3
   5479   5477   5474   5483     1  0.0000000  0.6508444  3
   5488   5491   5494   5495     1  0.0000000  0.6508444  3
   5488   5491   5494   5496     1  0.0000000  0.6508444  3
   5489   5488   5491   5494     1  0.0000000  0.6508444  3
   5489   5488   5491   5492     1  0.0000000  0.6508444  3
   5489   5488   5491   5493     1  0.0000000  0.6508444  3
   5489   5488   5497   5498     1  0.0000000  0.6508444  3
   5489   5488   5497   5499     1  0.0000000  0.6508444  3
   5489   5488   5497   5501     1  0.0000000  0.6508444  3
   5490   5488   5491   5494     1  0.0000000  0.6508444  3
   5490   5488   5491   5492     1  0.0000000  0.6508444  3
   5490   5488   5491   5493     1  0.0000000  0.6508444  3
   5490   5488   5497   5498     1  0.0000000  0.6508444  3
   5490   5488   5497   5499     1  0.0000000  0.6508444  3
   5490   5488   5497   5501     1  0.0000000  0.6508444  3
   5491   5488   5497   5498     1  0.0000000  0.6508444  3
   5491   5488   5497   5499     1  0.0000000  0.6508444  3
   5491   5488   5497   5501     1  0.0000000  0.6508444  3
   5492   5491   5488   5497     1  0.0000000  0.6508444  3
   5492   5491   5494   5500     1  0.0000000  1.0460000  1
   5492   5491   5494   5500     1  0.0000000  0.0000000  3
   5492   5491   5494   5495     1  0.0000000  0.6508444  3
   5492   5491   5494   5496     1  0.0000000  0.6508444  3
   5493   5491   5488   5497     1  0.0000000  0.6508444  3
   5493   5491   5494   5500     1  0.0000000  1.0460000  1
   5493   5491   5494   5500     1  0.0000000  0.0000000  3
   5493   5491   5494   5495     1  0.0000000  0.6508444  3
   5493   5491   5494   5496     1  0.0000000  0.6508444  3
   5502   5505   5508   5509     1  0.0000000  0.6508444  3
   5502   5505   5508   5510     1  0.0000000  0.6508444  3
   5503   5502   5505   5508     1  0.0000000  0.6508444  3
   5503   5502   5505   5506     1  0.0000000  0.6508444  3
   5503   5502   5505   5507     1  0.0000000  0.6508444  3
   5503   5502   5511   5512     1  0.0000000  0.6508444  3
   5503   5502   5511   5513     1  0.0000000  0.6508444  3
   5503   5502   5511   5515     1  0.0000000  0.6508444  3
   5504   5502   5505   5508     1  0.0000000  0.6508444  3
   5504   5502   5505   5506     1  0.0000000  0.6508444  3
   5504   5502   5505   5507     1  0.0000000  0.6508444  3
   5504   5502   5511   5512     1  0.0000000  0.6508444  3
   5504   5502   5511   5513     1  0.0000000  0.6508444  3
   5504   5502   5511   5515     1  0.0000000  0.6508444  3
   5505   5502   5511   5512     1  0.0000000  0.6508444  3
   5505   5502   5511   5513     1  0.0000000  0.6508444  3
   5505   5502   5511   5515     1  0.0000000  0.6508444  3
   5506   5505   5508   5514     1  0.0000000  1.0460000  1
   5506   5505   5508   5514     1  0.0000000  0.0000000  3
   5506   5505   5508   5509     1  0.0000000  0.6508444  3
   5506   5505   5508   5510     1  0.0000000  0.6508444  3
   5506   5505   5502   5511     1  0.0000000  0.6508444  3
   5507   5505   5508   5514     1  0.0000000  1.0460000  1
   5507   5505   5508   5514     1  0.0000000  0.0000000  3
   5507   5505   5508   5509     1  0.0000000  0.6508444  3
   5507   5505   5508   5510     1  0.0000000  0.6508444  3
   5507   5505   5502   5511     1  0.0000000  0.6508444  3
   5516   5519   5522   5523     1  0.0000000  0.6508444  3
   5516   5519   5522   5524     1  0.0000000  0.6508444  3
   5517   5516   5519   5522     1  0.0000000  0.6508444  3
   5517   5516   5519   5520     1  0.0000000  0.6508444  3
   5517   5516   5519   5521     1  0.0000000  0.6508444  3
   5517   5516   5525   5526     1  0.0000000  0.6508444  3
   5517   5516   5525   5527     1  0.0000000  0.6508444  3
   5517   5516   5525   5529     1  0.0000000  0.6508444  3
   5518   5516   5519   5522     1  0.0000000  0.6508444  3
   5518   5516   5519   5520     1  0.0000000  0.6508444  3
   5518   5516   5519   5521     1  0.0000000  0.6508444  3
   5518   5516   5525   5526     1  0.0000000  0.6508444  3
   5518   5516   5525   5527     1  0.0000000  0.6508444  3
   5518   5516   5525   5529     1  0.0000000  0.6508444  3
   5519   5516   5525   5526     1  0.0000000  0.6508444  3
   5519   5516   5525   5527     1  0.0000000  0.6508444  3
   5519   5516   5525   5529     1  0.0000000  0.6508444  3
   5520   5519   5516   5525     1  0.0000000  0.6508444  3
   5520   5519   5522   5528     1  0.0000000  1.0460000  1
   5520   5519   5522   5528     1  0.0000000  0.0000000  3
   5520   5519   5522   5523     1  0.0000000  0.6508444  3
   5520   5519   5522   5524     1  0.0000000  0.6508444  3
   5521   5519   5516   5525     1  0.0000000  0.6508444  3
   5521   5519   5522   5528     1  0.0000000  1.0460000  1
   5521   5519   5522   5528     1  0.0000000  0.0000000  3
   5521   5519   5522   5523     1  0.0000000  0.6508444  3
   5521   5519   5522   5524     1  0.0000000  0.6508444  3
   5530   5533   5536   5537     1  0.0000000  0.6508444  3
   5530   5533   5536   5538     1  0.0000000  0.6508444  3
   5531   5530   5533   5536     1  0.0000000  0.6508444  3
   5531   5530   5533   5534     1  0.0000000  0.6508444  3
   5531   5530   5533   5535     1  0.0000000  0.6508444  3
   5531   5530   5539   5540     1  0.0000000  0.6508444  3
   5531   5530   5539   5541     1  0.0000000  0.6508444  3
   5531   5530   5539   5543     1  0.0000000  0.6508444  3
   5532   5530   5533   5536     1  0.0000000  0.6508444  3
   5532   5530   5533   5534     1  0.0000000  0.6508444  3
   5532   5530   5533   5535     1  0.0000000  0.6508444  3
   5532   5530   5539   5540     1  0.0000000  0.6508444  3
   5532   5530   5539   5541     1  0.0000000  0.6508444  3
   5532   5530   5539   5543     1  0.0000000  0.6508444  3
   5533   5530   5539   5540     1  0.0000000  0.6508444  3
   5533   5530   5539   5541     1  0.0000000  0.6508444  3
   5533   5530   5539   5543     1  0.0000000  0.6508444  3
   5534   5533   5536   5542     1  0.0000000  1.0460000  1
   5534   5533   5536   5542     1  0.0000000  0.0000000  3
   5534   5533   5536   5537     1  0.0000000  0.6508444  3
   5534   5533   5536   5538     1  0.0000000  0.6508444  3
   5534   5533   5530   5539     1  0.0000000  0.6508444  3
   5535   5533   5536   5542     1  0.0000000  1.0460000  1
   5535   5533   5536   5542     1  0.0000000  0.0000000  3
   5535   5533   5536   5537     1  0.0000000  0.6508444  3
   5535   5533   5536   5538     1  0.0000000  0.6508444  3
   5535   5533   5530   5539     1  0.0000000  0.6508444  3
   5544   5547   5550   5551     1  0.0000000  0.6508444  3
   5544   5547   5550   5552     1  0.0000000  0.6508444  3
   5545   5544   5547   5550     1  0.0000000  0.6508444  3
   5545   5544   5547   5548     1  0.0000000  0.6508444  3
   5545   5544   5547   5549     1  0.0000000  0.6508444  3
   5545   5544   5553   5554     1  0.0000000  0.6508444  3
   5545   5544   5553   5555     1  0.0000000  0.6508444  3
   5545   5544   5553   5557     1  0.0000000  0.6508444  3
   5546   5544   5547   5550     1  0.0000000  0.6508444  3
   5546   5544   5547   5548     1  0.0000000  0.6508444  3
   5546   5544   5547   5549     1  0.0000000  0.6508444  3
   5546   5544   5553   5554     1  0.0000000  0.6508444  3
   5546   5544   5553   5555     1  0.0000000  0.6508444  3
   5546   5544   5553   5557     1  0.0000000  0.6508444  3
   5547   5544   5553   5554     1  0.0000000  0.6508444  3
   5547   5544   5553   5555     1  0.0000000  0.6508444  3
   5547   5544   5553   5557     1  0.0000000  0.6508444  3
   5548   5547   5544   5553     1  0.0000000  0.6508444  3
   5548   5547   5550   5556     1  0.0000000  1.0460000  1
   5548   5547   5550   5556     1  0.0000000  0.0000000  3
   5548   5547   5550   5551     1  0.0000000  0.6508444  3
   5548   5547   5550   5552     1  0.0000000  0.6508444  3
   5549   5547   5544   5553     1  0.0000000  0.6508444  3
   5549   5547   5550   5556     1  0.0000000  1.0460000  1
   5549   5547   5550   5556     1  0.0000000  0.0000000  3
   5549   5547   5550   5551     1  0.0000000  0.6508444  3
   5549   5547   5550   5552     1  0.0000000  0.6508444  3
   5558   5561   5564   5565     1  0.0000000  0.6508444  3
   5558   5561   5564   5566     1  0.0000000  0.6508444  3
   5559   5558   5561   5564     1  0.0000000  0.6508444  3
   5559   5558   5561   5562     1  0.0000000  0.6508444  3
   5559   5558   5561   5563     1  0.0000000  0.6508444  3
   5559   5558   5567   5568     1  0.0000000  0.6508444  3
   5559   5558   5567   5569     1  0.0000000  0.6508444  3
   5559   5558   5567   5571     1  0.0000000  0.6508444  3
   5560   5558   5561   5564     1  0.0000000  0.6508444  3
   5560   5558   5561   5562     1  0.0000000  0.6508444  3
   5560   5558   5561   5563     1  0.0000000  0.6508444  3
   5560   5558   5567   5568     1  0.0000000  0.6508444  3
   5560   5558   5567   5569     1  0.0000000  0.6508444  3
   5560   5558   5567   5571     1  0.0000000  0.6508444  3
   5561   5558   5567   5568     1  0.0000000  0.6508444  3
   5561   5558   5567   5569     1  0.0000000  0.6508444  3
   5561   5558   5567   5571     1  0.0000000  0.6508444  3
   5562   5561   5564   5570     1  0.0000000  1.0460000  1
   5562   5561   5564   5570     1  0.0000000  0.0000000  3
   5562   5561   5564   5565     1  0.0000000  0.6508444  3
   5562   5561   5564   5566     1  0.0000000  0.6508444  3
   5562   5561   5558   5567     1  0.0000000  0.6508444  3
   5563   5561   5564   5570     1  0.0000000  1.0460000  1
   5563   5561   5564   5570     1  0.0000000  0.0000000  3
   5563   5561   5564   5565     1  0.0000000  0.6508444  3
   5563   5561   5564   5566     1  0.0000000  0.6508444  3
   5563   5561   5558   5567     1  0.0000000  0.6508444  3

;[ system ]
;; Name
;Generic title
;
;[ molecules ]
;; Compound       #mols
;system1              1
