;
;   File g5dpncore_petim_betagalactose.itp  was generated
;   By user: sairam (1000)
;   On host: sairam
;   At date: Sat. January  6 15:17:05 2025
;
;   This is a standalone topology file
;
;   Created by:
;   ParmEd:       amb2gro_top_gro.py, VERSION 3.4.1
;   Executable:   amb2gro_top_gro.py
;   Library dir:  /usr/local/gromacs/share/gromacs/top
;   Command line:
;     ./amb2gro_top_gro.py -p g5dpncore_petim_betagalactose.prmtop -c g5dpncore_petim_betagalactose.inpcrd -t g5dpncore_petim_betagalactose.itp -g g5dpncore_petim_betagalactose.gro -b g5dpncore_petim_betagalactose.pdb
;

;[ defaults ]
;; nbfunc        comb-rule       gen-pairs       fudgeLJ fudgeQQ
;1               2               yes             0.5          0.83333333  
;
;[ atomtypes ]
;; name    at.num    mass    charge ptype  sigma      epsilon
;n4             7  14.010000  0.00000000  A     0.32499985        0.71128
;c3             6  12.010000  0.00000000  A     0.33996695      0.4577296
;hx             1   1.008000  0.00000000  A     0.19599772      0.0656888
;hc             1   1.008000  0.00000000  A     0.26495328      0.0656888
;h1             1   1.008000  0.00000000  A      0.2471353      0.0656888
;hn             1   1.008000  0.00000000  A     0.10690785      0.0656888
;os             8  16.000000  0.00000000  A     0.30000123        0.71128
;h2             1   1.008000  0.00000000  A     0.22931733      0.0656888
;oh             8  16.000000  0.00000000  A     0.30664734      0.8803136
;ho             1   1.008000  0.00000000  A              0              0


[ moleculetype ]
; Name            nrexcl
g5dpncore_petim_betagalactose          3

[ atoms ]
;   nr       type  resnr residue  atom   cgnr    charge       mass  typeB    chargeB      massB
; residue    1 aaa rtp aaa q 1.0
    1         n4      1    aaa     N1      1 -0.24795800  14.010000   ; qtot -0.247958
    2         c3      1    aaa     C1      2 0.15727100  12.010000   ; qtot -0.090687
    3         hx      1    aaa     H1      3 0.05072400   1.008000   ; qtot -0.039963
    4         hx      1    aaa     H2      4 0.05072400   1.008000   ; qtot 0.010761
    5         c3      1    aaa     C2      5 0.15727100  12.010000   ; qtot 0.168032
    6         hx      1    aaa     H3      6 0.05072400   1.008000   ; qtot 0.218756
    7         hx      1    aaa     H4      7 0.05072400   1.008000   ; qtot 0.269480
    8         c3      1    aaa     C3      8 0.15727100  12.010000   ; qtot 0.426751
    9         hx      1    aaa     H5      9 0.05072400   1.008000   ; qtot 0.477475
   10         hx      1    aaa     H6     10 0.05072400   1.008000   ; qtot 0.528199
   11         c3      1    aaa     C4     11 0.05437700  12.010000   ; qtot 0.582576
   12         hc      1    aaa     H7     12 0.07708700   1.008000   ; qtot 0.659663
   13         hc      1    aaa     H8     13 0.07708700   1.008000   ; qtot 0.736750
   14         c3      1    aaa     C5     14 0.05437700  12.010000   ; qtot 0.791127
   15         hc      1    aaa     H9     15 0.07708700   1.008000   ; qtot 0.868214
   16         hc      1    aaa    H10     16 0.07708700   1.008000   ; qtot 0.945301
   17         c3      1    aaa     C6     17 0.05437700  12.010000   ; qtot 0.999678
   18         hc      1    aaa    H11     18 0.07708700   1.008000   ; qtot 1.076765
   19         hc      1    aaa    H12     19 0.07708700   1.008000   ; qtot 1.153852
   20         c3      1    aaa     C7     20 -0.74569400  12.010000   ; qtot 0.408158
   21         h1      1    aaa    H13     21 0.30837900   1.008000   ; qtot 0.716537
   22         h1      1    aaa    H14     22 0.30837900   1.008000   ; qtot 1.024916
   23         c3      1    aaa     C8     23 -0.74569400  12.010000   ; qtot 0.279222
   24         h1      1    aaa    H15     24 0.30837900   1.008000   ; qtot 0.587601
   25         h1      1    aaa    H16     25 0.30837900   1.008000   ; qtot 0.895980
   26         c3      1    aaa     C9     26 -0.74569400  12.010000   ; qtot 0.150286
   27         h1      1    aaa    H17     27 0.30837900   1.008000   ; qtot 0.458665
   28         h1      1    aaa    H18     28 0.30837900   1.008000   ; qtot 0.767044
   29         hn      1    aaa    H19     29 0.23295100   1.008000   ; qtot 0.999995
; residue    2 bbb rtp bbb q 1.0
   30         n4      2    bbb     N1     30 0.03726400  14.010000   ; qtot 1.037259
   31         c3      2    bbb     C1     31 -0.07020100  12.010000   ; qtot 0.967058
   32         hx      2    bbb     H1     32 0.12219000   1.008000   ; qtot 1.089248
   33         hx      2    bbb     H2     33 0.12219000   1.008000   ; qtot 1.211438
   34         c3      2    bbb     C2     34 -0.07020100  12.010000   ; qtot 1.141237
   35         hx      2    bbb     H3     35 0.12219000   1.008000   ; qtot 1.263427
   36         hx      2    bbb     H4     36 0.12219000   1.008000   ; qtot 1.385617
   37         c3      2    bbb     C3     37 -0.39007700  12.010000   ; qtot 0.995540
   38         hx      2    bbb     H5     38 0.14940300   1.008000   ; qtot 1.144943
   39         hx      2    bbb     H6     39 0.14940300   1.008000   ; qtot 1.294346
   40         c3      2    bbb     C4     40 0.18057300  12.010000   ; qtot 1.474919
   41         hc      2    bbb     H7     41 0.01788900   1.008000   ; qtot 1.492808
   42         hc      2    bbb     H8     42 0.01788900   1.008000   ; qtot 1.510697
   43         c3      2    bbb     C5     43 -0.11337700  12.010000   ; qtot 1.397320
   44         hc      2    bbb     H9     44 0.09515400   1.008000   ; qtot 1.492474
   45         hc      2    bbb    H10     45 0.09515400   1.008000   ; qtot 1.587628
   46         c3      2    bbb     C6     46 -0.11337700  12.010000   ; qtot 1.474251
   47         hc      2    bbb    H11     47 0.09515400   1.008000   ; qtot 1.569405
   48         hc      2    bbb    H12     48 0.09515400   1.008000   ; qtot 1.664559
   49         c3      2    bbb     C7     49 0.21842400  12.010000   ; qtot 1.882983
   50         h1      2    bbb    H13     50 0.04500300   1.008000   ; qtot 1.927986
   51         h1      2    bbb    H14     51 0.04500300   1.008000   ; qtot 1.972989
   52         c3      2    bbb     C8     52 -0.06455200  12.010000   ; qtot 1.908437
   53         h1      2    bbb    H15     53 0.13554100   1.008000   ; qtot 2.043978
   54         h1      2    bbb    H16     54 0.13554100   1.008000   ; qtot 2.179519
   55         c3      2    bbb     C9     55 -0.06455200  12.010000   ; qtot 2.114967
   56         h1      2    bbb    H17     56 0.13554100   1.008000   ; qtot 2.250508
   57         h1      2    bbb    H18     57 0.13554100   1.008000   ; qtot 2.386049
   58         os      2    bbb     O1     58 -0.62587700  16.000000   ; qtot 1.760172
   59         hn      2    bbb    H19     59 0.23982500   1.008000   ; qtot 1.999997
; residue    3 bbb rtp bbb q 1.0
   60         n4      3    bbb     N1     60 0.03726400  14.010000   ; qtot 2.037261
   61         c3      3    bbb     C1     61 -0.07020100  12.010000   ; qtot 1.967060
   62         hx      3    bbb     H1     62 0.12219000   1.008000   ; qtot 2.089250
   63         hx      3    bbb     H2     63 0.12219000   1.008000   ; qtot 2.211440
   64         c3      3    bbb     C2     64 -0.07020100  12.010000   ; qtot 2.141239
   65         hx      3    bbb     H3     65 0.12219000   1.008000   ; qtot 2.263429
   66         hx      3    bbb     H4     66 0.12219000   1.008000   ; qtot 2.385619
   67         c3      3    bbb     C3     67 -0.39007700  12.010000   ; qtot 1.995542
   68         hx      3    bbb     H5     68 0.14940300   1.008000   ; qtot 2.144945
   69         hx      3    bbb     H6     69 0.14940300   1.008000   ; qtot 2.294348
   70         c3      3    bbb     C4     70 0.18057300  12.010000   ; qtot 2.474921
   71         hc      3    bbb     H7     71 0.01788900   1.008000   ; qtot 2.492810
   72         hc      3    bbb     H8     72 0.01788900   1.008000   ; qtot 2.510699
   73         c3      3    bbb     C5     73 -0.11337700  12.010000   ; qtot 2.397322
   74         hc      3    bbb     H9     74 0.09515400   1.008000   ; qtot 2.492476
   75         hc      3    bbb    H10     75 0.09515400   1.008000   ; qtot 2.587630
   76         c3      3    bbb     C6     76 -0.11337700  12.010000   ; qtot 2.474253
   77         hc      3    bbb    H11     77 0.09515400   1.008000   ; qtot 2.569407
   78         hc      3    bbb    H12     78 0.09515400   1.008000   ; qtot 2.664561
   79         c3      3    bbb     C7     79 0.21842400  12.010000   ; qtot 2.882985
   80         h1      3    bbb    H13     80 0.04500300   1.008000   ; qtot 2.927988
   81         h1      3    bbb    H14     81 0.04500300   1.008000   ; qtot 2.972991
   82         c3      3    bbb     C8     82 -0.06455200  12.010000   ; qtot 2.908439
   83         h1      3    bbb    H15     83 0.13554100   1.008000   ; qtot 3.043980
   84         h1      3    bbb    H16     84 0.13554100   1.008000   ; qtot 3.179521
   85         c3      3    bbb     C9     85 -0.06455200  12.010000   ; qtot 3.114969
   86         h1      3    bbb    H17     86 0.13554100   1.008000   ; qtot 3.250510
   87         h1      3    bbb    H18     87 0.13554100   1.008000   ; qtot 3.386051
   88         os      3    bbb     O1     88 -0.62587700  16.000000   ; qtot 2.760174
   89         hn      3    bbb    H19     89 0.23982500   1.008000   ; qtot 2.999999
; residue    4 bbb rtp bbb q 1.0
   90         n4      4    bbb     N1     90 0.03726400  14.010000   ; qtot 3.037263
   91         c3      4    bbb     C1     91 -0.07020100  12.010000   ; qtot 2.967062
   92         hx      4    bbb     H1     92 0.12219000   1.008000   ; qtot 3.089252
   93         hx      4    bbb     H2     93 0.12219000   1.008000   ; qtot 3.211442
   94         c3      4    bbb     C2     94 -0.07020100  12.010000   ; qtot 3.141241
   95         hx      4    bbb     H3     95 0.12219000   1.008000   ; qtot 3.263431
   96         hx      4    bbb     H4     96 0.12219000   1.008000   ; qtot 3.385621
   97         c3      4    bbb     C3     97 -0.39007700  12.010000   ; qtot 2.995544
   98         hx      4    bbb     H5     98 0.14940300   1.008000   ; qtot 3.144947
   99         hx      4    bbb     H6     99 0.14940300   1.008000   ; qtot 3.294350
  100         c3      4    bbb     C4    100 0.18057300  12.010000   ; qtot 3.474923
  101         hc      4    bbb     H7    101 0.01788900   1.008000   ; qtot 3.492812
  102         hc      4    bbb     H8    102 0.01788900   1.008000   ; qtot 3.510701
  103         c3      4    bbb     C5    103 -0.11337700  12.010000   ; qtot 3.397324
  104         hc      4    bbb     H9    104 0.09515400   1.008000   ; qtot 3.492478
  105         hc      4    bbb    H10    105 0.09515400   1.008000   ; qtot 3.587632
  106         c3      4    bbb     C6    106 -0.11337700  12.010000   ; qtot 3.474255
  107         hc      4    bbb    H11    107 0.09515400   1.008000   ; qtot 3.569409
  108         hc      4    bbb    H12    108 0.09515400   1.008000   ; qtot 3.664563
  109         c3      4    bbb     C7    109 0.21842400  12.010000   ; qtot 3.882987
  110         h1      4    bbb    H13    110 0.04500300   1.008000   ; qtot 3.927990
  111         h1      4    bbb    H14    111 0.04500300   1.008000   ; qtot 3.972993
  112         c3      4    bbb     C8    112 -0.06455200  12.010000   ; qtot 3.908441
  113         h1      4    bbb    H15    113 0.13554100   1.008000   ; qtot 4.043982
  114         h1      4    bbb    H16    114 0.13554100   1.008000   ; qtot 4.179523
  115         c3      4    bbb     C9    115 -0.06455200  12.010000   ; qtot 4.114971
  116         h1      4    bbb    H17    116 0.13554100   1.008000   ; qtot 4.250512
  117         h1      4    bbb    H18    117 0.13554100   1.008000   ; qtot 4.386053
  118         os      4    bbb     O1    118 -0.62587700  16.000000   ; qtot 3.760176
  119         hn      4    bbb    H19    119 0.23982500   1.008000   ; qtot 4.000001
; residue    5 bbb rtp bbb q 1.0
  120         n4      5    bbb     N1    120 0.03726400  14.010000   ; qtot 4.037265
  121         c3      5    bbb     C1    121 -0.07020100  12.010000   ; qtot 3.967064
  122         hx      5    bbb     H1    122 0.12219000   1.008000   ; qtot 4.089254
  123         hx      5    bbb     H2    123 0.12219000   1.008000   ; qtot 4.211444
  124         c3      5    bbb     C2    124 -0.07020100  12.010000   ; qtot 4.141243
  125         hx      5    bbb     H3    125 0.12219000   1.008000   ; qtot 4.263433
  126         hx      5    bbb     H4    126 0.12219000   1.008000   ; qtot 4.385623
  127         c3      5    bbb     C3    127 -0.39007700  12.010000   ; qtot 3.995546
  128         hx      5    bbb     H5    128 0.14940300   1.008000   ; qtot 4.144949
  129         hx      5    bbb     H6    129 0.14940300   1.008000   ; qtot 4.294352
  130         c3      5    bbb     C4    130 0.18057300  12.010000   ; qtot 4.474925
  131         hc      5    bbb     H7    131 0.01788900   1.008000   ; qtot 4.492814
  132         hc      5    bbb     H8    132 0.01788900   1.008000   ; qtot 4.510703
  133         c3      5    bbb     C5    133 -0.11337700  12.010000   ; qtot 4.397326
  134         hc      5    bbb     H9    134 0.09515400   1.008000   ; qtot 4.492480
  135         hc      5    bbb    H10    135 0.09515400   1.008000   ; qtot 4.587634
  136         c3      5    bbb     C6    136 -0.11337700  12.010000   ; qtot 4.474257
  137         hc      5    bbb    H11    137 0.09515400   1.008000   ; qtot 4.569411
  138         hc      5    bbb    H12    138 0.09515400   1.008000   ; qtot 4.664565
  139         c3      5    bbb     C7    139 0.21842400  12.010000   ; qtot 4.882989
  140         h1      5    bbb    H13    140 0.04500300   1.008000   ; qtot 4.927992
  141         h1      5    bbb    H14    141 0.04500300   1.008000   ; qtot 4.972995
  142         c3      5    bbb     C8    142 -0.06455200  12.010000   ; qtot 4.908443
  143         h1      5    bbb    H15    143 0.13554100   1.008000   ; qtot 5.043984
  144         h1      5    bbb    H16    144 0.13554100   1.008000   ; qtot 5.179525
  145         c3      5    bbb     C9    145 -0.06455200  12.010000   ; qtot 5.114973
  146         h1      5    bbb    H17    146 0.13554100   1.008000   ; qtot 5.250514
  147         h1      5    bbb    H18    147 0.13554100   1.008000   ; qtot 5.386055
  148         os      5    bbb     O1    148 -0.62587700  16.000000   ; qtot 4.760178
  149         hn      5    bbb    H19    149 0.23982500   1.008000   ; qtot 5.000003
; residue    6 bbb rtp bbb q 1.0
  150         n4      6    bbb     N1    150 0.03726400  14.010000   ; qtot 5.037267
  151         c3      6    bbb     C1    151 -0.07020100  12.010000   ; qtot 4.967066
  152         hx      6    bbb     H1    152 0.12219000   1.008000   ; qtot 5.089256
  153         hx      6    bbb     H2    153 0.12219000   1.008000   ; qtot 5.211446
  154         c3      6    bbb     C2    154 -0.07020100  12.010000   ; qtot 5.141245
  155         hx      6    bbb     H3    155 0.12219000   1.008000   ; qtot 5.263435
  156         hx      6    bbb     H4    156 0.12219000   1.008000   ; qtot 5.385625
  157         c3      6    bbb     C3    157 -0.39007700  12.010000   ; qtot 4.995548
  158         hx      6    bbb     H5    158 0.14940300   1.008000   ; qtot 5.144951
  159         hx      6    bbb     H6    159 0.14940300   1.008000   ; qtot 5.294354
  160         c3      6    bbb     C4    160 0.18057300  12.010000   ; qtot 5.474927
  161         hc      6    bbb     H7    161 0.01788900   1.008000   ; qtot 5.492816
  162         hc      6    bbb     H8    162 0.01788900   1.008000   ; qtot 5.510705
  163         c3      6    bbb     C5    163 -0.11337700  12.010000   ; qtot 5.397328
  164         hc      6    bbb     H9    164 0.09515400   1.008000   ; qtot 5.492482
  165         hc      6    bbb    H10    165 0.09515400   1.008000   ; qtot 5.587636
  166         c3      6    bbb     C6    166 -0.11337700  12.010000   ; qtot 5.474259
  167         hc      6    bbb    H11    167 0.09515400   1.008000   ; qtot 5.569413
  168         hc      6    bbb    H12    168 0.09515400   1.008000   ; qtot 5.664567
  169         c3      6    bbb     C7    169 0.21842400  12.010000   ; qtot 5.882991
  170         h1      6    bbb    H13    170 0.04500300   1.008000   ; qtot 5.927994
  171         h1      6    bbb    H14    171 0.04500300   1.008000   ; qtot 5.972997
  172         c3      6    bbb     C8    172 -0.06455200  12.010000   ; qtot 5.908445
  173         h1      6    bbb    H15    173 0.13554100   1.008000   ; qtot 6.043986
  174         h1      6    bbb    H16    174 0.13554100   1.008000   ; qtot 6.179527
  175         c3      6    bbb     C9    175 -0.06455200  12.010000   ; qtot 6.114975
  176         h1      6    bbb    H17    176 0.13554100   1.008000   ; qtot 6.250516
  177         h1      6    bbb    H18    177 0.13554100   1.008000   ; qtot 6.386057
  178         os      6    bbb     O1    178 -0.62587700  16.000000   ; qtot 5.760180
  179         hn      6    bbb    H19    179 0.23982500   1.008000   ; qtot 6.000005
; residue    7 bbb rtp bbb q 1.0
  180         n4      7    bbb     N1    180 0.03726400  14.010000   ; qtot 6.037269
  181         c3      7    bbb     C1    181 -0.07020100  12.010000   ; qtot 5.967068
  182         hx      7    bbb     H1    182 0.12219000   1.008000   ; qtot 6.089258
  183         hx      7    bbb     H2    183 0.12219000   1.008000   ; qtot 6.211448
  184         c3      7    bbb     C2    184 -0.07020100  12.010000   ; qtot 6.141247
  185         hx      7    bbb     H3    185 0.12219000   1.008000   ; qtot 6.263437
  186         hx      7    bbb     H4    186 0.12219000   1.008000   ; qtot 6.385627
  187         c3      7    bbb     C3    187 -0.39007700  12.010000   ; qtot 5.995550
  188         hx      7    bbb     H5    188 0.14940300   1.008000   ; qtot 6.144953
  189         hx      7    bbb     H6    189 0.14940300   1.008000   ; qtot 6.294356
  190         c3      7    bbb     C4    190 0.18057300  12.010000   ; qtot 6.474929
  191         hc      7    bbb     H7    191 0.01788900   1.008000   ; qtot 6.492818
  192         hc      7    bbb     H8    192 0.01788900   1.008000   ; qtot 6.510707
  193         c3      7    bbb     C5    193 -0.11337700  12.010000   ; qtot 6.397330
  194         hc      7    bbb     H9    194 0.09515400   1.008000   ; qtot 6.492484
  195         hc      7    bbb    H10    195 0.09515400   1.008000   ; qtot 6.587638
  196         c3      7    bbb     C6    196 -0.11337700  12.010000   ; qtot 6.474261
  197         hc      7    bbb    H11    197 0.09515400   1.008000   ; qtot 6.569415
  198         hc      7    bbb    H12    198 0.09515400   1.008000   ; qtot 6.664569
  199         c3      7    bbb     C7    199 0.21842400  12.010000   ; qtot 6.882993
  200         h1      7    bbb    H13    200 0.04500300   1.008000   ; qtot 6.927996
  201         h1      7    bbb    H14    201 0.04500300   1.008000   ; qtot 6.972999
  202         c3      7    bbb     C8    202 -0.06455200  12.010000   ; qtot 6.908447
  203         h1      7    bbb    H15    203 0.13554100   1.008000   ; qtot 7.043988
  204         h1      7    bbb    H16    204 0.13554100   1.008000   ; qtot 7.179529
  205         c3      7    bbb     C9    205 -0.06455200  12.010000   ; qtot 7.114977
  206         h1      7    bbb    H17    206 0.13554100   1.008000   ; qtot 7.250518
  207         h1      7    bbb    H18    207 0.13554100   1.008000   ; qtot 7.386059
  208         os      7    bbb     O1    208 -0.62587700  16.000000   ; qtot 6.760182
  209         hn      7    bbb    H19    209 0.23982500   1.008000   ; qtot 7.000007
; residue    8 bbb rtp bbb q 1.0
  210         n4      8    bbb     N1    210 0.03726400  14.010000   ; qtot 7.037271
  211         c3      8    bbb     C1    211 -0.07020100  12.010000   ; qtot 6.967070
  212         hx      8    bbb     H1    212 0.12219000   1.008000   ; qtot 7.089260
  213         hx      8    bbb     H2    213 0.12219000   1.008000   ; qtot 7.211450
  214         c3      8    bbb     C2    214 -0.07020100  12.010000   ; qtot 7.141249
  215         hx      8    bbb     H3    215 0.12219000   1.008000   ; qtot 7.263439
  216         hx      8    bbb     H4    216 0.12219000   1.008000   ; qtot 7.385629
  217         c3      8    bbb     C3    217 -0.39007700  12.010000   ; qtot 6.995552
  218         hx      8    bbb     H5    218 0.14940300   1.008000   ; qtot 7.144955
  219         hx      8    bbb     H6    219 0.14940300   1.008000   ; qtot 7.294358
  220         c3      8    bbb     C4    220 0.18057300  12.010000   ; qtot 7.474931
  221         hc      8    bbb     H7    221 0.01788900   1.008000   ; qtot 7.492820
  222         hc      8    bbb     H8    222 0.01788900   1.008000   ; qtot 7.510709
  223         c3      8    bbb     C5    223 -0.11337700  12.010000   ; qtot 7.397332
  224         hc      8    bbb     H9    224 0.09515400   1.008000   ; qtot 7.492486
  225         hc      8    bbb    H10    225 0.09515400   1.008000   ; qtot 7.587640
  226         c3      8    bbb     C6    226 -0.11337700  12.010000   ; qtot 7.474263
  227         hc      8    bbb    H11    227 0.09515400   1.008000   ; qtot 7.569417
  228         hc      8    bbb    H12    228 0.09515400   1.008000   ; qtot 7.664571
  229         c3      8    bbb     C7    229 0.21842400  12.010000   ; qtot 7.882995
  230         h1      8    bbb    H13    230 0.04500300   1.008000   ; qtot 7.927998
  231         h1      8    bbb    H14    231 0.04500300   1.008000   ; qtot 7.973001
  232         c3      8    bbb     C8    232 -0.06455200  12.010000   ; qtot 7.908449
  233         h1      8    bbb    H15    233 0.13554100   1.008000   ; qtot 8.043990
  234         h1      8    bbb    H16    234 0.13554100   1.008000   ; qtot 8.179531
  235         c3      8    bbb     C9    235 -0.06455200  12.010000   ; qtot 8.114979
  236         h1      8    bbb    H17    236 0.13554100   1.008000   ; qtot 8.250520
  237         h1      8    bbb    H18    237 0.13554100   1.008000   ; qtot 8.386061
  238         os      8    bbb     O1    238 -0.62587700  16.000000   ; qtot 7.760184
  239         hn      8    bbb    H19    239 0.23982500   1.008000   ; qtot 8.000009
; residue    9 bbb rtp bbb q 1.0
  240         n4      9    bbb     N1    240 0.03726400  14.010000   ; qtot 8.037273
  241         c3      9    bbb     C1    241 -0.07020100  12.010000   ; qtot 7.967072
  242         hx      9    bbb     H1    242 0.12219000   1.008000   ; qtot 8.089262
  243         hx      9    bbb     H2    243 0.12219000   1.008000   ; qtot 8.211452
  244         c3      9    bbb     C2    244 -0.07020100  12.010000   ; qtot 8.141251
  245         hx      9    bbb     H3    245 0.12219000   1.008000   ; qtot 8.263441
  246         hx      9    bbb     H4    246 0.12219000   1.008000   ; qtot 8.385631
  247         c3      9    bbb     C3    247 -0.39007700  12.010000   ; qtot 7.995554
  248         hx      9    bbb     H5    248 0.14940300   1.008000   ; qtot 8.144957
  249         hx      9    bbb     H6    249 0.14940300   1.008000   ; qtot 8.294360
  250         c3      9    bbb     C4    250 0.18057300  12.010000   ; qtot 8.474933
  251         hc      9    bbb     H7    251 0.01788900   1.008000   ; qtot 8.492822
  252         hc      9    bbb     H8    252 0.01788900   1.008000   ; qtot 8.510711
  253         c3      9    bbb     C5    253 -0.11337700  12.010000   ; qtot 8.397334
  254         hc      9    bbb     H9    254 0.09515400   1.008000   ; qtot 8.492488
  255         hc      9    bbb    H10    255 0.09515400   1.008000   ; qtot 8.587642
  256         c3      9    bbb     C6    256 -0.11337700  12.010000   ; qtot 8.474265
  257         hc      9    bbb    H11    257 0.09515400   1.008000   ; qtot 8.569419
  258         hc      9    bbb    H12    258 0.09515400   1.008000   ; qtot 8.664573
  259         c3      9    bbb     C7    259 0.21842400  12.010000   ; qtot 8.882997
  260         h1      9    bbb    H13    260 0.04500300   1.008000   ; qtot 8.928000
  261         h1      9    bbb    H14    261 0.04500300   1.008000   ; qtot 8.973003
  262         c3      9    bbb     C8    262 -0.06455200  12.010000   ; qtot 8.908451
  263         h1      9    bbb    H15    263 0.13554100   1.008000   ; qtot 9.043992
  264         h1      9    bbb    H16    264 0.13554100   1.008000   ; qtot 9.179533
  265         c3      9    bbb     C9    265 -0.06455200  12.010000   ; qtot 9.114981
  266         h1      9    bbb    H17    266 0.13554100   1.008000   ; qtot 9.250522
  267         h1      9    bbb    H18    267 0.13554100   1.008000   ; qtot 9.386063
  268         os      9    bbb     O1    268 -0.62587700  16.000000   ; qtot 8.760186
  269         hn      9    bbb    H19    269 0.23982500   1.008000   ; qtot 9.000011
; residue   10 bbb rtp bbb q 1.0
  270         n4     10    bbb     N1    270 0.03726400  14.010000   ; qtot 9.037275
  271         c3     10    bbb     C1    271 -0.07020100  12.010000   ; qtot 8.967074
  272         hx     10    bbb     H1    272 0.12219000   1.008000   ; qtot 9.089264
  273         hx     10    bbb     H2    273 0.12219000   1.008000   ; qtot 9.211454
  274         c3     10    bbb     C2    274 -0.07020100  12.010000   ; qtot 9.141253
  275         hx     10    bbb     H3    275 0.12219000   1.008000   ; qtot 9.263443
  276         hx     10    bbb     H4    276 0.12219000   1.008000   ; qtot 9.385633
  277         c3     10    bbb     C3    277 -0.39007700  12.010000   ; qtot 8.995556
  278         hx     10    bbb     H5    278 0.14940300   1.008000   ; qtot 9.144959
  279         hx     10    bbb     H6    279 0.14940300   1.008000   ; qtot 9.294362
  280         c3     10    bbb     C4    280 0.18057300  12.010000   ; qtot 9.474935
  281         hc     10    bbb     H7    281 0.01788900   1.008000   ; qtot 9.492824
  282         hc     10    bbb     H8    282 0.01788900   1.008000   ; qtot 9.510713
  283         c3     10    bbb     C5    283 -0.11337700  12.010000   ; qtot 9.397336
  284         hc     10    bbb     H9    284 0.09515400   1.008000   ; qtot 9.492490
  285         hc     10    bbb    H10    285 0.09515400   1.008000   ; qtot 9.587644
  286         c3     10    bbb     C6    286 -0.11337700  12.010000   ; qtot 9.474267
  287         hc     10    bbb    H11    287 0.09515400   1.008000   ; qtot 9.569421
  288         hc     10    bbb    H12    288 0.09515400   1.008000   ; qtot 9.664575
  289         c3     10    bbb     C7    289 0.21842400  12.010000   ; qtot 9.882999
  290         h1     10    bbb    H13    290 0.04500300   1.008000   ; qtot 9.928002
  291         h1     10    bbb    H14    291 0.04500300   1.008000   ; qtot 9.973005
  292         c3     10    bbb     C8    292 -0.06455200  12.010000   ; qtot 9.908453
  293         h1     10    bbb    H15    293 0.13554100   1.008000   ; qtot 10.043994
  294         h1     10    bbb    H16    294 0.13554100   1.008000   ; qtot 10.179535
  295         c3     10    bbb     C9    295 -0.06455200  12.010000   ; qtot 10.114983
  296         h1     10    bbb    H17    296 0.13554100   1.008000   ; qtot 10.250524
  297         h1     10    bbb    H18    297 0.13554100   1.008000   ; qtot 10.386065
  298         os     10    bbb     O1    298 -0.62587700  16.000000   ; qtot 9.760188
  299         hn     10    bbb    H19    299 0.23982500   1.008000   ; qtot 10.000013
; residue   11 bbb rtp bbb q 1.0
  300         n4     11    bbb     N1    300 0.03726400  14.010000   ; qtot 10.037277
  301         c3     11    bbb     C1    301 -0.07020100  12.010000   ; qtot 9.967076
  302         hx     11    bbb     H1    302 0.12219000   1.008000   ; qtot 10.089266
  303         hx     11    bbb     H2    303 0.12219000   1.008000   ; qtot 10.211456
  304         c3     11    bbb     C2    304 -0.07020100  12.010000   ; qtot 10.141255
  305         hx     11    bbb     H3    305 0.12219000   1.008000   ; qtot 10.263445
  306         hx     11    bbb     H4    306 0.12219000   1.008000   ; qtot 10.385635
  307         c3     11    bbb     C3    307 -0.39007700  12.010000   ; qtot 9.995558
  308         hx     11    bbb     H5    308 0.14940300   1.008000   ; qtot 10.144961
  309         hx     11    bbb     H6    309 0.14940300   1.008000   ; qtot 10.294364
  310         c3     11    bbb     C4    310 0.18057300  12.010000   ; qtot 10.474937
  311         hc     11    bbb     H7    311 0.01788900   1.008000   ; qtot 10.492826
  312         hc     11    bbb     H8    312 0.01788900   1.008000   ; qtot 10.510715
  313         c3     11    bbb     C5    313 -0.11337700  12.010000   ; qtot 10.397338
  314         hc     11    bbb     H9    314 0.09515400   1.008000   ; qtot 10.492492
  315         hc     11    bbb    H10    315 0.09515400   1.008000   ; qtot 10.587646
  316         c3     11    bbb     C6    316 -0.11337700  12.010000   ; qtot 10.474269
  317         hc     11    bbb    H11    317 0.09515400   1.008000   ; qtot 10.569423
  318         hc     11    bbb    H12    318 0.09515400   1.008000   ; qtot 10.664577
  319         c3     11    bbb     C7    319 0.21842400  12.010000   ; qtot 10.883001
  320         h1     11    bbb    H13    320 0.04500300   1.008000   ; qtot 10.928004
  321         h1     11    bbb    H14    321 0.04500300   1.008000   ; qtot 10.973007
  322         c3     11    bbb     C8    322 -0.06455200  12.010000   ; qtot 10.908455
  323         h1     11    bbb    H15    323 0.13554100   1.008000   ; qtot 11.043996
  324         h1     11    bbb    H16    324 0.13554100   1.008000   ; qtot 11.179537
  325         c3     11    bbb     C9    325 -0.06455200  12.010000   ; qtot 11.114985
  326         h1     11    bbb    H17    326 0.13554100   1.008000   ; qtot 11.250526
  327         h1     11    bbb    H18    327 0.13554100   1.008000   ; qtot 11.386067
  328         os     11    bbb     O1    328 -0.62587700  16.000000   ; qtot 10.760190
  329         hn     11    bbb    H19    329 0.23982500   1.008000   ; qtot 11.000015
; residue   12 bbb rtp bbb q 1.0
  330         n4     12    bbb     N1    330 0.03726400  14.010000   ; qtot 11.037279
  331         c3     12    bbb     C1    331 -0.07020100  12.010000   ; qtot 10.967078
  332         hx     12    bbb     H1    332 0.12219000   1.008000   ; qtot 11.089268
  333         hx     12    bbb     H2    333 0.12219000   1.008000   ; qtot 11.211458
  334         c3     12    bbb     C2    334 -0.07020100  12.010000   ; qtot 11.141257
  335         hx     12    bbb     H3    335 0.12219000   1.008000   ; qtot 11.263447
  336         hx     12    bbb     H4    336 0.12219000   1.008000   ; qtot 11.385637
  337         c3     12    bbb     C3    337 -0.39007700  12.010000   ; qtot 10.995560
  338         hx     12    bbb     H5    338 0.14940300   1.008000   ; qtot 11.144963
  339         hx     12    bbb     H6    339 0.14940300   1.008000   ; qtot 11.294366
  340         c3     12    bbb     C4    340 0.18057300  12.010000   ; qtot 11.474939
  341         hc     12    bbb     H7    341 0.01788900   1.008000   ; qtot 11.492828
  342         hc     12    bbb     H8    342 0.01788900   1.008000   ; qtot 11.510717
  343         c3     12    bbb     C5    343 -0.11337700  12.010000   ; qtot 11.397340
  344         hc     12    bbb     H9    344 0.09515400   1.008000   ; qtot 11.492494
  345         hc     12    bbb    H10    345 0.09515400   1.008000   ; qtot 11.587648
  346         c3     12    bbb     C6    346 -0.11337700  12.010000   ; qtot 11.474271
  347         hc     12    bbb    H11    347 0.09515400   1.008000   ; qtot 11.569425
  348         hc     12    bbb    H12    348 0.09515400   1.008000   ; qtot 11.664579
  349         c3     12    bbb     C7    349 0.21842400  12.010000   ; qtot 11.883003
  350         h1     12    bbb    H13    350 0.04500300   1.008000   ; qtot 11.928006
  351         h1     12    bbb    H14    351 0.04500300   1.008000   ; qtot 11.973009
  352         c3     12    bbb     C8    352 -0.06455200  12.010000   ; qtot 11.908457
  353         h1     12    bbb    H15    353 0.13554100   1.008000   ; qtot 12.043998
  354         h1     12    bbb    H16    354 0.13554100   1.008000   ; qtot 12.179539
  355         c3     12    bbb     C9    355 -0.06455200  12.010000   ; qtot 12.114987
  356         h1     12    bbb    H17    356 0.13554100   1.008000   ; qtot 12.250528
  357         h1     12    bbb    H18    357 0.13554100   1.008000   ; qtot 12.386069
  358         os     12    bbb     O1    358 -0.62587700  16.000000   ; qtot 11.760192
  359         hn     12    bbb    H19    359 0.23982500   1.008000   ; qtot 12.000017
; residue   13 bbb rtp bbb q 1.0
  360         n4     13    bbb     N1    360 0.03726400  14.010000   ; qtot 12.037281
  361         c3     13    bbb     C1    361 -0.07020100  12.010000   ; qtot 11.967080
  362         hx     13    bbb     H1    362 0.12219000   1.008000   ; qtot 12.089270
  363         hx     13    bbb     H2    363 0.12219000   1.008000   ; qtot 12.211460
  364         c3     13    bbb     C2    364 -0.07020100  12.010000   ; qtot 12.141259
  365         hx     13    bbb     H3    365 0.12219000   1.008000   ; qtot 12.263449
  366         hx     13    bbb     H4    366 0.12219000   1.008000   ; qtot 12.385639
  367         c3     13    bbb     C3    367 -0.39007700  12.010000   ; qtot 11.995562
  368         hx     13    bbb     H5    368 0.14940300   1.008000   ; qtot 12.144965
  369         hx     13    bbb     H6    369 0.14940300   1.008000   ; qtot 12.294368
  370         c3     13    bbb     C4    370 0.18057300  12.010000   ; qtot 12.474941
  371         hc     13    bbb     H7    371 0.01788900   1.008000   ; qtot 12.492830
  372         hc     13    bbb     H8    372 0.01788900   1.008000   ; qtot 12.510719
  373         c3     13    bbb     C5    373 -0.11337700  12.010000   ; qtot 12.397342
  374         hc     13    bbb     H9    374 0.09515400   1.008000   ; qtot 12.492496
  375         hc     13    bbb    H10    375 0.09515400   1.008000   ; qtot 12.587650
  376         c3     13    bbb     C6    376 -0.11337700  12.010000   ; qtot 12.474273
  377         hc     13    bbb    H11    377 0.09515400   1.008000   ; qtot 12.569427
  378         hc     13    bbb    H12    378 0.09515400   1.008000   ; qtot 12.664581
  379         c3     13    bbb     C7    379 0.21842400  12.010000   ; qtot 12.883005
  380         h1     13    bbb    H13    380 0.04500300   1.008000   ; qtot 12.928008
  381         h1     13    bbb    H14    381 0.04500300   1.008000   ; qtot 12.973011
  382         c3     13    bbb     C8    382 -0.06455200  12.010000   ; qtot 12.908459
  383         h1     13    bbb    H15    383 0.13554100   1.008000   ; qtot 13.044000
  384         h1     13    bbb    H16    384 0.13554100   1.008000   ; qtot 13.179541
  385         c3     13    bbb     C9    385 -0.06455200  12.010000   ; qtot 13.114989
  386         h1     13    bbb    H17    386 0.13554100   1.008000   ; qtot 13.250530
  387         h1     13    bbb    H18    387 0.13554100   1.008000   ; qtot 13.386071
  388         os     13    bbb     O1    388 -0.62587700  16.000000   ; qtot 12.760194
  389         hn     13    bbb    H19    389 0.23982500   1.008000   ; qtot 13.000019
; residue   14 bbb rtp bbb q 1.0
  390         n4     14    bbb     N1    390 0.03726400  14.010000   ; qtot 13.037283
  391         c3     14    bbb     C1    391 -0.07020100  12.010000   ; qtot 12.967082
  392         hx     14    bbb     H1    392 0.12219000   1.008000   ; qtot 13.089272
  393         hx     14    bbb     H2    393 0.12219000   1.008000   ; qtot 13.211462
  394         c3     14    bbb     C2    394 -0.07020100  12.010000   ; qtot 13.141261
  395         hx     14    bbb     H3    395 0.12219000   1.008000   ; qtot 13.263451
  396         hx     14    bbb     H4    396 0.12219000   1.008000   ; qtot 13.385641
  397         c3     14    bbb     C3    397 -0.39007700  12.010000   ; qtot 12.995564
  398         hx     14    bbb     H5    398 0.14940300   1.008000   ; qtot 13.144967
  399         hx     14    bbb     H6    399 0.14940300   1.008000   ; qtot 13.294370
  400         c3     14    bbb     C4    400 0.18057300  12.010000   ; qtot 13.474943
  401         hc     14    bbb     H7    401 0.01788900   1.008000   ; qtot 13.492832
  402         hc     14    bbb     H8    402 0.01788900   1.008000   ; qtot 13.510721
  403         c3     14    bbb     C5    403 -0.11337700  12.010000   ; qtot 13.397344
  404         hc     14    bbb     H9    404 0.09515400   1.008000   ; qtot 13.492498
  405         hc     14    bbb    H10    405 0.09515400   1.008000   ; qtot 13.587652
  406         c3     14    bbb     C6    406 -0.11337700  12.010000   ; qtot 13.474275
  407         hc     14    bbb    H11    407 0.09515400   1.008000   ; qtot 13.569429
  408         hc     14    bbb    H12    408 0.09515400   1.008000   ; qtot 13.664583
  409         c3     14    bbb     C7    409 0.21842400  12.010000   ; qtot 13.883007
  410         h1     14    bbb    H13    410 0.04500300   1.008000   ; qtot 13.928010
  411         h1     14    bbb    H14    411 0.04500300   1.008000   ; qtot 13.973013
  412         c3     14    bbb     C8    412 -0.06455200  12.010000   ; qtot 13.908461
  413         h1     14    bbb    H15    413 0.13554100   1.008000   ; qtot 14.044002
  414         h1     14    bbb    H16    414 0.13554100   1.008000   ; qtot 14.179543
  415         c3     14    bbb     C9    415 -0.06455200  12.010000   ; qtot 14.114991
  416         h1     14    bbb    H17    416 0.13554100   1.008000   ; qtot 14.250532
  417         h1     14    bbb    H18    417 0.13554100   1.008000   ; qtot 14.386073
  418         os     14    bbb     O1    418 -0.62587700  16.000000   ; qtot 13.760196
  419         hn     14    bbb    H19    419 0.23982500   1.008000   ; qtot 14.000021
; residue   15 bbb rtp bbb q 1.0
  420         n4     15    bbb     N1    420 0.03726400  14.010000   ; qtot 14.037285
  421         c3     15    bbb     C1    421 -0.07020100  12.010000   ; qtot 13.967084
  422         hx     15    bbb     H1    422 0.12219000   1.008000   ; qtot 14.089274
  423         hx     15    bbb     H2    423 0.12219000   1.008000   ; qtot 14.211464
  424         c3     15    bbb     C2    424 -0.07020100  12.010000   ; qtot 14.141263
  425         hx     15    bbb     H3    425 0.12219000   1.008000   ; qtot 14.263453
  426         hx     15    bbb     H4    426 0.12219000   1.008000   ; qtot 14.385643
  427         c3     15    bbb     C3    427 -0.39007700  12.010000   ; qtot 13.995566
  428         hx     15    bbb     H5    428 0.14940300   1.008000   ; qtot 14.144969
  429         hx     15    bbb     H6    429 0.14940300   1.008000   ; qtot 14.294372
  430         c3     15    bbb     C4    430 0.18057300  12.010000   ; qtot 14.474945
  431         hc     15    bbb     H7    431 0.01788900   1.008000   ; qtot 14.492834
  432         hc     15    bbb     H8    432 0.01788900   1.008000   ; qtot 14.510723
  433         c3     15    bbb     C5    433 -0.11337700  12.010000   ; qtot 14.397346
  434         hc     15    bbb     H9    434 0.09515400   1.008000   ; qtot 14.492500
  435         hc     15    bbb    H10    435 0.09515400   1.008000   ; qtot 14.587654
  436         c3     15    bbb     C6    436 -0.11337700  12.010000   ; qtot 14.474277
  437         hc     15    bbb    H11    437 0.09515400   1.008000   ; qtot 14.569431
  438         hc     15    bbb    H12    438 0.09515400   1.008000   ; qtot 14.664585
  439         c3     15    bbb     C7    439 0.21842400  12.010000   ; qtot 14.883009
  440         h1     15    bbb    H13    440 0.04500300   1.008000   ; qtot 14.928012
  441         h1     15    bbb    H14    441 0.04500300   1.008000   ; qtot 14.973015
  442         c3     15    bbb     C8    442 -0.06455200  12.010000   ; qtot 14.908463
  443         h1     15    bbb    H15    443 0.13554100   1.008000   ; qtot 15.044004
  444         h1     15    bbb    H16    444 0.13554100   1.008000   ; qtot 15.179545
  445         c3     15    bbb     C9    445 -0.06455200  12.010000   ; qtot 15.114993
  446         h1     15    bbb    H17    446 0.13554100   1.008000   ; qtot 15.250534
  447         h1     15    bbb    H18    447 0.13554100   1.008000   ; qtot 15.386075
  448         os     15    bbb     O1    448 -0.62587700  16.000000   ; qtot 14.760198
  449         hn     15    bbb    H19    449 0.23982500   1.008000   ; qtot 15.000023
; residue   16 bbb rtp bbb q 1.0
  450         n4     16    bbb     N1    450 0.03726400  14.010000   ; qtot 15.037287
  451         c3     16    bbb     C1    451 -0.07020100  12.010000   ; qtot 14.967086
  452         hx     16    bbb     H1    452 0.12219000   1.008000   ; qtot 15.089276
  453         hx     16    bbb     H2    453 0.12219000   1.008000   ; qtot 15.211466
  454         c3     16    bbb     C2    454 -0.07020100  12.010000   ; qtot 15.141265
  455         hx     16    bbb     H3    455 0.12219000   1.008000   ; qtot 15.263455
  456         hx     16    bbb     H4    456 0.12219000   1.008000   ; qtot 15.385645
  457         c3     16    bbb     C3    457 -0.39007700  12.010000   ; qtot 14.995568
  458         hx     16    bbb     H5    458 0.14940300   1.008000   ; qtot 15.144971
  459         hx     16    bbb     H6    459 0.14940300   1.008000   ; qtot 15.294374
  460         c3     16    bbb     C4    460 0.18057300  12.010000   ; qtot 15.474947
  461         hc     16    bbb     H7    461 0.01788900   1.008000   ; qtot 15.492836
  462         hc     16    bbb     H8    462 0.01788900   1.008000   ; qtot 15.510725
  463         c3     16    bbb     C5    463 -0.11337700  12.010000   ; qtot 15.397348
  464         hc     16    bbb     H9    464 0.09515400   1.008000   ; qtot 15.492502
  465         hc     16    bbb    H10    465 0.09515400   1.008000   ; qtot 15.587656
  466         c3     16    bbb     C6    466 -0.11337700  12.010000   ; qtot 15.474279
  467         hc     16    bbb    H11    467 0.09515400   1.008000   ; qtot 15.569433
  468         hc     16    bbb    H12    468 0.09515400   1.008000   ; qtot 15.664587
  469         c3     16    bbb     C7    469 0.21842400  12.010000   ; qtot 15.883011
  470         h1     16    bbb    H13    470 0.04500300   1.008000   ; qtot 15.928014
  471         h1     16    bbb    H14    471 0.04500300   1.008000   ; qtot 15.973017
  472         c3     16    bbb     C8    472 -0.06455200  12.010000   ; qtot 15.908465
  473         h1     16    bbb    H15    473 0.13554100   1.008000   ; qtot 16.044006
  474         h1     16    bbb    H16    474 0.13554100   1.008000   ; qtot 16.179547
  475         c3     16    bbb     C9    475 -0.06455200  12.010000   ; qtot 16.114995
  476         h1     16    bbb    H17    476 0.13554100   1.008000   ; qtot 16.250536
  477         h1     16    bbb    H18    477 0.13554100   1.008000   ; qtot 16.386077
  478         os     16    bbb     O1    478 -0.62587700  16.000000   ; qtot 15.760200
  479         hn     16    bbb    H19    479 0.23982500   1.008000   ; qtot 16.000025
; residue   17 bbb rtp bbb q 1.0
  480         n4     17    bbb     N1    480 0.03726400  14.010000   ; qtot 16.037289
  481         c3     17    bbb     C1    481 -0.07020100  12.010000   ; qtot 15.967088
  482         hx     17    bbb     H1    482 0.12219000   1.008000   ; qtot 16.089278
  483         hx     17    bbb     H2    483 0.12219000   1.008000   ; qtot 16.211468
  484         c3     17    bbb     C2    484 -0.07020100  12.010000   ; qtot 16.141267
  485         hx     17    bbb     H3    485 0.12219000   1.008000   ; qtot 16.263457
  486         hx     17    bbb     H4    486 0.12219000   1.008000   ; qtot 16.385647
  487         c3     17    bbb     C3    487 -0.39007700  12.010000   ; qtot 15.995570
  488         hx     17    bbb     H5    488 0.14940300   1.008000   ; qtot 16.144973
  489         hx     17    bbb     H6    489 0.14940300   1.008000   ; qtot 16.294376
  490         c3     17    bbb     C4    490 0.18057300  12.010000   ; qtot 16.474949
  491         hc     17    bbb     H7    491 0.01788900   1.008000   ; qtot 16.492838
  492         hc     17    bbb     H8    492 0.01788900   1.008000   ; qtot 16.510727
  493         c3     17    bbb     C5    493 -0.11337700  12.010000   ; qtot 16.397350
  494         hc     17    bbb     H9    494 0.09515400   1.008000   ; qtot 16.492504
  495         hc     17    bbb    H10    495 0.09515400   1.008000   ; qtot 16.587658
  496         c3     17    bbb     C6    496 -0.11337700  12.010000   ; qtot 16.474281
  497         hc     17    bbb    H11    497 0.09515400   1.008000   ; qtot 16.569435
  498         hc     17    bbb    H12    498 0.09515400   1.008000   ; qtot 16.664589
  499         c3     17    bbb     C7    499 0.21842400  12.010000   ; qtot 16.883013
  500         h1     17    bbb    H13    500 0.04500300   1.008000   ; qtot 16.928016
  501         h1     17    bbb    H14    501 0.04500300   1.008000   ; qtot 16.973019
  502         c3     17    bbb     C8    502 -0.06455200  12.010000   ; qtot 16.908467
  503         h1     17    bbb    H15    503 0.13554100   1.008000   ; qtot 17.044008
  504         h1     17    bbb    H16    504 0.13554100   1.008000   ; qtot 17.179549
  505         c3     17    bbb     C9    505 -0.06455200  12.010000   ; qtot 17.114997
  506         h1     17    bbb    H17    506 0.13554100   1.008000   ; qtot 17.250538
  507         h1     17    bbb    H18    507 0.13554100   1.008000   ; qtot 17.386079
  508         os     17    bbb     O1    508 -0.62587700  16.000000   ; qtot 16.760202
  509         hn     17    bbb    H19    509 0.23982500   1.008000   ; qtot 17.000027
; residue   18 bbb rtp bbb q 1.0
  510         n4     18    bbb     N1    510 0.03726400  14.010000   ; qtot 17.037291
  511         c3     18    bbb     C1    511 -0.07020100  12.010000   ; qtot 16.967090
  512         hx     18    bbb     H1    512 0.12219000   1.008000   ; qtot 17.089280
  513         hx     18    bbb     H2    513 0.12219000   1.008000   ; qtot 17.211470
  514         c3     18    bbb     C2    514 -0.07020100  12.010000   ; qtot 17.141269
  515         hx     18    bbb     H3    515 0.12219000   1.008000   ; qtot 17.263459
  516         hx     18    bbb     H4    516 0.12219000   1.008000   ; qtot 17.385649
  517         c3     18    bbb     C3    517 -0.39007700  12.010000   ; qtot 16.995572
  518         hx     18    bbb     H5    518 0.14940300   1.008000   ; qtot 17.144975
  519         hx     18    bbb     H6    519 0.14940300   1.008000   ; qtot 17.294378
  520         c3     18    bbb     C4    520 0.18057300  12.010000   ; qtot 17.474951
  521         hc     18    bbb     H7    521 0.01788900   1.008000   ; qtot 17.492840
  522         hc     18    bbb     H8    522 0.01788900   1.008000   ; qtot 17.510729
  523         c3     18    bbb     C5    523 -0.11337700  12.010000   ; qtot 17.397352
  524         hc     18    bbb     H9    524 0.09515400   1.008000   ; qtot 17.492506
  525         hc     18    bbb    H10    525 0.09515400   1.008000   ; qtot 17.587660
  526         c3     18    bbb     C6    526 -0.11337700  12.010000   ; qtot 17.474283
  527         hc     18    bbb    H11    527 0.09515400   1.008000   ; qtot 17.569437
  528         hc     18    bbb    H12    528 0.09515400   1.008000   ; qtot 17.664591
  529         c3     18    bbb     C7    529 0.21842400  12.010000   ; qtot 17.883015
  530         h1     18    bbb    H13    530 0.04500300   1.008000   ; qtot 17.928018
  531         h1     18    bbb    H14    531 0.04500300   1.008000   ; qtot 17.973021
  532         c3     18    bbb     C8    532 -0.06455200  12.010000   ; qtot 17.908469
  533         h1     18    bbb    H15    533 0.13554100   1.008000   ; qtot 18.044010
  534         h1     18    bbb    H16    534 0.13554100   1.008000   ; qtot 18.179551
  535         c3     18    bbb     C9    535 -0.06455200  12.010000   ; qtot 18.114999
  536         h1     18    bbb    H17    536 0.13554100   1.008000   ; qtot 18.250540
  537         h1     18    bbb    H18    537 0.13554100   1.008000   ; qtot 18.386081
  538         os     18    bbb     O1    538 -0.62587700  16.000000   ; qtot 17.760204
  539         hn     18    bbb    H19    539 0.23982500   1.008000   ; qtot 18.000029
; residue   19 bbb rtp bbb q 1.0
  540         n4     19    bbb     N1    540 0.03726400  14.010000   ; qtot 18.037293
  541         c3     19    bbb     C1    541 -0.07020100  12.010000   ; qtot 17.967092
  542         hx     19    bbb     H1    542 0.12219000   1.008000   ; qtot 18.089282
  543         hx     19    bbb     H2    543 0.12219000   1.008000   ; qtot 18.211472
  544         c3     19    bbb     C2    544 -0.07020100  12.010000   ; qtot 18.141271
  545         hx     19    bbb     H3    545 0.12219000   1.008000   ; qtot 18.263461
  546         hx     19    bbb     H4    546 0.12219000   1.008000   ; qtot 18.385651
  547         c3     19    bbb     C3    547 -0.39007700  12.010000   ; qtot 17.995574
  548         hx     19    bbb     H5    548 0.14940300   1.008000   ; qtot 18.144977
  549         hx     19    bbb     H6    549 0.14940300   1.008000   ; qtot 18.294380
  550         c3     19    bbb     C4    550 0.18057300  12.010000   ; qtot 18.474953
  551         hc     19    bbb     H7    551 0.01788900   1.008000   ; qtot 18.492842
  552         hc     19    bbb     H8    552 0.01788900   1.008000   ; qtot 18.510731
  553         c3     19    bbb     C5    553 -0.11337700  12.010000   ; qtot 18.397354
  554         hc     19    bbb     H9    554 0.09515400   1.008000   ; qtot 18.492508
  555         hc     19    bbb    H10    555 0.09515400   1.008000   ; qtot 18.587662
  556         c3     19    bbb     C6    556 -0.11337700  12.010000   ; qtot 18.474285
  557         hc     19    bbb    H11    557 0.09515400   1.008000   ; qtot 18.569439
  558         hc     19    bbb    H12    558 0.09515400   1.008000   ; qtot 18.664593
  559         c3     19    bbb     C7    559 0.21842400  12.010000   ; qtot 18.883017
  560         h1     19    bbb    H13    560 0.04500300   1.008000   ; qtot 18.928020
  561         h1     19    bbb    H14    561 0.04500300   1.008000   ; qtot 18.973023
  562         c3     19    bbb     C8    562 -0.06455200  12.010000   ; qtot 18.908471
  563         h1     19    bbb    H15    563 0.13554100   1.008000   ; qtot 19.044012
  564         h1     19    bbb    H16    564 0.13554100   1.008000   ; qtot 19.179553
  565         c3     19    bbb     C9    565 -0.06455200  12.010000   ; qtot 19.115001
  566         h1     19    bbb    H17    566 0.13554100   1.008000   ; qtot 19.250542
  567         h1     19    bbb    H18    567 0.13554100   1.008000   ; qtot 19.386083
  568         os     19    bbb     O1    568 -0.62587700  16.000000   ; qtot 18.760206
  569         hn     19    bbb    H19    569 0.23982500   1.008000   ; qtot 19.000031
; residue   20 bbb rtp bbb q 1.0
  570         n4     20    bbb     N1    570 0.03726400  14.010000   ; qtot 19.037295
  571         c3     20    bbb     C1    571 -0.07020100  12.010000   ; qtot 18.967094
  572         hx     20    bbb     H1    572 0.12219000   1.008000   ; qtot 19.089284
  573         hx     20    bbb     H2    573 0.12219000   1.008000   ; qtot 19.211474
  574         c3     20    bbb     C2    574 -0.07020100  12.010000   ; qtot 19.141273
  575         hx     20    bbb     H3    575 0.12219000   1.008000   ; qtot 19.263463
  576         hx     20    bbb     H4    576 0.12219000   1.008000   ; qtot 19.385653
  577         c3     20    bbb     C3    577 -0.39007700  12.010000   ; qtot 18.995576
  578         hx     20    bbb     H5    578 0.14940300   1.008000   ; qtot 19.144979
  579         hx     20    bbb     H6    579 0.14940300   1.008000   ; qtot 19.294382
  580         c3     20    bbb     C4    580 0.18057300  12.010000   ; qtot 19.474955
  581         hc     20    bbb     H7    581 0.01788900   1.008000   ; qtot 19.492844
  582         hc     20    bbb     H8    582 0.01788900   1.008000   ; qtot 19.510733
  583         c3     20    bbb     C5    583 -0.11337700  12.010000   ; qtot 19.397356
  584         hc     20    bbb     H9    584 0.09515400   1.008000   ; qtot 19.492510
  585         hc     20    bbb    H10    585 0.09515400   1.008000   ; qtot 19.587664
  586         c3     20    bbb     C6    586 -0.11337700  12.010000   ; qtot 19.474287
  587         hc     20    bbb    H11    587 0.09515400   1.008000   ; qtot 19.569441
  588         hc     20    bbb    H12    588 0.09515400   1.008000   ; qtot 19.664595
  589         c3     20    bbb     C7    589 0.21842400  12.010000   ; qtot 19.883019
  590         h1     20    bbb    H13    590 0.04500300   1.008000   ; qtot 19.928022
  591         h1     20    bbb    H14    591 0.04500300   1.008000   ; qtot 19.973025
  592         c3     20    bbb     C8    592 -0.06455200  12.010000   ; qtot 19.908473
  593         h1     20    bbb    H15    593 0.13554100   1.008000   ; qtot 20.044014
  594         h1     20    bbb    H16    594 0.13554100   1.008000   ; qtot 20.179555
  595         c3     20    bbb     C9    595 -0.06455200  12.010000   ; qtot 20.115003
  596         h1     20    bbb    H17    596 0.13554100   1.008000   ; qtot 20.250544
  597         h1     20    bbb    H18    597 0.13554100   1.008000   ; qtot 20.386085
  598         os     20    bbb     O1    598 -0.62587700  16.000000   ; qtot 19.760208
  599         hn     20    bbb    H19    599 0.23982500   1.008000   ; qtot 20.000033
; residue   21 bbb rtp bbb q 1.0
  600         n4     21    bbb     N1    600 0.03726400  14.010000   ; qtot 20.037297
  601         c3     21    bbb     C1    601 -0.07020100  12.010000   ; qtot 19.967096
  602         hx     21    bbb     H1    602 0.12219000   1.008000   ; qtot 20.089286
  603         hx     21    bbb     H2    603 0.12219000   1.008000   ; qtot 20.211476
  604         c3     21    bbb     C2    604 -0.07020100  12.010000   ; qtot 20.141275
  605         hx     21    bbb     H3    605 0.12219000   1.008000   ; qtot 20.263465
  606         hx     21    bbb     H4    606 0.12219000   1.008000   ; qtot 20.385655
  607         c3     21    bbb     C3    607 -0.39007700  12.010000   ; qtot 19.995578
  608         hx     21    bbb     H5    608 0.14940300   1.008000   ; qtot 20.144981
  609         hx     21    bbb     H6    609 0.14940300   1.008000   ; qtot 20.294384
  610         c3     21    bbb     C4    610 0.18057300  12.010000   ; qtot 20.474957
  611         hc     21    bbb     H7    611 0.01788900   1.008000   ; qtot 20.492846
  612         hc     21    bbb     H8    612 0.01788900   1.008000   ; qtot 20.510735
  613         c3     21    bbb     C5    613 -0.11337700  12.010000   ; qtot 20.397358
  614         hc     21    bbb     H9    614 0.09515400   1.008000   ; qtot 20.492512
  615         hc     21    bbb    H10    615 0.09515400   1.008000   ; qtot 20.587666
  616         c3     21    bbb     C6    616 -0.11337700  12.010000   ; qtot 20.474289
  617         hc     21    bbb    H11    617 0.09515400   1.008000   ; qtot 20.569443
  618         hc     21    bbb    H12    618 0.09515400   1.008000   ; qtot 20.664597
  619         c3     21    bbb     C7    619 0.21842400  12.010000   ; qtot 20.883021
  620         h1     21    bbb    H13    620 0.04500300   1.008000   ; qtot 20.928024
  621         h1     21    bbb    H14    621 0.04500300   1.008000   ; qtot 20.973027
  622         c3     21    bbb     C8    622 -0.06455200  12.010000   ; qtot 20.908475
  623         h1     21    bbb    H15    623 0.13554100   1.008000   ; qtot 21.044016
  624         h1     21    bbb    H16    624 0.13554100   1.008000   ; qtot 21.179557
  625         c3     21    bbb     C9    625 -0.06455200  12.010000   ; qtot 21.115005
  626         h1     21    bbb    H17    626 0.13554100   1.008000   ; qtot 21.250546
  627         h1     21    bbb    H18    627 0.13554100   1.008000   ; qtot 21.386087
  628         os     21    bbb     O1    628 -0.62587700  16.000000   ; qtot 20.760210
  629         hn     21    bbb    H19    629 0.23982500   1.008000   ; qtot 21.000035
; residue   22 bbb rtp bbb q 1.0
  630         n4     22    bbb     N1    630 0.03726400  14.010000   ; qtot 21.037299
  631         c3     22    bbb     C1    631 -0.07020100  12.010000   ; qtot 20.967098
  632         hx     22    bbb     H1    632 0.12219000   1.008000   ; qtot 21.089288
  633         hx     22    bbb     H2    633 0.12219000   1.008000   ; qtot 21.211478
  634         c3     22    bbb     C2    634 -0.07020100  12.010000   ; qtot 21.141277
  635         hx     22    bbb     H3    635 0.12219000   1.008000   ; qtot 21.263467
  636         hx     22    bbb     H4    636 0.12219000   1.008000   ; qtot 21.385657
  637         c3     22    bbb     C3    637 -0.39007700  12.010000   ; qtot 20.995580
  638         hx     22    bbb     H5    638 0.14940300   1.008000   ; qtot 21.144983
  639         hx     22    bbb     H6    639 0.14940300   1.008000   ; qtot 21.294386
  640         c3     22    bbb     C4    640 0.18057300  12.010000   ; qtot 21.474959
  641         hc     22    bbb     H7    641 0.01788900   1.008000   ; qtot 21.492848
  642         hc     22    bbb     H8    642 0.01788900   1.008000   ; qtot 21.510737
  643         c3     22    bbb     C5    643 -0.11337700  12.010000   ; qtot 21.397360
  644         hc     22    bbb     H9    644 0.09515400   1.008000   ; qtot 21.492514
  645         hc     22    bbb    H10    645 0.09515400   1.008000   ; qtot 21.587668
  646         c3     22    bbb     C6    646 -0.11337700  12.010000   ; qtot 21.474291
  647         hc     22    bbb    H11    647 0.09515400   1.008000   ; qtot 21.569445
  648         hc     22    bbb    H12    648 0.09515400   1.008000   ; qtot 21.664599
  649         c3     22    bbb     C7    649 0.21842400  12.010000   ; qtot 21.883023
  650         h1     22    bbb    H13    650 0.04500300   1.008000   ; qtot 21.928026
  651         h1     22    bbb    H14    651 0.04500300   1.008000   ; qtot 21.973029
  652         c3     22    bbb     C8    652 -0.06455200  12.010000   ; qtot 21.908477
  653         h1     22    bbb    H15    653 0.13554100   1.008000   ; qtot 22.044018
  654         h1     22    bbb    H16    654 0.13554100   1.008000   ; qtot 22.179559
  655         c3     22    bbb     C9    655 -0.06455200  12.010000   ; qtot 22.115007
  656         h1     22    bbb    H17    656 0.13554100   1.008000   ; qtot 22.250548
  657         h1     22    bbb    H18    657 0.13554100   1.008000   ; qtot 22.386089
  658         os     22    bbb     O1    658 -0.62587700  16.000000   ; qtot 21.760212
  659         hn     22    bbb    H19    659 0.23982500   1.008000   ; qtot 22.000037
; residue   23 bbb rtp bbb q 1.0
  660         n4     23    bbb     N1    660 0.03726400  14.010000   ; qtot 22.037301
  661         c3     23    bbb     C1    661 -0.07020100  12.010000   ; qtot 21.967100
  662         hx     23    bbb     H1    662 0.12219000   1.008000   ; qtot 22.089290
  663         hx     23    bbb     H2    663 0.12219000   1.008000   ; qtot 22.211480
  664         c3     23    bbb     C2    664 -0.07020100  12.010000   ; qtot 22.141279
  665         hx     23    bbb     H3    665 0.12219000   1.008000   ; qtot 22.263469
  666         hx     23    bbb     H4    666 0.12219000   1.008000   ; qtot 22.385659
  667         c3     23    bbb     C3    667 -0.39007700  12.010000   ; qtot 21.995582
  668         hx     23    bbb     H5    668 0.14940300   1.008000   ; qtot 22.144985
  669         hx     23    bbb     H6    669 0.14940300   1.008000   ; qtot 22.294388
  670         c3     23    bbb     C4    670 0.18057300  12.010000   ; qtot 22.474961
  671         hc     23    bbb     H7    671 0.01788900   1.008000   ; qtot 22.492850
  672         hc     23    bbb     H8    672 0.01788900   1.008000   ; qtot 22.510739
  673         c3     23    bbb     C5    673 -0.11337700  12.010000   ; qtot 22.397362
  674         hc     23    bbb     H9    674 0.09515400   1.008000   ; qtot 22.492516
  675         hc     23    bbb    H10    675 0.09515400   1.008000   ; qtot 22.587670
  676         c3     23    bbb     C6    676 -0.11337700  12.010000   ; qtot 22.474293
  677         hc     23    bbb    H11    677 0.09515400   1.008000   ; qtot 22.569447
  678         hc     23    bbb    H12    678 0.09515400   1.008000   ; qtot 22.664601
  679         c3     23    bbb     C7    679 0.21842400  12.010000   ; qtot 22.883025
  680         h1     23    bbb    H13    680 0.04500300   1.008000   ; qtot 22.928028
  681         h1     23    bbb    H14    681 0.04500300   1.008000   ; qtot 22.973031
  682         c3     23    bbb     C8    682 -0.06455200  12.010000   ; qtot 22.908479
  683         h1     23    bbb    H15    683 0.13554100   1.008000   ; qtot 23.044020
  684         h1     23    bbb    H16    684 0.13554100   1.008000   ; qtot 23.179561
  685         c3     23    bbb     C9    685 -0.06455200  12.010000   ; qtot 23.115009
  686         h1     23    bbb    H17    686 0.13554100   1.008000   ; qtot 23.250550
  687         h1     23    bbb    H18    687 0.13554100   1.008000   ; qtot 23.386091
  688         os     23    bbb     O1    688 -0.62587700  16.000000   ; qtot 22.760214
  689         hn     23    bbb    H19    689 0.23982500   1.008000   ; qtot 23.000039
; residue   24 bbb rtp bbb q 1.0
  690         n4     24    bbb     N1    690 0.03726400  14.010000   ; qtot 23.037303
  691         c3     24    bbb     C1    691 -0.07020100  12.010000   ; qtot 22.967102
  692         hx     24    bbb     H1    692 0.12219000   1.008000   ; qtot 23.089292
  693         hx     24    bbb     H2    693 0.12219000   1.008000   ; qtot 23.211482
  694         c3     24    bbb     C2    694 -0.07020100  12.010000   ; qtot 23.141281
  695         hx     24    bbb     H3    695 0.12219000   1.008000   ; qtot 23.263471
  696         hx     24    bbb     H4    696 0.12219000   1.008000   ; qtot 23.385661
  697         c3     24    bbb     C3    697 -0.39007700  12.010000   ; qtot 22.995584
  698         hx     24    bbb     H5    698 0.14940300   1.008000   ; qtot 23.144987
  699         hx     24    bbb     H6    699 0.14940300   1.008000   ; qtot 23.294390
  700         c3     24    bbb     C4    700 0.18057300  12.010000   ; qtot 23.474963
  701         hc     24    bbb     H7    701 0.01788900   1.008000   ; qtot 23.492852
  702         hc     24    bbb     H8    702 0.01788900   1.008000   ; qtot 23.510741
  703         c3     24    bbb     C5    703 -0.11337700  12.010000   ; qtot 23.397364
  704         hc     24    bbb     H9    704 0.09515400   1.008000   ; qtot 23.492518
  705         hc     24    bbb    H10    705 0.09515400   1.008000   ; qtot 23.587672
  706         c3     24    bbb     C6    706 -0.11337700  12.010000   ; qtot 23.474295
  707         hc     24    bbb    H11    707 0.09515400   1.008000   ; qtot 23.569449
  708         hc     24    bbb    H12    708 0.09515400   1.008000   ; qtot 23.664603
  709         c3     24    bbb     C7    709 0.21842400  12.010000   ; qtot 23.883027
  710         h1     24    bbb    H13    710 0.04500300   1.008000   ; qtot 23.928030
  711         h1     24    bbb    H14    711 0.04500300   1.008000   ; qtot 23.973033
  712         c3     24    bbb     C8    712 -0.06455200  12.010000   ; qtot 23.908481
  713         h1     24    bbb    H15    713 0.13554100   1.008000   ; qtot 24.044022
  714         h1     24    bbb    H16    714 0.13554100   1.008000   ; qtot 24.179563
  715         c3     24    bbb     C9    715 -0.06455200  12.010000   ; qtot 24.115011
  716         h1     24    bbb    H17    716 0.13554100   1.008000   ; qtot 24.250552
  717         h1     24    bbb    H18    717 0.13554100   1.008000   ; qtot 24.386093
  718         os     24    bbb     O1    718 -0.62587700  16.000000   ; qtot 23.760216
  719         hn     24    bbb    H19    719 0.23982500   1.008000   ; qtot 24.000041
; residue   25 bbb rtp bbb q 1.0
  720         n4     25    bbb     N1    720 0.03726400  14.010000   ; qtot 24.037305
  721         c3     25    bbb     C1    721 -0.07020100  12.010000   ; qtot 23.967104
  722         hx     25    bbb     H1    722 0.12219000   1.008000   ; qtot 24.089294
  723         hx     25    bbb     H2    723 0.12219000   1.008000   ; qtot 24.211484
  724         c3     25    bbb     C2    724 -0.07020100  12.010000   ; qtot 24.141283
  725         hx     25    bbb     H3    725 0.12219000   1.008000   ; qtot 24.263473
  726         hx     25    bbb     H4    726 0.12219000   1.008000   ; qtot 24.385663
  727         c3     25    bbb     C3    727 -0.39007700  12.010000   ; qtot 23.995586
  728         hx     25    bbb     H5    728 0.14940300   1.008000   ; qtot 24.144989
  729         hx     25    bbb     H6    729 0.14940300   1.008000   ; qtot 24.294392
  730         c3     25    bbb     C4    730 0.18057300  12.010000   ; qtot 24.474965
  731         hc     25    bbb     H7    731 0.01788900   1.008000   ; qtot 24.492854
  732         hc     25    bbb     H8    732 0.01788900   1.008000   ; qtot 24.510743
  733         c3     25    bbb     C5    733 -0.11337700  12.010000   ; qtot 24.397366
  734         hc     25    bbb     H9    734 0.09515400   1.008000   ; qtot 24.492520
  735         hc     25    bbb    H10    735 0.09515400   1.008000   ; qtot 24.587674
  736         c3     25    bbb     C6    736 -0.11337700  12.010000   ; qtot 24.474297
  737         hc     25    bbb    H11    737 0.09515400   1.008000   ; qtot 24.569451
  738         hc     25    bbb    H12    738 0.09515400   1.008000   ; qtot 24.664605
  739         c3     25    bbb     C7    739 0.21842400  12.010000   ; qtot 24.883029
  740         h1     25    bbb    H13    740 0.04500300   1.008000   ; qtot 24.928032
  741         h1     25    bbb    H14    741 0.04500300   1.008000   ; qtot 24.973035
  742         c3     25    bbb     C8    742 -0.06455200  12.010000   ; qtot 24.908483
  743         h1     25    bbb    H15    743 0.13554100   1.008000   ; qtot 25.044024
  744         h1     25    bbb    H16    744 0.13554100   1.008000   ; qtot 25.179565
  745         c3     25    bbb     C9    745 -0.06455200  12.010000   ; qtot 25.115013
  746         h1     25    bbb    H17    746 0.13554100   1.008000   ; qtot 25.250554
  747         h1     25    bbb    H18    747 0.13554100   1.008000   ; qtot 25.386095
  748         os     25    bbb     O1    748 -0.62587700  16.000000   ; qtot 24.760218
  749         hn     25    bbb    H19    749 0.23982500   1.008000   ; qtot 25.000043
; residue   26 bbb rtp bbb q 1.0
  750         n4     26    bbb     N1    750 0.03726400  14.010000   ; qtot 25.037307
  751         c3     26    bbb     C1    751 -0.07020100  12.010000   ; qtot 24.967106
  752         hx     26    bbb     H1    752 0.12219000   1.008000   ; qtot 25.089296
  753         hx     26    bbb     H2    753 0.12219000   1.008000   ; qtot 25.211486
  754         c3     26    bbb     C2    754 -0.07020100  12.010000   ; qtot 25.141285
  755         hx     26    bbb     H3    755 0.12219000   1.008000   ; qtot 25.263475
  756         hx     26    bbb     H4    756 0.12219000   1.008000   ; qtot 25.385665
  757         c3     26    bbb     C3    757 -0.39007700  12.010000   ; qtot 24.995588
  758         hx     26    bbb     H5    758 0.14940300   1.008000   ; qtot 25.144991
  759         hx     26    bbb     H6    759 0.14940300   1.008000   ; qtot 25.294394
  760         c3     26    bbb     C4    760 0.18057300  12.010000   ; qtot 25.474967
  761         hc     26    bbb     H7    761 0.01788900   1.008000   ; qtot 25.492856
  762         hc     26    bbb     H8    762 0.01788900   1.008000   ; qtot 25.510745
  763         c3     26    bbb     C5    763 -0.11337700  12.010000   ; qtot 25.397368
  764         hc     26    bbb     H9    764 0.09515400   1.008000   ; qtot 25.492522
  765         hc     26    bbb    H10    765 0.09515400   1.008000   ; qtot 25.587676
  766         c3     26    bbb     C6    766 -0.11337700  12.010000   ; qtot 25.474299
  767         hc     26    bbb    H11    767 0.09515400   1.008000   ; qtot 25.569453
  768         hc     26    bbb    H12    768 0.09515400   1.008000   ; qtot 25.664607
  769         c3     26    bbb     C7    769 0.21842400  12.010000   ; qtot 25.883031
  770         h1     26    bbb    H13    770 0.04500300   1.008000   ; qtot 25.928034
  771         h1     26    bbb    H14    771 0.04500300   1.008000   ; qtot 25.973037
  772         c3     26    bbb     C8    772 -0.06455200  12.010000   ; qtot 25.908485
  773         h1     26    bbb    H15    773 0.13554100   1.008000   ; qtot 26.044026
  774         h1     26    bbb    H16    774 0.13554100   1.008000   ; qtot 26.179567
  775         c3     26    bbb     C9    775 -0.06455200  12.010000   ; qtot 26.115015
  776         h1     26    bbb    H17    776 0.13554100   1.008000   ; qtot 26.250556
  777         h1     26    bbb    H18    777 0.13554100   1.008000   ; qtot 26.386097
  778         os     26    bbb     O1    778 -0.62587700  16.000000   ; qtot 25.760220
  779         hn     26    bbb    H19    779 0.23982500   1.008000   ; qtot 26.000045
; residue   27 bbb rtp bbb q 1.0
  780         n4     27    bbb     N1    780 0.03726400  14.010000   ; qtot 26.037309
  781         c3     27    bbb     C1    781 -0.07020100  12.010000   ; qtot 25.967108
  782         hx     27    bbb     H1    782 0.12219000   1.008000   ; qtot 26.089298
  783         hx     27    bbb     H2    783 0.12219000   1.008000   ; qtot 26.211488
  784         c3     27    bbb     C2    784 -0.07020100  12.010000   ; qtot 26.141287
  785         hx     27    bbb     H3    785 0.12219000   1.008000   ; qtot 26.263477
  786         hx     27    bbb     H4    786 0.12219000   1.008000   ; qtot 26.385667
  787         c3     27    bbb     C3    787 -0.39007700  12.010000   ; qtot 25.995590
  788         hx     27    bbb     H5    788 0.14940300   1.008000   ; qtot 26.144993
  789         hx     27    bbb     H6    789 0.14940300   1.008000   ; qtot 26.294396
  790         c3     27    bbb     C4    790 0.18057300  12.010000   ; qtot 26.474969
  791         hc     27    bbb     H7    791 0.01788900   1.008000   ; qtot 26.492858
  792         hc     27    bbb     H8    792 0.01788900   1.008000   ; qtot 26.510747
  793         c3     27    bbb     C5    793 -0.11337700  12.010000   ; qtot 26.397370
  794         hc     27    bbb     H9    794 0.09515400   1.008000   ; qtot 26.492524
  795         hc     27    bbb    H10    795 0.09515400   1.008000   ; qtot 26.587678
  796         c3     27    bbb     C6    796 -0.11337700  12.010000   ; qtot 26.474301
  797         hc     27    bbb    H11    797 0.09515400   1.008000   ; qtot 26.569455
  798         hc     27    bbb    H12    798 0.09515400   1.008000   ; qtot 26.664609
  799         c3     27    bbb     C7    799 0.21842400  12.010000   ; qtot 26.883033
  800         h1     27    bbb    H13    800 0.04500300   1.008000   ; qtot 26.928036
  801         h1     27    bbb    H14    801 0.04500300   1.008000   ; qtot 26.973039
  802         c3     27    bbb     C8    802 -0.06455200  12.010000   ; qtot 26.908487
  803         h1     27    bbb    H15    803 0.13554100   1.008000   ; qtot 27.044028
  804         h1     27    bbb    H16    804 0.13554100   1.008000   ; qtot 27.179569
  805         c3     27    bbb     C9    805 -0.06455200  12.010000   ; qtot 27.115017
  806         h1     27    bbb    H17    806 0.13554100   1.008000   ; qtot 27.250558
  807         h1     27    bbb    H18    807 0.13554100   1.008000   ; qtot 27.386099
  808         os     27    bbb     O1    808 -0.62587700  16.000000   ; qtot 26.760222
  809         hn     27    bbb    H19    809 0.23982500   1.008000   ; qtot 27.000047
; residue   28 bbb rtp bbb q 1.0
  810         n4     28    bbb     N1    810 0.03726400  14.010000   ; qtot 27.037311
  811         c3     28    bbb     C1    811 -0.07020100  12.010000   ; qtot 26.967110
  812         hx     28    bbb     H1    812 0.12219000   1.008000   ; qtot 27.089300
  813         hx     28    bbb     H2    813 0.12219000   1.008000   ; qtot 27.211490
  814         c3     28    bbb     C2    814 -0.07020100  12.010000   ; qtot 27.141289
  815         hx     28    bbb     H3    815 0.12219000   1.008000   ; qtot 27.263479
  816         hx     28    bbb     H4    816 0.12219000   1.008000   ; qtot 27.385669
  817         c3     28    bbb     C3    817 -0.39007700  12.010000   ; qtot 26.995592
  818         hx     28    bbb     H5    818 0.14940300   1.008000   ; qtot 27.144995
  819         hx     28    bbb     H6    819 0.14940300   1.008000   ; qtot 27.294398
  820         c3     28    bbb     C4    820 0.18057300  12.010000   ; qtot 27.474971
  821         hc     28    bbb     H7    821 0.01788900   1.008000   ; qtot 27.492860
  822         hc     28    bbb     H8    822 0.01788900   1.008000   ; qtot 27.510749
  823         c3     28    bbb     C5    823 -0.11337700  12.010000   ; qtot 27.397372
  824         hc     28    bbb     H9    824 0.09515400   1.008000   ; qtot 27.492526
  825         hc     28    bbb    H10    825 0.09515400   1.008000   ; qtot 27.587680
  826         c3     28    bbb     C6    826 -0.11337700  12.010000   ; qtot 27.474303
  827         hc     28    bbb    H11    827 0.09515400   1.008000   ; qtot 27.569457
  828         hc     28    bbb    H12    828 0.09515400   1.008000   ; qtot 27.664611
  829         c3     28    bbb     C7    829 0.21842400  12.010000   ; qtot 27.883035
  830         h1     28    bbb    H13    830 0.04500300   1.008000   ; qtot 27.928038
  831         h1     28    bbb    H14    831 0.04500300   1.008000   ; qtot 27.973041
  832         c3     28    bbb     C8    832 -0.06455200  12.010000   ; qtot 27.908489
  833         h1     28    bbb    H15    833 0.13554100   1.008000   ; qtot 28.044030
  834         h1     28    bbb    H16    834 0.13554100   1.008000   ; qtot 28.179571
  835         c3     28    bbb     C9    835 -0.06455200  12.010000   ; qtot 28.115019
  836         h1     28    bbb    H17    836 0.13554100   1.008000   ; qtot 28.250560
  837         h1     28    bbb    H18    837 0.13554100   1.008000   ; qtot 28.386101
  838         os     28    bbb     O1    838 -0.62587700  16.000000   ; qtot 27.760224
  839         hn     28    bbb    H19    839 0.23982500   1.008000   ; qtot 28.000049
; residue   29 bbb rtp bbb q 1.0
  840         n4     29    bbb     N1    840 0.03726400  14.010000   ; qtot 28.037313
  841         c3     29    bbb     C1    841 -0.07020100  12.010000   ; qtot 27.967112
  842         hx     29    bbb     H1    842 0.12219000   1.008000   ; qtot 28.089302
  843         hx     29    bbb     H2    843 0.12219000   1.008000   ; qtot 28.211492
  844         c3     29    bbb     C2    844 -0.07020100  12.010000   ; qtot 28.141291
  845         hx     29    bbb     H3    845 0.12219000   1.008000   ; qtot 28.263481
  846         hx     29    bbb     H4    846 0.12219000   1.008000   ; qtot 28.385671
  847         c3     29    bbb     C3    847 -0.39007700  12.010000   ; qtot 27.995594
  848         hx     29    bbb     H5    848 0.14940300   1.008000   ; qtot 28.144997
  849         hx     29    bbb     H6    849 0.14940300   1.008000   ; qtot 28.294400
  850         c3     29    bbb     C4    850 0.18057300  12.010000   ; qtot 28.474973
  851         hc     29    bbb     H7    851 0.01788900   1.008000   ; qtot 28.492862
  852         hc     29    bbb     H8    852 0.01788900   1.008000   ; qtot 28.510751
  853         c3     29    bbb     C5    853 -0.11337700  12.010000   ; qtot 28.397374
  854         hc     29    bbb     H9    854 0.09515400   1.008000   ; qtot 28.492528
  855         hc     29    bbb    H10    855 0.09515400   1.008000   ; qtot 28.587682
  856         c3     29    bbb     C6    856 -0.11337700  12.010000   ; qtot 28.474305
  857         hc     29    bbb    H11    857 0.09515400   1.008000   ; qtot 28.569459
  858         hc     29    bbb    H12    858 0.09515400   1.008000   ; qtot 28.664613
  859         c3     29    bbb     C7    859 0.21842400  12.010000   ; qtot 28.883037
  860         h1     29    bbb    H13    860 0.04500300   1.008000   ; qtot 28.928040
  861         h1     29    bbb    H14    861 0.04500300   1.008000   ; qtot 28.973043
  862         c3     29    bbb     C8    862 -0.06455200  12.010000   ; qtot 28.908491
  863         h1     29    bbb    H15    863 0.13554100   1.008000   ; qtot 29.044032
  864         h1     29    bbb    H16    864 0.13554100   1.008000   ; qtot 29.179573
  865         c3     29    bbb     C9    865 -0.06455200  12.010000   ; qtot 29.115021
  866         h1     29    bbb    H17    866 0.13554100   1.008000   ; qtot 29.250562
  867         h1     29    bbb    H18    867 0.13554100   1.008000   ; qtot 29.386103
  868         os     29    bbb     O1    868 -0.62587700  16.000000   ; qtot 28.760226
  869         hn     29    bbb    H19    869 0.23982500   1.008000   ; qtot 29.000051
; residue   30 bbb rtp bbb q 1.0
  870         n4     30    bbb     N1    870 0.03726400  14.010000   ; qtot 29.037315
  871         c3     30    bbb     C1    871 -0.07020100  12.010000   ; qtot 28.967114
  872         hx     30    bbb     H1    872 0.12219000   1.008000   ; qtot 29.089304
  873         hx     30    bbb     H2    873 0.12219000   1.008000   ; qtot 29.211494
  874         c3     30    bbb     C2    874 -0.07020100  12.010000   ; qtot 29.141293
  875         hx     30    bbb     H3    875 0.12219000   1.008000   ; qtot 29.263483
  876         hx     30    bbb     H4    876 0.12219000   1.008000   ; qtot 29.385673
  877         c3     30    bbb     C3    877 -0.39007700  12.010000   ; qtot 28.995596
  878         hx     30    bbb     H5    878 0.14940300   1.008000   ; qtot 29.144999
  879         hx     30    bbb     H6    879 0.14940300   1.008000   ; qtot 29.294402
  880         c3     30    bbb     C4    880 0.18057300  12.010000   ; qtot 29.474975
  881         hc     30    bbb     H7    881 0.01788900   1.008000   ; qtot 29.492864
  882         hc     30    bbb     H8    882 0.01788900   1.008000   ; qtot 29.510753
  883         c3     30    bbb     C5    883 -0.11337700  12.010000   ; qtot 29.397376
  884         hc     30    bbb     H9    884 0.09515400   1.008000   ; qtot 29.492530
  885         hc     30    bbb    H10    885 0.09515400   1.008000   ; qtot 29.587684
  886         c3     30    bbb     C6    886 -0.11337700  12.010000   ; qtot 29.474307
  887         hc     30    bbb    H11    887 0.09515400   1.008000   ; qtot 29.569461
  888         hc     30    bbb    H12    888 0.09515400   1.008000   ; qtot 29.664615
  889         c3     30    bbb     C7    889 0.21842400  12.010000   ; qtot 29.883039
  890         h1     30    bbb    H13    890 0.04500300   1.008000   ; qtot 29.928042
  891         h1     30    bbb    H14    891 0.04500300   1.008000   ; qtot 29.973045
  892         c3     30    bbb     C8    892 -0.06455200  12.010000   ; qtot 29.908493
  893         h1     30    bbb    H15    893 0.13554100   1.008000   ; qtot 30.044034
  894         h1     30    bbb    H16    894 0.13554100   1.008000   ; qtot 30.179575
  895         c3     30    bbb     C9    895 -0.06455200  12.010000   ; qtot 30.115023
  896         h1     30    bbb    H17    896 0.13554100   1.008000   ; qtot 30.250564
  897         h1     30    bbb    H18    897 0.13554100   1.008000   ; qtot 30.386105
  898         os     30    bbb     O1    898 -0.62587700  16.000000   ; qtot 29.760228
  899         hn     30    bbb    H19    899 0.23982500   1.008000   ; qtot 30.000053
; residue   31 bbb rtp bbb q 1.0
  900         n4     31    bbb     N1    900 0.03726400  14.010000   ; qtot 30.037317
  901         c3     31    bbb     C1    901 -0.07020100  12.010000   ; qtot 29.967116
  902         hx     31    bbb     H1    902 0.12219000   1.008000   ; qtot 30.089306
  903         hx     31    bbb     H2    903 0.12219000   1.008000   ; qtot 30.211496
  904         c3     31    bbb     C2    904 -0.07020100  12.010000   ; qtot 30.141295
  905         hx     31    bbb     H3    905 0.12219000   1.008000   ; qtot 30.263485
  906         hx     31    bbb     H4    906 0.12219000   1.008000   ; qtot 30.385675
  907         c3     31    bbb     C3    907 -0.39007700  12.010000   ; qtot 29.995598
  908         hx     31    bbb     H5    908 0.14940300   1.008000   ; qtot 30.145001
  909         hx     31    bbb     H6    909 0.14940300   1.008000   ; qtot 30.294404
  910         c3     31    bbb     C4    910 0.18057300  12.010000   ; qtot 30.474977
  911         hc     31    bbb     H7    911 0.01788900   1.008000   ; qtot 30.492866
  912         hc     31    bbb     H8    912 0.01788900   1.008000   ; qtot 30.510755
  913         c3     31    bbb     C5    913 -0.11337700  12.010000   ; qtot 30.397378
  914         hc     31    bbb     H9    914 0.09515400   1.008000   ; qtot 30.492532
  915         hc     31    bbb    H10    915 0.09515400   1.008000   ; qtot 30.587686
  916         c3     31    bbb     C6    916 -0.11337700  12.010000   ; qtot 30.474309
  917         hc     31    bbb    H11    917 0.09515400   1.008000   ; qtot 30.569463
  918         hc     31    bbb    H12    918 0.09515400   1.008000   ; qtot 30.664617
  919         c3     31    bbb     C7    919 0.21842400  12.010000   ; qtot 30.883041
  920         h1     31    bbb    H13    920 0.04500300   1.008000   ; qtot 30.928044
  921         h1     31    bbb    H14    921 0.04500300   1.008000   ; qtot 30.973047
  922         c3     31    bbb     C8    922 -0.06455200  12.010000   ; qtot 30.908495
  923         h1     31    bbb    H15    923 0.13554100   1.008000   ; qtot 31.044036
  924         h1     31    bbb    H16    924 0.13554100   1.008000   ; qtot 31.179577
  925         c3     31    bbb     C9    925 -0.06455200  12.010000   ; qtot 31.115025
  926         h1     31    bbb    H17    926 0.13554100   1.008000   ; qtot 31.250566
  927         h1     31    bbb    H18    927 0.13554100   1.008000   ; qtot 31.386107
  928         os     31    bbb     O1    928 -0.62587700  16.000000   ; qtot 30.760230
  929         hn     31    bbb    H19    929 0.23982500   1.008000   ; qtot 31.000055
; residue   32 bbb rtp bbb q 1.0
  930         n4     32    bbb     N1    930 0.03726400  14.010000   ; qtot 31.037319
  931         c3     32    bbb     C1    931 -0.07020100  12.010000   ; qtot 30.967118
  932         hx     32    bbb     H1    932 0.12219000   1.008000   ; qtot 31.089308
  933         hx     32    bbb     H2    933 0.12219000   1.008000   ; qtot 31.211498
  934         c3     32    bbb     C2    934 -0.07020100  12.010000   ; qtot 31.141297
  935         hx     32    bbb     H3    935 0.12219000   1.008000   ; qtot 31.263487
  936         hx     32    bbb     H4    936 0.12219000   1.008000   ; qtot 31.385677
  937         c3     32    bbb     C3    937 -0.39007700  12.010000   ; qtot 30.995600
  938         hx     32    bbb     H5    938 0.14940300   1.008000   ; qtot 31.145003
  939         hx     32    bbb     H6    939 0.14940300   1.008000   ; qtot 31.294406
  940         c3     32    bbb     C4    940 0.18057300  12.010000   ; qtot 31.474979
  941         hc     32    bbb     H7    941 0.01788900   1.008000   ; qtot 31.492868
  942         hc     32    bbb     H8    942 0.01788900   1.008000   ; qtot 31.510757
  943         c3     32    bbb     C5    943 -0.11337700  12.010000   ; qtot 31.397380
  944         hc     32    bbb     H9    944 0.09515400   1.008000   ; qtot 31.492534
  945         hc     32    bbb    H10    945 0.09515400   1.008000   ; qtot 31.587688
  946         c3     32    bbb     C6    946 -0.11337700  12.010000   ; qtot 31.474311
  947         hc     32    bbb    H11    947 0.09515400   1.008000   ; qtot 31.569465
  948         hc     32    bbb    H12    948 0.09515400   1.008000   ; qtot 31.664619
  949         c3     32    bbb     C7    949 0.21842400  12.010000   ; qtot 31.883043
  950         h1     32    bbb    H13    950 0.04500300   1.008000   ; qtot 31.928046
  951         h1     32    bbb    H14    951 0.04500300   1.008000   ; qtot 31.973049
  952         c3     32    bbb     C8    952 -0.06455200  12.010000   ; qtot 31.908497
  953         h1     32    bbb    H15    953 0.13554100   1.008000   ; qtot 32.044038
  954         h1     32    bbb    H16    954 0.13554100   1.008000   ; qtot 32.179579
  955         c3     32    bbb     C9    955 -0.06455200  12.010000   ; qtot 32.115027
  956         h1     32    bbb    H17    956 0.13554100   1.008000   ; qtot 32.250568
  957         h1     32    bbb    H18    957 0.13554100   1.008000   ; qtot 32.386109
  958         os     32    bbb     O1    958 -0.62587700  16.000000   ; qtot 31.760232
  959         hn     32    bbb    H19    959 0.23982500   1.008000   ; qtot 32.000057
; residue   33 bbb rtp bbb q 1.0
  960         n4     33    bbb     N1    960 0.03726400  14.010000   ; qtot 32.037321
  961         c3     33    bbb     C1    961 -0.07020100  12.010000   ; qtot 31.967120
  962         hx     33    bbb     H1    962 0.12219000   1.008000   ; qtot 32.089310
  963         hx     33    bbb     H2    963 0.12219000   1.008000   ; qtot 32.211500
  964         c3     33    bbb     C2    964 -0.07020100  12.010000   ; qtot 32.141299
  965         hx     33    bbb     H3    965 0.12219000   1.008000   ; qtot 32.263489
  966         hx     33    bbb     H4    966 0.12219000   1.008000   ; qtot 32.385679
  967         c3     33    bbb     C3    967 -0.39007700  12.010000   ; qtot 31.995602
  968         hx     33    bbb     H5    968 0.14940300   1.008000   ; qtot 32.145005
  969         hx     33    bbb     H6    969 0.14940300   1.008000   ; qtot 32.294408
  970         c3     33    bbb     C4    970 0.18057300  12.010000   ; qtot 32.474981
  971         hc     33    bbb     H7    971 0.01788900   1.008000   ; qtot 32.492870
  972         hc     33    bbb     H8    972 0.01788900   1.008000   ; qtot 32.510759
  973         c3     33    bbb     C5    973 -0.11337700  12.010000   ; qtot 32.397382
  974         hc     33    bbb     H9    974 0.09515400   1.008000   ; qtot 32.492536
  975         hc     33    bbb    H10    975 0.09515400   1.008000   ; qtot 32.587690
  976         c3     33    bbb     C6    976 -0.11337700  12.010000   ; qtot 32.474313
  977         hc     33    bbb    H11    977 0.09515400   1.008000   ; qtot 32.569467
  978         hc     33    bbb    H12    978 0.09515400   1.008000   ; qtot 32.664621
  979         c3     33    bbb     C7    979 0.21842400  12.010000   ; qtot 32.883045
  980         h1     33    bbb    H13    980 0.04500300   1.008000   ; qtot 32.928048
  981         h1     33    bbb    H14    981 0.04500300   1.008000   ; qtot 32.973051
  982         c3     33    bbb     C8    982 -0.06455200  12.010000   ; qtot 32.908499
  983         h1     33    bbb    H15    983 0.13554100   1.008000   ; qtot 33.044040
  984         h1     33    bbb    H16    984 0.13554100   1.008000   ; qtot 33.179581
  985         c3     33    bbb     C9    985 -0.06455200  12.010000   ; qtot 33.115029
  986         h1     33    bbb    H17    986 0.13554100   1.008000   ; qtot 33.250570
  987         h1     33    bbb    H18    987 0.13554100   1.008000   ; qtot 33.386111
  988         os     33    bbb     O1    988 -0.62587700  16.000000   ; qtot 32.760234
  989         hn     33    bbb    H19    989 0.23982500   1.008000   ; qtot 33.000059
; residue   34 bbb rtp bbb q 1.0
  990         n4     34    bbb     N1    990 0.03726400  14.010000   ; qtot 33.037323
  991         c3     34    bbb     C1    991 -0.07020100  12.010000   ; qtot 32.967122
  992         hx     34    bbb     H1    992 0.12219000   1.008000   ; qtot 33.089312
  993         hx     34    bbb     H2    993 0.12219000   1.008000   ; qtot 33.211502
  994         c3     34    bbb     C2    994 -0.07020100  12.010000   ; qtot 33.141301
  995         hx     34    bbb     H3    995 0.12219000   1.008000   ; qtot 33.263491
  996         hx     34    bbb     H4    996 0.12219000   1.008000   ; qtot 33.385681
  997         c3     34    bbb     C3    997 -0.39007700  12.010000   ; qtot 32.995604
  998         hx     34    bbb     H5    998 0.14940300   1.008000   ; qtot 33.145007
  999         hx     34    bbb     H6    999 0.14940300   1.008000   ; qtot 33.294410
 1000         c3     34    bbb     C4   1000 0.18057300  12.010000   ; qtot 33.474983
 1001         hc     34    bbb     H7   1001 0.01788900   1.008000   ; qtot 33.492872
 1002         hc     34    bbb     H8   1002 0.01788900   1.008000   ; qtot 33.510761
 1003         c3     34    bbb     C5   1003 -0.11337700  12.010000   ; qtot 33.397384
 1004         hc     34    bbb     H9   1004 0.09515400   1.008000   ; qtot 33.492538
 1005         hc     34    bbb    H10   1005 0.09515400   1.008000   ; qtot 33.587692
 1006         c3     34    bbb     C6   1006 -0.11337700  12.010000   ; qtot 33.474315
 1007         hc     34    bbb    H11   1007 0.09515400   1.008000   ; qtot 33.569469
 1008         hc     34    bbb    H12   1008 0.09515400   1.008000   ; qtot 33.664623
 1009         c3     34    bbb     C7   1009 0.21842400  12.010000   ; qtot 33.883047
 1010         h1     34    bbb    H13   1010 0.04500300   1.008000   ; qtot 33.928050
 1011         h1     34    bbb    H14   1011 0.04500300   1.008000   ; qtot 33.973053
 1012         c3     34    bbb     C8   1012 -0.06455200  12.010000   ; qtot 33.908501
 1013         h1     34    bbb    H15   1013 0.13554100   1.008000   ; qtot 34.044042
 1014         h1     34    bbb    H16   1014 0.13554100   1.008000   ; qtot 34.179583
 1015         c3     34    bbb     C9   1015 -0.06455200  12.010000   ; qtot 34.115031
 1016         h1     34    bbb    H17   1016 0.13554100   1.008000   ; qtot 34.250572
 1017         h1     34    bbb    H18   1017 0.13554100   1.008000   ; qtot 34.386113
 1018         os     34    bbb     O1   1018 -0.62587700  16.000000   ; qtot 33.760236
 1019         hn     34    bbb    H19   1019 0.23982500   1.008000   ; qtot 34.000061
; residue   35 bbb rtp bbb q 1.0
 1020         n4     35    bbb     N1   1020 0.03726400  14.010000   ; qtot 34.037325
 1021         c3     35    bbb     C1   1021 -0.07020100  12.010000   ; qtot 33.967124
 1022         hx     35    bbb     H1   1022 0.12219000   1.008000   ; qtot 34.089314
 1023         hx     35    bbb     H2   1023 0.12219000   1.008000   ; qtot 34.211504
 1024         c3     35    bbb     C2   1024 -0.07020100  12.010000   ; qtot 34.141303
 1025         hx     35    bbb     H3   1025 0.12219000   1.008000   ; qtot 34.263493
 1026         hx     35    bbb     H4   1026 0.12219000   1.008000   ; qtot 34.385683
 1027         c3     35    bbb     C3   1027 -0.39007700  12.010000   ; qtot 33.995606
 1028         hx     35    bbb     H5   1028 0.14940300   1.008000   ; qtot 34.145009
 1029         hx     35    bbb     H6   1029 0.14940300   1.008000   ; qtot 34.294412
 1030         c3     35    bbb     C4   1030 0.18057300  12.010000   ; qtot 34.474985
 1031         hc     35    bbb     H7   1031 0.01788900   1.008000   ; qtot 34.492874
 1032         hc     35    bbb     H8   1032 0.01788900   1.008000   ; qtot 34.510763
 1033         c3     35    bbb     C5   1033 -0.11337700  12.010000   ; qtot 34.397386
 1034         hc     35    bbb     H9   1034 0.09515400   1.008000   ; qtot 34.492540
 1035         hc     35    bbb    H10   1035 0.09515400   1.008000   ; qtot 34.587694
 1036         c3     35    bbb     C6   1036 -0.11337700  12.010000   ; qtot 34.474317
 1037         hc     35    bbb    H11   1037 0.09515400   1.008000   ; qtot 34.569471
 1038         hc     35    bbb    H12   1038 0.09515400   1.008000   ; qtot 34.664625
 1039         c3     35    bbb     C7   1039 0.21842400  12.010000   ; qtot 34.883049
 1040         h1     35    bbb    H13   1040 0.04500300   1.008000   ; qtot 34.928052
 1041         h1     35    bbb    H14   1041 0.04500300   1.008000   ; qtot 34.973055
 1042         c3     35    bbb     C8   1042 -0.06455200  12.010000   ; qtot 34.908503
 1043         h1     35    bbb    H15   1043 0.13554100   1.008000   ; qtot 35.044044
 1044         h1     35    bbb    H16   1044 0.13554100   1.008000   ; qtot 35.179585
 1045         c3     35    bbb     C9   1045 -0.06455200  12.010000   ; qtot 35.115033
 1046         h1     35    bbb    H17   1046 0.13554100   1.008000   ; qtot 35.250574
 1047         h1     35    bbb    H18   1047 0.13554100   1.008000   ; qtot 35.386115
 1048         os     35    bbb     O1   1048 -0.62587700  16.000000   ; qtot 34.760238
 1049         hn     35    bbb    H19   1049 0.23982500   1.008000   ; qtot 35.000063
; residue   36 bbb rtp bbb q 1.0
 1050         n4     36    bbb     N1   1050 0.03726400  14.010000   ; qtot 35.037327
 1051         c3     36    bbb     C1   1051 -0.07020100  12.010000   ; qtot 34.967126
 1052         hx     36    bbb     H1   1052 0.12219000   1.008000   ; qtot 35.089316
 1053         hx     36    bbb     H2   1053 0.12219000   1.008000   ; qtot 35.211506
 1054         c3     36    bbb     C2   1054 -0.07020100  12.010000   ; qtot 35.141305
 1055         hx     36    bbb     H3   1055 0.12219000   1.008000   ; qtot 35.263495
 1056         hx     36    bbb     H4   1056 0.12219000   1.008000   ; qtot 35.385685
 1057         c3     36    bbb     C3   1057 -0.39007700  12.010000   ; qtot 34.995608
 1058         hx     36    bbb     H5   1058 0.14940300   1.008000   ; qtot 35.145011
 1059         hx     36    bbb     H6   1059 0.14940300   1.008000   ; qtot 35.294414
 1060         c3     36    bbb     C4   1060 0.18057300  12.010000   ; qtot 35.474987
 1061         hc     36    bbb     H7   1061 0.01788900   1.008000   ; qtot 35.492876
 1062         hc     36    bbb     H8   1062 0.01788900   1.008000   ; qtot 35.510765
 1063         c3     36    bbb     C5   1063 -0.11337700  12.010000   ; qtot 35.397388
 1064         hc     36    bbb     H9   1064 0.09515400   1.008000   ; qtot 35.492542
 1065         hc     36    bbb    H10   1065 0.09515400   1.008000   ; qtot 35.587696
 1066         c3     36    bbb     C6   1066 -0.11337700  12.010000   ; qtot 35.474319
 1067         hc     36    bbb    H11   1067 0.09515400   1.008000   ; qtot 35.569473
 1068         hc     36    bbb    H12   1068 0.09515400   1.008000   ; qtot 35.664627
 1069         c3     36    bbb     C7   1069 0.21842400  12.010000   ; qtot 35.883051
 1070         h1     36    bbb    H13   1070 0.04500300   1.008000   ; qtot 35.928054
 1071         h1     36    bbb    H14   1071 0.04500300   1.008000   ; qtot 35.973057
 1072         c3     36    bbb     C8   1072 -0.06455200  12.010000   ; qtot 35.908505
 1073         h1     36    bbb    H15   1073 0.13554100   1.008000   ; qtot 36.044046
 1074         h1     36    bbb    H16   1074 0.13554100   1.008000   ; qtot 36.179587
 1075         c3     36    bbb     C9   1075 -0.06455200  12.010000   ; qtot 36.115035
 1076         h1     36    bbb    H17   1076 0.13554100   1.008000   ; qtot 36.250576
 1077         h1     36    bbb    H18   1077 0.13554100   1.008000   ; qtot 36.386117
 1078         os     36    bbb     O1   1078 -0.62587700  16.000000   ; qtot 35.760240
 1079         hn     36    bbb    H19   1079 0.23982500   1.008000   ; qtot 36.000065
; residue   37 bbb rtp bbb q 1.0
 1080         n4     37    bbb     N1   1080 0.03726400  14.010000   ; qtot 36.037329
 1081         c3     37    bbb     C1   1081 -0.07020100  12.010000   ; qtot 35.967128
 1082         hx     37    bbb     H1   1082 0.12219000   1.008000   ; qtot 36.089318
 1083         hx     37    bbb     H2   1083 0.12219000   1.008000   ; qtot 36.211508
 1084         c3     37    bbb     C2   1084 -0.07020100  12.010000   ; qtot 36.141307
 1085         hx     37    bbb     H3   1085 0.12219000   1.008000   ; qtot 36.263497
 1086         hx     37    bbb     H4   1086 0.12219000   1.008000   ; qtot 36.385687
 1087         c3     37    bbb     C3   1087 -0.39007700  12.010000   ; qtot 35.995610
 1088         hx     37    bbb     H5   1088 0.14940300   1.008000   ; qtot 36.145013
 1089         hx     37    bbb     H6   1089 0.14940300   1.008000   ; qtot 36.294416
 1090         c3     37    bbb     C4   1090 0.18057300  12.010000   ; qtot 36.474989
 1091         hc     37    bbb     H7   1091 0.01788900   1.008000   ; qtot 36.492878
 1092         hc     37    bbb     H8   1092 0.01788900   1.008000   ; qtot 36.510767
 1093         c3     37    bbb     C5   1093 -0.11337700  12.010000   ; qtot 36.397390
 1094         hc     37    bbb     H9   1094 0.09515400   1.008000   ; qtot 36.492544
 1095         hc     37    bbb    H10   1095 0.09515400   1.008000   ; qtot 36.587698
 1096         c3     37    bbb     C6   1096 -0.11337700  12.010000   ; qtot 36.474321
 1097         hc     37    bbb    H11   1097 0.09515400   1.008000   ; qtot 36.569475
 1098         hc     37    bbb    H12   1098 0.09515400   1.008000   ; qtot 36.664629
 1099         c3     37    bbb     C7   1099 0.21842400  12.010000   ; qtot 36.883053
 1100         h1     37    bbb    H13   1100 0.04500300   1.008000   ; qtot 36.928056
 1101         h1     37    bbb    H14   1101 0.04500300   1.008000   ; qtot 36.973059
 1102         c3     37    bbb     C8   1102 -0.06455200  12.010000   ; qtot 36.908507
 1103         h1     37    bbb    H15   1103 0.13554100   1.008000   ; qtot 37.044048
 1104         h1     37    bbb    H16   1104 0.13554100   1.008000   ; qtot 37.179589
 1105         c3     37    bbb     C9   1105 -0.06455200  12.010000   ; qtot 37.115037
 1106         h1     37    bbb    H17   1106 0.13554100   1.008000   ; qtot 37.250578
 1107         h1     37    bbb    H18   1107 0.13554100   1.008000   ; qtot 37.386119
 1108         os     37    bbb     O1   1108 -0.62587700  16.000000   ; qtot 36.760242
 1109         hn     37    bbb    H19   1109 0.23982500   1.008000   ; qtot 37.000067
; residue   38 bbb rtp bbb q 1.0
 1110         n4     38    bbb     N1   1110 0.03726400  14.010000   ; qtot 37.037331
 1111         c3     38    bbb     C1   1111 -0.07020100  12.010000   ; qtot 36.967130
 1112         hx     38    bbb     H1   1112 0.12219000   1.008000   ; qtot 37.089320
 1113         hx     38    bbb     H2   1113 0.12219000   1.008000   ; qtot 37.211510
 1114         c3     38    bbb     C2   1114 -0.07020100  12.010000   ; qtot 37.141309
 1115         hx     38    bbb     H3   1115 0.12219000   1.008000   ; qtot 37.263499
 1116         hx     38    bbb     H4   1116 0.12219000   1.008000   ; qtot 37.385689
 1117         c3     38    bbb     C3   1117 -0.39007700  12.010000   ; qtot 36.995612
 1118         hx     38    bbb     H5   1118 0.14940300   1.008000   ; qtot 37.145015
 1119         hx     38    bbb     H6   1119 0.14940300   1.008000   ; qtot 37.294418
 1120         c3     38    bbb     C4   1120 0.18057300  12.010000   ; qtot 37.474991
 1121         hc     38    bbb     H7   1121 0.01788900   1.008000   ; qtot 37.492880
 1122         hc     38    bbb     H8   1122 0.01788900   1.008000   ; qtot 37.510769
 1123         c3     38    bbb     C5   1123 -0.11337700  12.010000   ; qtot 37.397392
 1124         hc     38    bbb     H9   1124 0.09515400   1.008000   ; qtot 37.492546
 1125         hc     38    bbb    H10   1125 0.09515400   1.008000   ; qtot 37.587700
 1126         c3     38    bbb     C6   1126 -0.11337700  12.010000   ; qtot 37.474323
 1127         hc     38    bbb    H11   1127 0.09515400   1.008000   ; qtot 37.569477
 1128         hc     38    bbb    H12   1128 0.09515400   1.008000   ; qtot 37.664631
 1129         c3     38    bbb     C7   1129 0.21842400  12.010000   ; qtot 37.883055
 1130         h1     38    bbb    H13   1130 0.04500300   1.008000   ; qtot 37.928058
 1131         h1     38    bbb    H14   1131 0.04500300   1.008000   ; qtot 37.973061
 1132         c3     38    bbb     C8   1132 -0.06455200  12.010000   ; qtot 37.908509
 1133         h1     38    bbb    H15   1133 0.13554100   1.008000   ; qtot 38.044050
 1134         h1     38    bbb    H16   1134 0.13554100   1.008000   ; qtot 38.179591
 1135         c3     38    bbb     C9   1135 -0.06455200  12.010000   ; qtot 38.115039
 1136         h1     38    bbb    H17   1136 0.13554100   1.008000   ; qtot 38.250580
 1137         h1     38    bbb    H18   1137 0.13554100   1.008000   ; qtot 38.386121
 1138         os     38    bbb     O1   1138 -0.62587700  16.000000   ; qtot 37.760244
 1139         hn     38    bbb    H19   1139 0.23982500   1.008000   ; qtot 38.000069
; residue   39 bbb rtp bbb q 1.0
 1140         n4     39    bbb     N1   1140 0.03726400  14.010000   ; qtot 38.037333
 1141         c3     39    bbb     C1   1141 -0.07020100  12.010000   ; qtot 37.967132
 1142         hx     39    bbb     H1   1142 0.12219000   1.008000   ; qtot 38.089322
 1143         hx     39    bbb     H2   1143 0.12219000   1.008000   ; qtot 38.211512
 1144         c3     39    bbb     C2   1144 -0.07020100  12.010000   ; qtot 38.141311
 1145         hx     39    bbb     H3   1145 0.12219000   1.008000   ; qtot 38.263501
 1146         hx     39    bbb     H4   1146 0.12219000   1.008000   ; qtot 38.385691
 1147         c3     39    bbb     C3   1147 -0.39007700  12.010000   ; qtot 37.995614
 1148         hx     39    bbb     H5   1148 0.14940300   1.008000   ; qtot 38.145017
 1149         hx     39    bbb     H6   1149 0.14940300   1.008000   ; qtot 38.294420
 1150         c3     39    bbb     C4   1150 0.18057300  12.010000   ; qtot 38.474993
 1151         hc     39    bbb     H7   1151 0.01788900   1.008000   ; qtot 38.492882
 1152         hc     39    bbb     H8   1152 0.01788900   1.008000   ; qtot 38.510771
 1153         c3     39    bbb     C5   1153 -0.11337700  12.010000   ; qtot 38.397394
 1154         hc     39    bbb     H9   1154 0.09515400   1.008000   ; qtot 38.492548
 1155         hc     39    bbb    H10   1155 0.09515400   1.008000   ; qtot 38.587702
 1156         c3     39    bbb     C6   1156 -0.11337700  12.010000   ; qtot 38.474325
 1157         hc     39    bbb    H11   1157 0.09515400   1.008000   ; qtot 38.569479
 1158         hc     39    bbb    H12   1158 0.09515400   1.008000   ; qtot 38.664633
 1159         c3     39    bbb     C7   1159 0.21842400  12.010000   ; qtot 38.883057
 1160         h1     39    bbb    H13   1160 0.04500300   1.008000   ; qtot 38.928060
 1161         h1     39    bbb    H14   1161 0.04500300   1.008000   ; qtot 38.973063
 1162         c3     39    bbb     C8   1162 -0.06455200  12.010000   ; qtot 38.908511
 1163         h1     39    bbb    H15   1163 0.13554100   1.008000   ; qtot 39.044052
 1164         h1     39    bbb    H16   1164 0.13554100   1.008000   ; qtot 39.179593
 1165         c3     39    bbb     C9   1165 -0.06455200  12.010000   ; qtot 39.115041
 1166         h1     39    bbb    H17   1166 0.13554100   1.008000   ; qtot 39.250582
 1167         h1     39    bbb    H18   1167 0.13554100   1.008000   ; qtot 39.386123
 1168         os     39    bbb     O1   1168 -0.62587700  16.000000   ; qtot 38.760246
 1169         hn     39    bbb    H19   1169 0.23982500   1.008000   ; qtot 39.000071
; residue   40 bbb rtp bbb q 1.0
 1170         n4     40    bbb     N1   1170 0.03726400  14.010000   ; qtot 39.037335
 1171         c3     40    bbb     C1   1171 -0.07020100  12.010000   ; qtot 38.967134
 1172         hx     40    bbb     H1   1172 0.12219000   1.008000   ; qtot 39.089324
 1173         hx     40    bbb     H2   1173 0.12219000   1.008000   ; qtot 39.211514
 1174         c3     40    bbb     C2   1174 -0.07020100  12.010000   ; qtot 39.141313
 1175         hx     40    bbb     H3   1175 0.12219000   1.008000   ; qtot 39.263503
 1176         hx     40    bbb     H4   1176 0.12219000   1.008000   ; qtot 39.385693
 1177         c3     40    bbb     C3   1177 -0.39007700  12.010000   ; qtot 38.995616
 1178         hx     40    bbb     H5   1178 0.14940300   1.008000   ; qtot 39.145019
 1179         hx     40    bbb     H6   1179 0.14940300   1.008000   ; qtot 39.294422
 1180         c3     40    bbb     C4   1180 0.18057300  12.010000   ; qtot 39.474995
 1181         hc     40    bbb     H7   1181 0.01788900   1.008000   ; qtot 39.492884
 1182         hc     40    bbb     H8   1182 0.01788900   1.008000   ; qtot 39.510773
 1183         c3     40    bbb     C5   1183 -0.11337700  12.010000   ; qtot 39.397396
 1184         hc     40    bbb     H9   1184 0.09515400   1.008000   ; qtot 39.492550
 1185         hc     40    bbb    H10   1185 0.09515400   1.008000   ; qtot 39.587704
 1186         c3     40    bbb     C6   1186 -0.11337700  12.010000   ; qtot 39.474327
 1187         hc     40    bbb    H11   1187 0.09515400   1.008000   ; qtot 39.569481
 1188         hc     40    bbb    H12   1188 0.09515400   1.008000   ; qtot 39.664635
 1189         c3     40    bbb     C7   1189 0.21842400  12.010000   ; qtot 39.883059
 1190         h1     40    bbb    H13   1190 0.04500300   1.008000   ; qtot 39.928062
 1191         h1     40    bbb    H14   1191 0.04500300   1.008000   ; qtot 39.973065
 1192         c3     40    bbb     C8   1192 -0.06455200  12.010000   ; qtot 39.908513
 1193         h1     40    bbb    H15   1193 0.13554100   1.008000   ; qtot 40.044054
 1194         h1     40    bbb    H16   1194 0.13554100   1.008000   ; qtot 40.179595
 1195         c3     40    bbb     C9   1195 -0.06455200  12.010000   ; qtot 40.115043
 1196         h1     40    bbb    H17   1196 0.13554100   1.008000   ; qtot 40.250584
 1197         h1     40    bbb    H18   1197 0.13554100   1.008000   ; qtot 40.386125
 1198         os     40    bbb     O1   1198 -0.62587700  16.000000   ; qtot 39.760248
 1199         hn     40    bbb    H19   1199 0.23982500   1.008000   ; qtot 40.000073
; residue   41 bbb rtp bbb q 1.0
 1200         n4     41    bbb     N1   1200 0.03726400  14.010000   ; qtot 40.037337
 1201         c3     41    bbb     C1   1201 -0.07020100  12.010000   ; qtot 39.967136
 1202         hx     41    bbb     H1   1202 0.12219000   1.008000   ; qtot 40.089326
 1203         hx     41    bbb     H2   1203 0.12219000   1.008000   ; qtot 40.211516
 1204         c3     41    bbb     C2   1204 -0.07020100  12.010000   ; qtot 40.141315
 1205         hx     41    bbb     H3   1205 0.12219000   1.008000   ; qtot 40.263505
 1206         hx     41    bbb     H4   1206 0.12219000   1.008000   ; qtot 40.385695
 1207         c3     41    bbb     C3   1207 -0.39007700  12.010000   ; qtot 39.995618
 1208         hx     41    bbb     H5   1208 0.14940300   1.008000   ; qtot 40.145021
 1209         hx     41    bbb     H6   1209 0.14940300   1.008000   ; qtot 40.294424
 1210         c3     41    bbb     C4   1210 0.18057300  12.010000   ; qtot 40.474997
 1211         hc     41    bbb     H7   1211 0.01788900   1.008000   ; qtot 40.492886
 1212         hc     41    bbb     H8   1212 0.01788900   1.008000   ; qtot 40.510775
 1213         c3     41    bbb     C5   1213 -0.11337700  12.010000   ; qtot 40.397398
 1214         hc     41    bbb     H9   1214 0.09515400   1.008000   ; qtot 40.492552
 1215         hc     41    bbb    H10   1215 0.09515400   1.008000   ; qtot 40.587706
 1216         c3     41    bbb     C6   1216 -0.11337700  12.010000   ; qtot 40.474329
 1217         hc     41    bbb    H11   1217 0.09515400   1.008000   ; qtot 40.569483
 1218         hc     41    bbb    H12   1218 0.09515400   1.008000   ; qtot 40.664637
 1219         c3     41    bbb     C7   1219 0.21842400  12.010000   ; qtot 40.883061
 1220         h1     41    bbb    H13   1220 0.04500300   1.008000   ; qtot 40.928064
 1221         h1     41    bbb    H14   1221 0.04500300   1.008000   ; qtot 40.973067
 1222         c3     41    bbb     C8   1222 -0.06455200  12.010000   ; qtot 40.908515
 1223         h1     41    bbb    H15   1223 0.13554100   1.008000   ; qtot 41.044056
 1224         h1     41    bbb    H16   1224 0.13554100   1.008000   ; qtot 41.179597
 1225         c3     41    bbb     C9   1225 -0.06455200  12.010000   ; qtot 41.115045
 1226         h1     41    bbb    H17   1226 0.13554100   1.008000   ; qtot 41.250586
 1227         h1     41    bbb    H18   1227 0.13554100   1.008000   ; qtot 41.386127
 1228         os     41    bbb     O1   1228 -0.62587700  16.000000   ; qtot 40.760250
 1229         hn     41    bbb    H19   1229 0.23982500   1.008000   ; qtot 41.000075
; residue   42 bbb rtp bbb q 1.0
 1230         n4     42    bbb     N1   1230 0.03726400  14.010000   ; qtot 41.037339
 1231         c3     42    bbb     C1   1231 -0.07020100  12.010000   ; qtot 40.967138
 1232         hx     42    bbb     H1   1232 0.12219000   1.008000   ; qtot 41.089328
 1233         hx     42    bbb     H2   1233 0.12219000   1.008000   ; qtot 41.211518
 1234         c3     42    bbb     C2   1234 -0.07020100  12.010000   ; qtot 41.141317
 1235         hx     42    bbb     H3   1235 0.12219000   1.008000   ; qtot 41.263507
 1236         hx     42    bbb     H4   1236 0.12219000   1.008000   ; qtot 41.385697
 1237         c3     42    bbb     C3   1237 -0.39007700  12.010000   ; qtot 40.995620
 1238         hx     42    bbb     H5   1238 0.14940300   1.008000   ; qtot 41.145023
 1239         hx     42    bbb     H6   1239 0.14940300   1.008000   ; qtot 41.294426
 1240         c3     42    bbb     C4   1240 0.18057300  12.010000   ; qtot 41.474999
 1241         hc     42    bbb     H7   1241 0.01788900   1.008000   ; qtot 41.492888
 1242         hc     42    bbb     H8   1242 0.01788900   1.008000   ; qtot 41.510777
 1243         c3     42    bbb     C5   1243 -0.11337700  12.010000   ; qtot 41.397400
 1244         hc     42    bbb     H9   1244 0.09515400   1.008000   ; qtot 41.492554
 1245         hc     42    bbb    H10   1245 0.09515400   1.008000   ; qtot 41.587708
 1246         c3     42    bbb     C6   1246 -0.11337700  12.010000   ; qtot 41.474331
 1247         hc     42    bbb    H11   1247 0.09515400   1.008000   ; qtot 41.569485
 1248         hc     42    bbb    H12   1248 0.09515400   1.008000   ; qtot 41.664639
 1249         c3     42    bbb     C7   1249 0.21842400  12.010000   ; qtot 41.883063
 1250         h1     42    bbb    H13   1250 0.04500300   1.008000   ; qtot 41.928066
 1251         h1     42    bbb    H14   1251 0.04500300   1.008000   ; qtot 41.973069
 1252         c3     42    bbb     C8   1252 -0.06455200  12.010000   ; qtot 41.908517
 1253         h1     42    bbb    H15   1253 0.13554100   1.008000   ; qtot 42.044058
 1254         h1     42    bbb    H16   1254 0.13554100   1.008000   ; qtot 42.179599
 1255         c3     42    bbb     C9   1255 -0.06455200  12.010000   ; qtot 42.115047
 1256         h1     42    bbb    H17   1256 0.13554100   1.008000   ; qtot 42.250588
 1257         h1     42    bbb    H18   1257 0.13554100   1.008000   ; qtot 42.386129
 1258         os     42    bbb     O1   1258 -0.62587700  16.000000   ; qtot 41.760252
 1259         hn     42    bbb    H19   1259 0.23982500   1.008000   ; qtot 42.000077
; residue   43 bbb rtp bbb q 1.0
 1260         n4     43    bbb     N1   1260 0.03726400  14.010000   ; qtot 42.037341
 1261         c3     43    bbb     C1   1261 -0.07020100  12.010000   ; qtot 41.967140
 1262         hx     43    bbb     H1   1262 0.12219000   1.008000   ; qtot 42.089330
 1263         hx     43    bbb     H2   1263 0.12219000   1.008000   ; qtot 42.211520
 1264         c3     43    bbb     C2   1264 -0.07020100  12.010000   ; qtot 42.141319
 1265         hx     43    bbb     H3   1265 0.12219000   1.008000   ; qtot 42.263509
 1266         hx     43    bbb     H4   1266 0.12219000   1.008000   ; qtot 42.385699
 1267         c3     43    bbb     C3   1267 -0.39007700  12.010000   ; qtot 41.995622
 1268         hx     43    bbb     H5   1268 0.14940300   1.008000   ; qtot 42.145025
 1269         hx     43    bbb     H6   1269 0.14940300   1.008000   ; qtot 42.294428
 1270         c3     43    bbb     C4   1270 0.18057300  12.010000   ; qtot 42.475001
 1271         hc     43    bbb     H7   1271 0.01788900   1.008000   ; qtot 42.492890
 1272         hc     43    bbb     H8   1272 0.01788900   1.008000   ; qtot 42.510779
 1273         c3     43    bbb     C5   1273 -0.11337700  12.010000   ; qtot 42.397402
 1274         hc     43    bbb     H9   1274 0.09515400   1.008000   ; qtot 42.492556
 1275         hc     43    bbb    H10   1275 0.09515400   1.008000   ; qtot 42.587710
 1276         c3     43    bbb     C6   1276 -0.11337700  12.010000   ; qtot 42.474333
 1277         hc     43    bbb    H11   1277 0.09515400   1.008000   ; qtot 42.569487
 1278         hc     43    bbb    H12   1278 0.09515400   1.008000   ; qtot 42.664641
 1279         c3     43    bbb     C7   1279 0.21842400  12.010000   ; qtot 42.883065
 1280         h1     43    bbb    H13   1280 0.04500300   1.008000   ; qtot 42.928068
 1281         h1     43    bbb    H14   1281 0.04500300   1.008000   ; qtot 42.973071
 1282         c3     43    bbb     C8   1282 -0.06455200  12.010000   ; qtot 42.908519
 1283         h1     43    bbb    H15   1283 0.13554100   1.008000   ; qtot 43.044060
 1284         h1     43    bbb    H16   1284 0.13554100   1.008000   ; qtot 43.179601
 1285         c3     43    bbb     C9   1285 -0.06455200  12.010000   ; qtot 43.115049
 1286         h1     43    bbb    H17   1286 0.13554100   1.008000   ; qtot 43.250590
 1287         h1     43    bbb    H18   1287 0.13554100   1.008000   ; qtot 43.386131
 1288         os     43    bbb     O1   1288 -0.62587700  16.000000   ; qtot 42.760254
 1289         hn     43    bbb    H19   1289 0.23982500   1.008000   ; qtot 43.000079
; residue   44 bbb rtp bbb q 1.0
 1290         n4     44    bbb     N1   1290 0.03726400  14.010000   ; qtot 43.037343
 1291         c3     44    bbb     C1   1291 -0.07020100  12.010000   ; qtot 42.967142
 1292         hx     44    bbb     H1   1292 0.12219000   1.008000   ; qtot 43.089332
 1293         hx     44    bbb     H2   1293 0.12219000   1.008000   ; qtot 43.211522
 1294         c3     44    bbb     C2   1294 -0.07020100  12.010000   ; qtot 43.141321
 1295         hx     44    bbb     H3   1295 0.12219000   1.008000   ; qtot 43.263511
 1296         hx     44    bbb     H4   1296 0.12219000   1.008000   ; qtot 43.385701
 1297         c3     44    bbb     C3   1297 -0.39007700  12.010000   ; qtot 42.995624
 1298         hx     44    bbb     H5   1298 0.14940300   1.008000   ; qtot 43.145027
 1299         hx     44    bbb     H6   1299 0.14940300   1.008000   ; qtot 43.294430
 1300         c3     44    bbb     C4   1300 0.18057300  12.010000   ; qtot 43.475003
 1301         hc     44    bbb     H7   1301 0.01788900   1.008000   ; qtot 43.492892
 1302         hc     44    bbb     H8   1302 0.01788900   1.008000   ; qtot 43.510781
 1303         c3     44    bbb     C5   1303 -0.11337700  12.010000   ; qtot 43.397404
 1304         hc     44    bbb     H9   1304 0.09515400   1.008000   ; qtot 43.492558
 1305         hc     44    bbb    H10   1305 0.09515400   1.008000   ; qtot 43.587712
 1306         c3     44    bbb     C6   1306 -0.11337700  12.010000   ; qtot 43.474335
 1307         hc     44    bbb    H11   1307 0.09515400   1.008000   ; qtot 43.569489
 1308         hc     44    bbb    H12   1308 0.09515400   1.008000   ; qtot 43.664643
 1309         c3     44    bbb     C7   1309 0.21842400  12.010000   ; qtot 43.883067
 1310         h1     44    bbb    H13   1310 0.04500300   1.008000   ; qtot 43.928070
 1311         h1     44    bbb    H14   1311 0.04500300   1.008000   ; qtot 43.973073
 1312         c3     44    bbb     C8   1312 -0.06455200  12.010000   ; qtot 43.908521
 1313         h1     44    bbb    H15   1313 0.13554100   1.008000   ; qtot 44.044062
 1314         h1     44    bbb    H16   1314 0.13554100   1.008000   ; qtot 44.179603
 1315         c3     44    bbb     C9   1315 -0.06455200  12.010000   ; qtot 44.115051
 1316         h1     44    bbb    H17   1316 0.13554100   1.008000   ; qtot 44.250592
 1317         h1     44    bbb    H18   1317 0.13554100   1.008000   ; qtot 44.386133
 1318         os     44    bbb     O1   1318 -0.62587700  16.000000   ; qtot 43.760256
 1319         hn     44    bbb    H19   1319 0.23982500   1.008000   ; qtot 44.000081
; residue   45 bbb rtp bbb q 1.0
 1320         n4     45    bbb     N1   1320 0.03726400  14.010000   ; qtot 44.037345
 1321         c3     45    bbb     C1   1321 -0.07020100  12.010000   ; qtot 43.967144
 1322         hx     45    bbb     H1   1322 0.12219000   1.008000   ; qtot 44.089334
 1323         hx     45    bbb     H2   1323 0.12219000   1.008000   ; qtot 44.211524
 1324         c3     45    bbb     C2   1324 -0.07020100  12.010000   ; qtot 44.141323
 1325         hx     45    bbb     H3   1325 0.12219000   1.008000   ; qtot 44.263513
 1326         hx     45    bbb     H4   1326 0.12219000   1.008000   ; qtot 44.385703
 1327         c3     45    bbb     C3   1327 -0.39007700  12.010000   ; qtot 43.995626
 1328         hx     45    bbb     H5   1328 0.14940300   1.008000   ; qtot 44.145029
 1329         hx     45    bbb     H6   1329 0.14940300   1.008000   ; qtot 44.294432
 1330         c3     45    bbb     C4   1330 0.18057300  12.010000   ; qtot 44.475005
 1331         hc     45    bbb     H7   1331 0.01788900   1.008000   ; qtot 44.492894
 1332         hc     45    bbb     H8   1332 0.01788900   1.008000   ; qtot 44.510783
 1333         c3     45    bbb     C5   1333 -0.11337700  12.010000   ; qtot 44.397406
 1334         hc     45    bbb     H9   1334 0.09515400   1.008000   ; qtot 44.492560
 1335         hc     45    bbb    H10   1335 0.09515400   1.008000   ; qtot 44.587714
 1336         c3     45    bbb     C6   1336 -0.11337700  12.010000   ; qtot 44.474337
 1337         hc     45    bbb    H11   1337 0.09515400   1.008000   ; qtot 44.569491
 1338         hc     45    bbb    H12   1338 0.09515400   1.008000   ; qtot 44.664645
 1339         c3     45    bbb     C7   1339 0.21842400  12.010000   ; qtot 44.883069
 1340         h1     45    bbb    H13   1340 0.04500300   1.008000   ; qtot 44.928072
 1341         h1     45    bbb    H14   1341 0.04500300   1.008000   ; qtot 44.973075
 1342         c3     45    bbb     C8   1342 -0.06455200  12.010000   ; qtot 44.908523
 1343         h1     45    bbb    H15   1343 0.13554100   1.008000   ; qtot 45.044064
 1344         h1     45    bbb    H16   1344 0.13554100   1.008000   ; qtot 45.179605
 1345         c3     45    bbb     C9   1345 -0.06455200  12.010000   ; qtot 45.115053
 1346         h1     45    bbb    H17   1346 0.13554100   1.008000   ; qtot 45.250594
 1347         h1     45    bbb    H18   1347 0.13554100   1.008000   ; qtot 45.386135
 1348         os     45    bbb     O1   1348 -0.62587700  16.000000   ; qtot 44.760258
 1349         hn     45    bbb    H19   1349 0.23982500   1.008000   ; qtot 45.000083
; residue   46 bbb rtp bbb q 1.0
 1350         n4     46    bbb     N1   1350 0.03726400  14.010000   ; qtot 45.037347
 1351         c3     46    bbb     C1   1351 -0.07020100  12.010000   ; qtot 44.967146
 1352         hx     46    bbb     H1   1352 0.12219000   1.008000   ; qtot 45.089336
 1353         hx     46    bbb     H2   1353 0.12219000   1.008000   ; qtot 45.211526
 1354         c3     46    bbb     C2   1354 -0.07020100  12.010000   ; qtot 45.141325
 1355         hx     46    bbb     H3   1355 0.12219000   1.008000   ; qtot 45.263515
 1356         hx     46    bbb     H4   1356 0.12219000   1.008000   ; qtot 45.385705
 1357         c3     46    bbb     C3   1357 -0.39007700  12.010000   ; qtot 44.995628
 1358         hx     46    bbb     H5   1358 0.14940300   1.008000   ; qtot 45.145031
 1359         hx     46    bbb     H6   1359 0.14940300   1.008000   ; qtot 45.294434
 1360         c3     46    bbb     C4   1360 0.18057300  12.010000   ; qtot 45.475007
 1361         hc     46    bbb     H7   1361 0.01788900   1.008000   ; qtot 45.492896
 1362         hc     46    bbb     H8   1362 0.01788900   1.008000   ; qtot 45.510785
 1363         c3     46    bbb     C5   1363 -0.11337700  12.010000   ; qtot 45.397408
 1364         hc     46    bbb     H9   1364 0.09515400   1.008000   ; qtot 45.492562
 1365         hc     46    bbb    H10   1365 0.09515400   1.008000   ; qtot 45.587716
 1366         c3     46    bbb     C6   1366 -0.11337700  12.010000   ; qtot 45.474339
 1367         hc     46    bbb    H11   1367 0.09515400   1.008000   ; qtot 45.569493
 1368         hc     46    bbb    H12   1368 0.09515400   1.008000   ; qtot 45.664647
 1369         c3     46    bbb     C7   1369 0.21842400  12.010000   ; qtot 45.883071
 1370         h1     46    bbb    H13   1370 0.04500300   1.008000   ; qtot 45.928074
 1371         h1     46    bbb    H14   1371 0.04500300   1.008000   ; qtot 45.973077
 1372         c3     46    bbb     C8   1372 -0.06455200  12.010000   ; qtot 45.908525
 1373         h1     46    bbb    H15   1373 0.13554100   1.008000   ; qtot 46.044066
 1374         h1     46    bbb    H16   1374 0.13554100   1.008000   ; qtot 46.179607
 1375         c3     46    bbb     C9   1375 -0.06455200  12.010000   ; qtot 46.115055
 1376         h1     46    bbb    H17   1376 0.13554100   1.008000   ; qtot 46.250596
 1377         h1     46    bbb    H18   1377 0.13554100   1.008000   ; qtot 46.386137
 1378         os     46    bbb     O1   1378 -0.62587700  16.000000   ; qtot 45.760260
 1379         hn     46    bbb    H19   1379 0.23982500   1.008000   ; qtot 46.000085
; residue   47 bbb rtp bbb q 1.0
 1380         n4     47    bbb     N1   1380 0.03726400  14.010000   ; qtot 46.037349
 1381         c3     47    bbb     C1   1381 -0.07020100  12.010000   ; qtot 45.967148
 1382         hx     47    bbb     H1   1382 0.12219000   1.008000   ; qtot 46.089338
 1383         hx     47    bbb     H2   1383 0.12219000   1.008000   ; qtot 46.211528
 1384         c3     47    bbb     C2   1384 -0.07020100  12.010000   ; qtot 46.141327
 1385         hx     47    bbb     H3   1385 0.12219000   1.008000   ; qtot 46.263517
 1386         hx     47    bbb     H4   1386 0.12219000   1.008000   ; qtot 46.385707
 1387         c3     47    bbb     C3   1387 -0.39007700  12.010000   ; qtot 45.995630
 1388         hx     47    bbb     H5   1388 0.14940300   1.008000   ; qtot 46.145033
 1389         hx     47    bbb     H6   1389 0.14940300   1.008000   ; qtot 46.294436
 1390         c3     47    bbb     C4   1390 0.18057300  12.010000   ; qtot 46.475009
 1391         hc     47    bbb     H7   1391 0.01788900   1.008000   ; qtot 46.492898
 1392         hc     47    bbb     H8   1392 0.01788900   1.008000   ; qtot 46.510787
 1393         c3     47    bbb     C5   1393 -0.11337700  12.010000   ; qtot 46.397410
 1394         hc     47    bbb     H9   1394 0.09515400   1.008000   ; qtot 46.492564
 1395         hc     47    bbb    H10   1395 0.09515400   1.008000   ; qtot 46.587718
 1396         c3     47    bbb     C6   1396 -0.11337700  12.010000   ; qtot 46.474341
 1397         hc     47    bbb    H11   1397 0.09515400   1.008000   ; qtot 46.569495
 1398         hc     47    bbb    H12   1398 0.09515400   1.008000   ; qtot 46.664649
 1399         c3     47    bbb     C7   1399 0.21842400  12.010000   ; qtot 46.883073
 1400         h1     47    bbb    H13   1400 0.04500300   1.008000   ; qtot 46.928076
 1401         h1     47    bbb    H14   1401 0.04500300   1.008000   ; qtot 46.973079
 1402         c3     47    bbb     C8   1402 -0.06455200  12.010000   ; qtot 46.908527
 1403         h1     47    bbb    H15   1403 0.13554100   1.008000   ; qtot 47.044068
 1404         h1     47    bbb    H16   1404 0.13554100   1.008000   ; qtot 47.179609
 1405         c3     47    bbb     C9   1405 -0.06455200  12.010000   ; qtot 47.115057
 1406         h1     47    bbb    H17   1406 0.13554100   1.008000   ; qtot 47.250598
 1407         h1     47    bbb    H18   1407 0.13554100   1.008000   ; qtot 47.386139
 1408         os     47    bbb     O1   1408 -0.62587700  16.000000   ; qtot 46.760262
 1409         hn     47    bbb    H19   1409 0.23982500   1.008000   ; qtot 47.000087
; residue   48 bbb rtp bbb q 1.0
 1410         n4     48    bbb     N1   1410 0.03726400  14.010000   ; qtot 47.037351
 1411         c3     48    bbb     C1   1411 -0.07020100  12.010000   ; qtot 46.967150
 1412         hx     48    bbb     H1   1412 0.12219000   1.008000   ; qtot 47.089340
 1413         hx     48    bbb     H2   1413 0.12219000   1.008000   ; qtot 47.211530
 1414         c3     48    bbb     C2   1414 -0.07020100  12.010000   ; qtot 47.141329
 1415         hx     48    bbb     H3   1415 0.12219000   1.008000   ; qtot 47.263519
 1416         hx     48    bbb     H4   1416 0.12219000   1.008000   ; qtot 47.385709
 1417         c3     48    bbb     C3   1417 -0.39007700  12.010000   ; qtot 46.995632
 1418         hx     48    bbb     H5   1418 0.14940300   1.008000   ; qtot 47.145035
 1419         hx     48    bbb     H6   1419 0.14940300   1.008000   ; qtot 47.294438
 1420         c3     48    bbb     C4   1420 0.18057300  12.010000   ; qtot 47.475011
 1421         hc     48    bbb     H7   1421 0.01788900   1.008000   ; qtot 47.492900
 1422         hc     48    bbb     H8   1422 0.01788900   1.008000   ; qtot 47.510789
 1423         c3     48    bbb     C5   1423 -0.11337700  12.010000   ; qtot 47.397412
 1424         hc     48    bbb     H9   1424 0.09515400   1.008000   ; qtot 47.492566
 1425         hc     48    bbb    H10   1425 0.09515400   1.008000   ; qtot 47.587720
 1426         c3     48    bbb     C6   1426 -0.11337700  12.010000   ; qtot 47.474343
 1427         hc     48    bbb    H11   1427 0.09515400   1.008000   ; qtot 47.569497
 1428         hc     48    bbb    H12   1428 0.09515400   1.008000   ; qtot 47.664651
 1429         c3     48    bbb     C7   1429 0.21842400  12.010000   ; qtot 47.883075
 1430         h1     48    bbb    H13   1430 0.04500300   1.008000   ; qtot 47.928078
 1431         h1     48    bbb    H14   1431 0.04500300   1.008000   ; qtot 47.973081
 1432         c3     48    bbb     C8   1432 -0.06455200  12.010000   ; qtot 47.908529
 1433         h1     48    bbb    H15   1433 0.13554100   1.008000   ; qtot 48.044070
 1434         h1     48    bbb    H16   1434 0.13554100   1.008000   ; qtot 48.179611
 1435         c3     48    bbb     C9   1435 -0.06455200  12.010000   ; qtot 48.115059
 1436         h1     48    bbb    H17   1436 0.13554100   1.008000   ; qtot 48.250600
 1437         h1     48    bbb    H18   1437 0.13554100   1.008000   ; qtot 48.386141
 1438         os     48    bbb     O1   1438 -0.62587700  16.000000   ; qtot 47.760264
 1439         hn     48    bbb    H19   1439 0.23982500   1.008000   ; qtot 48.000089
; residue   49 bbb rtp bbb q 1.0
 1440         n4     49    bbb     N1   1440 0.03726400  14.010000   ; qtot 48.037353
 1441         c3     49    bbb     C1   1441 -0.07020100  12.010000   ; qtot 47.967152
 1442         hx     49    bbb     H1   1442 0.12219000   1.008000   ; qtot 48.089342
 1443         hx     49    bbb     H2   1443 0.12219000   1.008000   ; qtot 48.211532
 1444         c3     49    bbb     C2   1444 -0.07020100  12.010000   ; qtot 48.141331
 1445         hx     49    bbb     H3   1445 0.12219000   1.008000   ; qtot 48.263521
 1446         hx     49    bbb     H4   1446 0.12219000   1.008000   ; qtot 48.385711
 1447         c3     49    bbb     C3   1447 -0.39007700  12.010000   ; qtot 47.995634
 1448         hx     49    bbb     H5   1448 0.14940300   1.008000   ; qtot 48.145037
 1449         hx     49    bbb     H6   1449 0.14940300   1.008000   ; qtot 48.294440
 1450         c3     49    bbb     C4   1450 0.18057300  12.010000   ; qtot 48.475013
 1451         hc     49    bbb     H7   1451 0.01788900   1.008000   ; qtot 48.492902
 1452         hc     49    bbb     H8   1452 0.01788900   1.008000   ; qtot 48.510791
 1453         c3     49    bbb     C5   1453 -0.11337700  12.010000   ; qtot 48.397414
 1454         hc     49    bbb     H9   1454 0.09515400   1.008000   ; qtot 48.492568
 1455         hc     49    bbb    H10   1455 0.09515400   1.008000   ; qtot 48.587722
 1456         c3     49    bbb     C6   1456 -0.11337700  12.010000   ; qtot 48.474345
 1457         hc     49    bbb    H11   1457 0.09515400   1.008000   ; qtot 48.569499
 1458         hc     49    bbb    H12   1458 0.09515400   1.008000   ; qtot 48.664653
 1459         c3     49    bbb     C7   1459 0.21842400  12.010000   ; qtot 48.883077
 1460         h1     49    bbb    H13   1460 0.04500300   1.008000   ; qtot 48.928080
 1461         h1     49    bbb    H14   1461 0.04500300   1.008000   ; qtot 48.973083
 1462         c3     49    bbb     C8   1462 -0.06455200  12.010000   ; qtot 48.908531
 1463         h1     49    bbb    H15   1463 0.13554100   1.008000   ; qtot 49.044072
 1464         h1     49    bbb    H16   1464 0.13554100   1.008000   ; qtot 49.179613
 1465         c3     49    bbb     C9   1465 -0.06455200  12.010000   ; qtot 49.115061
 1466         h1     49    bbb    H17   1466 0.13554100   1.008000   ; qtot 49.250602
 1467         h1     49    bbb    H18   1467 0.13554100   1.008000   ; qtot 49.386143
 1468         os     49    bbb     O1   1468 -0.62587700  16.000000   ; qtot 48.760266
 1469         hn     49    bbb    H19   1469 0.23982500   1.008000   ; qtot 49.000091
; residue   50 bbb rtp bbb q 1.0
 1470         n4     50    bbb     N1   1470 0.03726400  14.010000   ; qtot 49.037355
 1471         c3     50    bbb     C1   1471 -0.07020100  12.010000   ; qtot 48.967154
 1472         hx     50    bbb     H1   1472 0.12219000   1.008000   ; qtot 49.089344
 1473         hx     50    bbb     H2   1473 0.12219000   1.008000   ; qtot 49.211534
 1474         c3     50    bbb     C2   1474 -0.07020100  12.010000   ; qtot 49.141333
 1475         hx     50    bbb     H3   1475 0.12219000   1.008000   ; qtot 49.263523
 1476         hx     50    bbb     H4   1476 0.12219000   1.008000   ; qtot 49.385713
 1477         c3     50    bbb     C3   1477 -0.39007700  12.010000   ; qtot 48.995636
 1478         hx     50    bbb     H5   1478 0.14940300   1.008000   ; qtot 49.145039
 1479         hx     50    bbb     H6   1479 0.14940300   1.008000   ; qtot 49.294442
 1480         c3     50    bbb     C4   1480 0.18057300  12.010000   ; qtot 49.475015
 1481         hc     50    bbb     H7   1481 0.01788900   1.008000   ; qtot 49.492904
 1482         hc     50    bbb     H8   1482 0.01788900   1.008000   ; qtot 49.510793
 1483         c3     50    bbb     C5   1483 -0.11337700  12.010000   ; qtot 49.397416
 1484         hc     50    bbb     H9   1484 0.09515400   1.008000   ; qtot 49.492570
 1485         hc     50    bbb    H10   1485 0.09515400   1.008000   ; qtot 49.587724
 1486         c3     50    bbb     C6   1486 -0.11337700  12.010000   ; qtot 49.474347
 1487         hc     50    bbb    H11   1487 0.09515400   1.008000   ; qtot 49.569501
 1488         hc     50    bbb    H12   1488 0.09515400   1.008000   ; qtot 49.664655
 1489         c3     50    bbb     C7   1489 0.21842400  12.010000   ; qtot 49.883079
 1490         h1     50    bbb    H13   1490 0.04500300   1.008000   ; qtot 49.928082
 1491         h1     50    bbb    H14   1491 0.04500300   1.008000   ; qtot 49.973085
 1492         c3     50    bbb     C8   1492 -0.06455200  12.010000   ; qtot 49.908533
 1493         h1     50    bbb    H15   1493 0.13554100   1.008000   ; qtot 50.044074
 1494         h1     50    bbb    H16   1494 0.13554100   1.008000   ; qtot 50.179615
 1495         c3     50    bbb     C9   1495 -0.06455200  12.010000   ; qtot 50.115063
 1496         h1     50    bbb    H17   1496 0.13554100   1.008000   ; qtot 50.250604
 1497         h1     50    bbb    H18   1497 0.13554100   1.008000   ; qtot 50.386145
 1498         os     50    bbb     O1   1498 -0.62587700  16.000000   ; qtot 49.760268
 1499         hn     50    bbb    H19   1499 0.23982500   1.008000   ; qtot 50.000093
; residue   51 bbb rtp bbb q 1.0
 1500         n4     51    bbb     N1   1500 0.03726400  14.010000   ; qtot 50.037357
 1501         c3     51    bbb     C1   1501 -0.07020100  12.010000   ; qtot 49.967156
 1502         hx     51    bbb     H1   1502 0.12219000   1.008000   ; qtot 50.089346
 1503         hx     51    bbb     H2   1503 0.12219000   1.008000   ; qtot 50.211536
 1504         c3     51    bbb     C2   1504 -0.07020100  12.010000   ; qtot 50.141335
 1505         hx     51    bbb     H3   1505 0.12219000   1.008000   ; qtot 50.263525
 1506         hx     51    bbb     H4   1506 0.12219000   1.008000   ; qtot 50.385715
 1507         c3     51    bbb     C3   1507 -0.39007700  12.010000   ; qtot 49.995638
 1508         hx     51    bbb     H5   1508 0.14940300   1.008000   ; qtot 50.145041
 1509         hx     51    bbb     H6   1509 0.14940300   1.008000   ; qtot 50.294444
 1510         c3     51    bbb     C4   1510 0.18057300  12.010000   ; qtot 50.475017
 1511         hc     51    bbb     H7   1511 0.01788900   1.008000   ; qtot 50.492906
 1512         hc     51    bbb     H8   1512 0.01788900   1.008000   ; qtot 50.510795
 1513         c3     51    bbb     C5   1513 -0.11337700  12.010000   ; qtot 50.397418
 1514         hc     51    bbb     H9   1514 0.09515400   1.008000   ; qtot 50.492572
 1515         hc     51    bbb    H10   1515 0.09515400   1.008000   ; qtot 50.587726
 1516         c3     51    bbb     C6   1516 -0.11337700  12.010000   ; qtot 50.474349
 1517         hc     51    bbb    H11   1517 0.09515400   1.008000   ; qtot 50.569503
 1518         hc     51    bbb    H12   1518 0.09515400   1.008000   ; qtot 50.664657
 1519         c3     51    bbb     C7   1519 0.21842400  12.010000   ; qtot 50.883081
 1520         h1     51    bbb    H13   1520 0.04500300   1.008000   ; qtot 50.928084
 1521         h1     51    bbb    H14   1521 0.04500300   1.008000   ; qtot 50.973087
 1522         c3     51    bbb     C8   1522 -0.06455200  12.010000   ; qtot 50.908535
 1523         h1     51    bbb    H15   1523 0.13554100   1.008000   ; qtot 51.044076
 1524         h1     51    bbb    H16   1524 0.13554100   1.008000   ; qtot 51.179617
 1525         c3     51    bbb     C9   1525 -0.06455200  12.010000   ; qtot 51.115065
 1526         h1     51    bbb    H17   1526 0.13554100   1.008000   ; qtot 51.250606
 1527         h1     51    bbb    H18   1527 0.13554100   1.008000   ; qtot 51.386147
 1528         os     51    bbb     O1   1528 -0.62587700  16.000000   ; qtot 50.760270
 1529         hn     51    bbb    H19   1529 0.23982500   1.008000   ; qtot 51.000095
; residue   52 bbb rtp bbb q 1.0
 1530         n4     52    bbb     N1   1530 0.03726400  14.010000   ; qtot 51.037359
 1531         c3     52    bbb     C1   1531 -0.07020100  12.010000   ; qtot 50.967158
 1532         hx     52    bbb     H1   1532 0.12219000   1.008000   ; qtot 51.089348
 1533         hx     52    bbb     H2   1533 0.12219000   1.008000   ; qtot 51.211538
 1534         c3     52    bbb     C2   1534 -0.07020100  12.010000   ; qtot 51.141337
 1535         hx     52    bbb     H3   1535 0.12219000   1.008000   ; qtot 51.263527
 1536         hx     52    bbb     H4   1536 0.12219000   1.008000   ; qtot 51.385717
 1537         c3     52    bbb     C3   1537 -0.39007700  12.010000   ; qtot 50.995640
 1538         hx     52    bbb     H5   1538 0.14940300   1.008000   ; qtot 51.145043
 1539         hx     52    bbb     H6   1539 0.14940300   1.008000   ; qtot 51.294446
 1540         c3     52    bbb     C4   1540 0.18057300  12.010000   ; qtot 51.475019
 1541         hc     52    bbb     H7   1541 0.01788900   1.008000   ; qtot 51.492908
 1542         hc     52    bbb     H8   1542 0.01788900   1.008000   ; qtot 51.510797
 1543         c3     52    bbb     C5   1543 -0.11337700  12.010000   ; qtot 51.397420
 1544         hc     52    bbb     H9   1544 0.09515400   1.008000   ; qtot 51.492574
 1545         hc     52    bbb    H10   1545 0.09515400   1.008000   ; qtot 51.587728
 1546         c3     52    bbb     C6   1546 -0.11337700  12.010000   ; qtot 51.474351
 1547         hc     52    bbb    H11   1547 0.09515400   1.008000   ; qtot 51.569505
 1548         hc     52    bbb    H12   1548 0.09515400   1.008000   ; qtot 51.664659
 1549         c3     52    bbb     C7   1549 0.21842400  12.010000   ; qtot 51.883083
 1550         h1     52    bbb    H13   1550 0.04500300   1.008000   ; qtot 51.928086
 1551         h1     52    bbb    H14   1551 0.04500300   1.008000   ; qtot 51.973089
 1552         c3     52    bbb     C8   1552 -0.06455200  12.010000   ; qtot 51.908537
 1553         h1     52    bbb    H15   1553 0.13554100   1.008000   ; qtot 52.044078
 1554         h1     52    bbb    H16   1554 0.13554100   1.008000   ; qtot 52.179619
 1555         c3     52    bbb     C9   1555 -0.06455200  12.010000   ; qtot 52.115067
 1556         h1     52    bbb    H17   1556 0.13554100   1.008000   ; qtot 52.250608
 1557         h1     52    bbb    H18   1557 0.13554100   1.008000   ; qtot 52.386149
 1558         os     52    bbb     O1   1558 -0.62587700  16.000000   ; qtot 51.760272
 1559         hn     52    bbb    H19   1559 0.23982500   1.008000   ; qtot 52.000097
; residue   53 bbb rtp bbb q 1.0
 1560         n4     53    bbb     N1   1560 0.03726400  14.010000   ; qtot 52.037361
 1561         c3     53    bbb     C1   1561 -0.07020100  12.010000   ; qtot 51.967160
 1562         hx     53    bbb     H1   1562 0.12219000   1.008000   ; qtot 52.089350
 1563         hx     53    bbb     H2   1563 0.12219000   1.008000   ; qtot 52.211540
 1564         c3     53    bbb     C2   1564 -0.07020100  12.010000   ; qtot 52.141339
 1565         hx     53    bbb     H3   1565 0.12219000   1.008000   ; qtot 52.263529
 1566         hx     53    bbb     H4   1566 0.12219000   1.008000   ; qtot 52.385719
 1567         c3     53    bbb     C3   1567 -0.39007700  12.010000   ; qtot 51.995642
 1568         hx     53    bbb     H5   1568 0.14940300   1.008000   ; qtot 52.145045
 1569         hx     53    bbb     H6   1569 0.14940300   1.008000   ; qtot 52.294448
 1570         c3     53    bbb     C4   1570 0.18057300  12.010000   ; qtot 52.475021
 1571         hc     53    bbb     H7   1571 0.01788900   1.008000   ; qtot 52.492910
 1572         hc     53    bbb     H8   1572 0.01788900   1.008000   ; qtot 52.510799
 1573         c3     53    bbb     C5   1573 -0.11337700  12.010000   ; qtot 52.397422
 1574         hc     53    bbb     H9   1574 0.09515400   1.008000   ; qtot 52.492576
 1575         hc     53    bbb    H10   1575 0.09515400   1.008000   ; qtot 52.587730
 1576         c3     53    bbb     C6   1576 -0.11337700  12.010000   ; qtot 52.474353
 1577         hc     53    bbb    H11   1577 0.09515400   1.008000   ; qtot 52.569507
 1578         hc     53    bbb    H12   1578 0.09515400   1.008000   ; qtot 52.664661
 1579         c3     53    bbb     C7   1579 0.21842400  12.010000   ; qtot 52.883085
 1580         h1     53    bbb    H13   1580 0.04500300   1.008000   ; qtot 52.928088
 1581         h1     53    bbb    H14   1581 0.04500300   1.008000   ; qtot 52.973091
 1582         c3     53    bbb     C8   1582 -0.06455200  12.010000   ; qtot 52.908539
 1583         h1     53    bbb    H15   1583 0.13554100   1.008000   ; qtot 53.044080
 1584         h1     53    bbb    H16   1584 0.13554100   1.008000   ; qtot 53.179621
 1585         c3     53    bbb     C9   1585 -0.06455200  12.010000   ; qtot 53.115069
 1586         h1     53    bbb    H17   1586 0.13554100   1.008000   ; qtot 53.250610
 1587         h1     53    bbb    H18   1587 0.13554100   1.008000   ; qtot 53.386151
 1588         os     53    bbb     O1   1588 -0.62587700  16.000000   ; qtot 52.760274
 1589         hn     53    bbb    H19   1589 0.23982500   1.008000   ; qtot 53.000099
; residue   54 bbb rtp bbb q 1.0
 1590         n4     54    bbb     N1   1590 0.03726400  14.010000   ; qtot 53.037363
 1591         c3     54    bbb     C1   1591 -0.07020100  12.010000   ; qtot 52.967162
 1592         hx     54    bbb     H1   1592 0.12219000   1.008000   ; qtot 53.089352
 1593         hx     54    bbb     H2   1593 0.12219000   1.008000   ; qtot 53.211542
 1594         c3     54    bbb     C2   1594 -0.07020100  12.010000   ; qtot 53.141341
 1595         hx     54    bbb     H3   1595 0.12219000   1.008000   ; qtot 53.263531
 1596         hx     54    bbb     H4   1596 0.12219000   1.008000   ; qtot 53.385721
 1597         c3     54    bbb     C3   1597 -0.39007700  12.010000   ; qtot 52.995644
 1598         hx     54    bbb     H5   1598 0.14940300   1.008000   ; qtot 53.145047
 1599         hx     54    bbb     H6   1599 0.14940300   1.008000   ; qtot 53.294450
 1600         c3     54    bbb     C4   1600 0.18057300  12.010000   ; qtot 53.475023
 1601         hc     54    bbb     H7   1601 0.01788900   1.008000   ; qtot 53.492912
 1602         hc     54    bbb     H8   1602 0.01788900   1.008000   ; qtot 53.510801
 1603         c3     54    bbb     C5   1603 -0.11337700  12.010000   ; qtot 53.397424
 1604         hc     54    bbb     H9   1604 0.09515400   1.008000   ; qtot 53.492578
 1605         hc     54    bbb    H10   1605 0.09515400   1.008000   ; qtot 53.587732
 1606         c3     54    bbb     C6   1606 -0.11337700  12.010000   ; qtot 53.474355
 1607         hc     54    bbb    H11   1607 0.09515400   1.008000   ; qtot 53.569509
 1608         hc     54    bbb    H12   1608 0.09515400   1.008000   ; qtot 53.664663
 1609         c3     54    bbb     C7   1609 0.21842400  12.010000   ; qtot 53.883087
 1610         h1     54    bbb    H13   1610 0.04500300   1.008000   ; qtot 53.928090
 1611         h1     54    bbb    H14   1611 0.04500300   1.008000   ; qtot 53.973093
 1612         c3     54    bbb     C8   1612 -0.06455200  12.010000   ; qtot 53.908541
 1613         h1     54    bbb    H15   1613 0.13554100   1.008000   ; qtot 54.044082
 1614         h1     54    bbb    H16   1614 0.13554100   1.008000   ; qtot 54.179623
 1615         c3     54    bbb     C9   1615 -0.06455200  12.010000   ; qtot 54.115071
 1616         h1     54    bbb    H17   1616 0.13554100   1.008000   ; qtot 54.250612
 1617         h1     54    bbb    H18   1617 0.13554100   1.008000   ; qtot 54.386153
 1618         os     54    bbb     O1   1618 -0.62587700  16.000000   ; qtot 53.760276
 1619         hn     54    bbb    H19   1619 0.23982500   1.008000   ; qtot 54.000101
; residue   55 bbb rtp bbb q 1.0
 1620         n4     55    bbb     N1   1620 0.03726400  14.010000   ; qtot 54.037365
 1621         c3     55    bbb     C1   1621 -0.07020100  12.010000   ; qtot 53.967164
 1622         hx     55    bbb     H1   1622 0.12219000   1.008000   ; qtot 54.089354
 1623         hx     55    bbb     H2   1623 0.12219000   1.008000   ; qtot 54.211544
 1624         c3     55    bbb     C2   1624 -0.07020100  12.010000   ; qtot 54.141343
 1625         hx     55    bbb     H3   1625 0.12219000   1.008000   ; qtot 54.263533
 1626         hx     55    bbb     H4   1626 0.12219000   1.008000   ; qtot 54.385723
 1627         c3     55    bbb     C3   1627 -0.39007700  12.010000   ; qtot 53.995646
 1628         hx     55    bbb     H5   1628 0.14940300   1.008000   ; qtot 54.145049
 1629         hx     55    bbb     H6   1629 0.14940300   1.008000   ; qtot 54.294452
 1630         c3     55    bbb     C4   1630 0.18057300  12.010000   ; qtot 54.475025
 1631         hc     55    bbb     H7   1631 0.01788900   1.008000   ; qtot 54.492914
 1632         hc     55    bbb     H8   1632 0.01788900   1.008000   ; qtot 54.510803
 1633         c3     55    bbb     C5   1633 -0.11337700  12.010000   ; qtot 54.397426
 1634         hc     55    bbb     H9   1634 0.09515400   1.008000   ; qtot 54.492580
 1635         hc     55    bbb    H10   1635 0.09515400   1.008000   ; qtot 54.587734
 1636         c3     55    bbb     C6   1636 -0.11337700  12.010000   ; qtot 54.474357
 1637         hc     55    bbb    H11   1637 0.09515400   1.008000   ; qtot 54.569511
 1638         hc     55    bbb    H12   1638 0.09515400   1.008000   ; qtot 54.664665
 1639         c3     55    bbb     C7   1639 0.21842400  12.010000   ; qtot 54.883089
 1640         h1     55    bbb    H13   1640 0.04500300   1.008000   ; qtot 54.928092
 1641         h1     55    bbb    H14   1641 0.04500300   1.008000   ; qtot 54.973095
 1642         c3     55    bbb     C8   1642 -0.06455200  12.010000   ; qtot 54.908543
 1643         h1     55    bbb    H15   1643 0.13554100   1.008000   ; qtot 55.044084
 1644         h1     55    bbb    H16   1644 0.13554100   1.008000   ; qtot 55.179625
 1645         c3     55    bbb     C9   1645 -0.06455200  12.010000   ; qtot 55.115073
 1646         h1     55    bbb    H17   1646 0.13554100   1.008000   ; qtot 55.250614
 1647         h1     55    bbb    H18   1647 0.13554100   1.008000   ; qtot 55.386155
 1648         os     55    bbb     O1   1648 -0.62587700  16.000000   ; qtot 54.760278
 1649         hn     55    bbb    H19   1649 0.23982500   1.008000   ; qtot 55.000103
; residue   56 bbb rtp bbb q 1.0
 1650         n4     56    bbb     N1   1650 0.03726400  14.010000   ; qtot 55.037367
 1651         c3     56    bbb     C1   1651 -0.07020100  12.010000   ; qtot 54.967166
 1652         hx     56    bbb     H1   1652 0.12219000   1.008000   ; qtot 55.089356
 1653         hx     56    bbb     H2   1653 0.12219000   1.008000   ; qtot 55.211546
 1654         c3     56    bbb     C2   1654 -0.07020100  12.010000   ; qtot 55.141345
 1655         hx     56    bbb     H3   1655 0.12219000   1.008000   ; qtot 55.263535
 1656         hx     56    bbb     H4   1656 0.12219000   1.008000   ; qtot 55.385725
 1657         c3     56    bbb     C3   1657 -0.39007700  12.010000   ; qtot 54.995648
 1658         hx     56    bbb     H5   1658 0.14940300   1.008000   ; qtot 55.145051
 1659         hx     56    bbb     H6   1659 0.14940300   1.008000   ; qtot 55.294454
 1660         c3     56    bbb     C4   1660 0.18057300  12.010000   ; qtot 55.475027
 1661         hc     56    bbb     H7   1661 0.01788900   1.008000   ; qtot 55.492916
 1662         hc     56    bbb     H8   1662 0.01788900   1.008000   ; qtot 55.510805
 1663         c3     56    bbb     C5   1663 -0.11337700  12.010000   ; qtot 55.397428
 1664         hc     56    bbb     H9   1664 0.09515400   1.008000   ; qtot 55.492582
 1665         hc     56    bbb    H10   1665 0.09515400   1.008000   ; qtot 55.587736
 1666         c3     56    bbb     C6   1666 -0.11337700  12.010000   ; qtot 55.474359
 1667         hc     56    bbb    H11   1667 0.09515400   1.008000   ; qtot 55.569513
 1668         hc     56    bbb    H12   1668 0.09515400   1.008000   ; qtot 55.664667
 1669         c3     56    bbb     C7   1669 0.21842400  12.010000   ; qtot 55.883091
 1670         h1     56    bbb    H13   1670 0.04500300   1.008000   ; qtot 55.928094
 1671         h1     56    bbb    H14   1671 0.04500300   1.008000   ; qtot 55.973097
 1672         c3     56    bbb     C8   1672 -0.06455200  12.010000   ; qtot 55.908545
 1673         h1     56    bbb    H15   1673 0.13554100   1.008000   ; qtot 56.044086
 1674         h1     56    bbb    H16   1674 0.13554100   1.008000   ; qtot 56.179627
 1675         c3     56    bbb     C9   1675 -0.06455200  12.010000   ; qtot 56.115075
 1676         h1     56    bbb    H17   1676 0.13554100   1.008000   ; qtot 56.250616
 1677         h1     56    bbb    H18   1677 0.13554100   1.008000   ; qtot 56.386157
 1678         os     56    bbb     O1   1678 -0.62587700  16.000000   ; qtot 55.760280
 1679         hn     56    bbb    H19   1679 0.23982500   1.008000   ; qtot 56.000105
; residue   57 bbb rtp bbb q 1.0
 1680         n4     57    bbb     N1   1680 0.03726400  14.010000   ; qtot 56.037369
 1681         c3     57    bbb     C1   1681 -0.07020100  12.010000   ; qtot 55.967168
 1682         hx     57    bbb     H1   1682 0.12219000   1.008000   ; qtot 56.089358
 1683         hx     57    bbb     H2   1683 0.12219000   1.008000   ; qtot 56.211548
 1684         c3     57    bbb     C2   1684 -0.07020100  12.010000   ; qtot 56.141347
 1685         hx     57    bbb     H3   1685 0.12219000   1.008000   ; qtot 56.263537
 1686         hx     57    bbb     H4   1686 0.12219000   1.008000   ; qtot 56.385727
 1687         c3     57    bbb     C3   1687 -0.39007700  12.010000   ; qtot 55.995650
 1688         hx     57    bbb     H5   1688 0.14940300   1.008000   ; qtot 56.145053
 1689         hx     57    bbb     H6   1689 0.14940300   1.008000   ; qtot 56.294456
 1690         c3     57    bbb     C4   1690 0.18057300  12.010000   ; qtot 56.475029
 1691         hc     57    bbb     H7   1691 0.01788900   1.008000   ; qtot 56.492918
 1692         hc     57    bbb     H8   1692 0.01788900   1.008000   ; qtot 56.510807
 1693         c3     57    bbb     C5   1693 -0.11337700  12.010000   ; qtot 56.397430
 1694         hc     57    bbb     H9   1694 0.09515400   1.008000   ; qtot 56.492584
 1695         hc     57    bbb    H10   1695 0.09515400   1.008000   ; qtot 56.587738
 1696         c3     57    bbb     C6   1696 -0.11337700  12.010000   ; qtot 56.474361
 1697         hc     57    bbb    H11   1697 0.09515400   1.008000   ; qtot 56.569515
 1698         hc     57    bbb    H12   1698 0.09515400   1.008000   ; qtot 56.664669
 1699         c3     57    bbb     C7   1699 0.21842400  12.010000   ; qtot 56.883093
 1700         h1     57    bbb    H13   1700 0.04500300   1.008000   ; qtot 56.928096
 1701         h1     57    bbb    H14   1701 0.04500300   1.008000   ; qtot 56.973099
 1702         c3     57    bbb     C8   1702 -0.06455200  12.010000   ; qtot 56.908547
 1703         h1     57    bbb    H15   1703 0.13554100   1.008000   ; qtot 57.044088
 1704         h1     57    bbb    H16   1704 0.13554100   1.008000   ; qtot 57.179629
 1705         c3     57    bbb     C9   1705 -0.06455200  12.010000   ; qtot 57.115077
 1706         h1     57    bbb    H17   1706 0.13554100   1.008000   ; qtot 57.250618
 1707         h1     57    bbb    H18   1707 0.13554100   1.008000   ; qtot 57.386159
 1708         os     57    bbb     O1   1708 -0.62587700  16.000000   ; qtot 56.760282
 1709         hn     57    bbb    H19   1709 0.23982500   1.008000   ; qtot 57.000107
; residue   58 bbb rtp bbb q 1.0
 1710         n4     58    bbb     N1   1710 0.03726400  14.010000   ; qtot 57.037371
 1711         c3     58    bbb     C1   1711 -0.07020100  12.010000   ; qtot 56.967170
 1712         hx     58    bbb     H1   1712 0.12219000   1.008000   ; qtot 57.089360
 1713         hx     58    bbb     H2   1713 0.12219000   1.008000   ; qtot 57.211550
 1714         c3     58    bbb     C2   1714 -0.07020100  12.010000   ; qtot 57.141349
 1715         hx     58    bbb     H3   1715 0.12219000   1.008000   ; qtot 57.263539
 1716         hx     58    bbb     H4   1716 0.12219000   1.008000   ; qtot 57.385729
 1717         c3     58    bbb     C3   1717 -0.39007700  12.010000   ; qtot 56.995652
 1718         hx     58    bbb     H5   1718 0.14940300   1.008000   ; qtot 57.145055
 1719         hx     58    bbb     H6   1719 0.14940300   1.008000   ; qtot 57.294458
 1720         c3     58    bbb     C4   1720 0.18057300  12.010000   ; qtot 57.475031
 1721         hc     58    bbb     H7   1721 0.01788900   1.008000   ; qtot 57.492920
 1722         hc     58    bbb     H8   1722 0.01788900   1.008000   ; qtot 57.510809
 1723         c3     58    bbb     C5   1723 -0.11337700  12.010000   ; qtot 57.397432
 1724         hc     58    bbb     H9   1724 0.09515400   1.008000   ; qtot 57.492586
 1725         hc     58    bbb    H10   1725 0.09515400   1.008000   ; qtot 57.587740
 1726         c3     58    bbb     C6   1726 -0.11337700  12.010000   ; qtot 57.474363
 1727         hc     58    bbb    H11   1727 0.09515400   1.008000   ; qtot 57.569517
 1728         hc     58    bbb    H12   1728 0.09515400   1.008000   ; qtot 57.664671
 1729         c3     58    bbb     C7   1729 0.21842400  12.010000   ; qtot 57.883095
 1730         h1     58    bbb    H13   1730 0.04500300   1.008000   ; qtot 57.928098
 1731         h1     58    bbb    H14   1731 0.04500300   1.008000   ; qtot 57.973101
 1732         c3     58    bbb     C8   1732 -0.06455200  12.010000   ; qtot 57.908549
 1733         h1     58    bbb    H15   1733 0.13554100   1.008000   ; qtot 58.044090
 1734         h1     58    bbb    H16   1734 0.13554100   1.008000   ; qtot 58.179631
 1735         c3     58    bbb     C9   1735 -0.06455200  12.010000   ; qtot 58.115079
 1736         h1     58    bbb    H17   1736 0.13554100   1.008000   ; qtot 58.250620
 1737         h1     58    bbb    H18   1737 0.13554100   1.008000   ; qtot 58.386161
 1738         os     58    bbb     O1   1738 -0.62587700  16.000000   ; qtot 57.760284
 1739         hn     58    bbb    H19   1739 0.23982500   1.008000   ; qtot 58.000109
; residue   59 bbb rtp bbb q 1.0
 1740         n4     59    bbb     N1   1740 0.03726400  14.010000   ; qtot 58.037373
 1741         c3     59    bbb     C1   1741 -0.07020100  12.010000   ; qtot 57.967172
 1742         hx     59    bbb     H1   1742 0.12219000   1.008000   ; qtot 58.089362
 1743         hx     59    bbb     H2   1743 0.12219000   1.008000   ; qtot 58.211552
 1744         c3     59    bbb     C2   1744 -0.07020100  12.010000   ; qtot 58.141351
 1745         hx     59    bbb     H3   1745 0.12219000   1.008000   ; qtot 58.263541
 1746         hx     59    bbb     H4   1746 0.12219000   1.008000   ; qtot 58.385731
 1747         c3     59    bbb     C3   1747 -0.39007700  12.010000   ; qtot 57.995654
 1748         hx     59    bbb     H5   1748 0.14940300   1.008000   ; qtot 58.145057
 1749         hx     59    bbb     H6   1749 0.14940300   1.008000   ; qtot 58.294460
 1750         c3     59    bbb     C4   1750 0.18057300  12.010000   ; qtot 58.475033
 1751         hc     59    bbb     H7   1751 0.01788900   1.008000   ; qtot 58.492922
 1752         hc     59    bbb     H8   1752 0.01788900   1.008000   ; qtot 58.510811
 1753         c3     59    bbb     C5   1753 -0.11337700  12.010000   ; qtot 58.397434
 1754         hc     59    bbb     H9   1754 0.09515400   1.008000   ; qtot 58.492588
 1755         hc     59    bbb    H10   1755 0.09515400   1.008000   ; qtot 58.587742
 1756         c3     59    bbb     C6   1756 -0.11337700  12.010000   ; qtot 58.474365
 1757         hc     59    bbb    H11   1757 0.09515400   1.008000   ; qtot 58.569519
 1758         hc     59    bbb    H12   1758 0.09515400   1.008000   ; qtot 58.664673
 1759         c3     59    bbb     C7   1759 0.21842400  12.010000   ; qtot 58.883097
 1760         h1     59    bbb    H13   1760 0.04500300   1.008000   ; qtot 58.928100
 1761         h1     59    bbb    H14   1761 0.04500300   1.008000   ; qtot 58.973103
 1762         c3     59    bbb     C8   1762 -0.06455200  12.010000   ; qtot 58.908551
 1763         h1     59    bbb    H15   1763 0.13554100   1.008000   ; qtot 59.044092
 1764         h1     59    bbb    H16   1764 0.13554100   1.008000   ; qtot 59.179633
 1765         c3     59    bbb     C9   1765 -0.06455200  12.010000   ; qtot 59.115081
 1766         h1     59    bbb    H17   1766 0.13554100   1.008000   ; qtot 59.250622
 1767         h1     59    bbb    H18   1767 0.13554100   1.008000   ; qtot 59.386163
 1768         os     59    bbb     O1   1768 -0.62587700  16.000000   ; qtot 58.760286
 1769         hn     59    bbb    H19   1769 0.23982500   1.008000   ; qtot 59.000111
; residue   60 bbb rtp bbb q 1.0
 1770         n4     60    bbb     N1   1770 0.03726400  14.010000   ; qtot 59.037375
 1771         c3     60    bbb     C1   1771 -0.07020100  12.010000   ; qtot 58.967174
 1772         hx     60    bbb     H1   1772 0.12219000   1.008000   ; qtot 59.089364
 1773         hx     60    bbb     H2   1773 0.12219000   1.008000   ; qtot 59.211554
 1774         c3     60    bbb     C2   1774 -0.07020100  12.010000   ; qtot 59.141353
 1775         hx     60    bbb     H3   1775 0.12219000   1.008000   ; qtot 59.263543
 1776         hx     60    bbb     H4   1776 0.12219000   1.008000   ; qtot 59.385733
 1777         c3     60    bbb     C3   1777 -0.39007700  12.010000   ; qtot 58.995656
 1778         hx     60    bbb     H5   1778 0.14940300   1.008000   ; qtot 59.145059
 1779         hx     60    bbb     H6   1779 0.14940300   1.008000   ; qtot 59.294462
 1780         c3     60    bbb     C4   1780 0.18057300  12.010000   ; qtot 59.475035
 1781         hc     60    bbb     H7   1781 0.01788900   1.008000   ; qtot 59.492924
 1782         hc     60    bbb     H8   1782 0.01788900   1.008000   ; qtot 59.510813
 1783         c3     60    bbb     C5   1783 -0.11337700  12.010000   ; qtot 59.397436
 1784         hc     60    bbb     H9   1784 0.09515400   1.008000   ; qtot 59.492590
 1785         hc     60    bbb    H10   1785 0.09515400   1.008000   ; qtot 59.587744
 1786         c3     60    bbb     C6   1786 -0.11337700  12.010000   ; qtot 59.474367
 1787         hc     60    bbb    H11   1787 0.09515400   1.008000   ; qtot 59.569521
 1788         hc     60    bbb    H12   1788 0.09515400   1.008000   ; qtot 59.664675
 1789         c3     60    bbb     C7   1789 0.21842400  12.010000   ; qtot 59.883099
 1790         h1     60    bbb    H13   1790 0.04500300   1.008000   ; qtot 59.928102
 1791         h1     60    bbb    H14   1791 0.04500300   1.008000   ; qtot 59.973105
 1792         c3     60    bbb     C8   1792 -0.06455200  12.010000   ; qtot 59.908553
 1793         h1     60    bbb    H15   1793 0.13554100   1.008000   ; qtot 60.044094
 1794         h1     60    bbb    H16   1794 0.13554100   1.008000   ; qtot 60.179635
 1795         c3     60    bbb     C9   1795 -0.06455200  12.010000   ; qtot 60.115083
 1796         h1     60    bbb    H17   1796 0.13554100   1.008000   ; qtot 60.250624
 1797         h1     60    bbb    H18   1797 0.13554100   1.008000   ; qtot 60.386165
 1798         os     60    bbb     O1   1798 -0.62587700  16.000000   ; qtot 59.760288
 1799         hn     60    bbb    H19   1799 0.23982500   1.008000   ; qtot 60.000113
; residue   61 bbb rtp bbb q 1.0
 1800         n4     61    bbb     N1   1800 0.03726400  14.010000   ; qtot 60.037377
 1801         c3     61    bbb     C1   1801 -0.07020100  12.010000   ; qtot 59.967176
 1802         hx     61    bbb     H1   1802 0.12219000   1.008000   ; qtot 60.089366
 1803         hx     61    bbb     H2   1803 0.12219000   1.008000   ; qtot 60.211556
 1804         c3     61    bbb     C2   1804 -0.07020100  12.010000   ; qtot 60.141355
 1805         hx     61    bbb     H3   1805 0.12219000   1.008000   ; qtot 60.263545
 1806         hx     61    bbb     H4   1806 0.12219000   1.008000   ; qtot 60.385735
 1807         c3     61    bbb     C3   1807 -0.39007700  12.010000   ; qtot 59.995658
 1808         hx     61    bbb     H5   1808 0.14940300   1.008000   ; qtot 60.145061
 1809         hx     61    bbb     H6   1809 0.14940300   1.008000   ; qtot 60.294464
 1810         c3     61    bbb     C4   1810 0.18057300  12.010000   ; qtot 60.475037
 1811         hc     61    bbb     H7   1811 0.01788900   1.008000   ; qtot 60.492926
 1812         hc     61    bbb     H8   1812 0.01788900   1.008000   ; qtot 60.510815
 1813         c3     61    bbb     C5   1813 -0.11337700  12.010000   ; qtot 60.397438
 1814         hc     61    bbb     H9   1814 0.09515400   1.008000   ; qtot 60.492592
 1815         hc     61    bbb    H10   1815 0.09515400   1.008000   ; qtot 60.587746
 1816         c3     61    bbb     C6   1816 -0.11337700  12.010000   ; qtot 60.474369
 1817         hc     61    bbb    H11   1817 0.09515400   1.008000   ; qtot 60.569523
 1818         hc     61    bbb    H12   1818 0.09515400   1.008000   ; qtot 60.664677
 1819         c3     61    bbb     C7   1819 0.21842400  12.010000   ; qtot 60.883101
 1820         h1     61    bbb    H13   1820 0.04500300   1.008000   ; qtot 60.928104
 1821         h1     61    bbb    H14   1821 0.04500300   1.008000   ; qtot 60.973107
 1822         c3     61    bbb     C8   1822 -0.06455200  12.010000   ; qtot 60.908555
 1823         h1     61    bbb    H15   1823 0.13554100   1.008000   ; qtot 61.044096
 1824         h1     61    bbb    H16   1824 0.13554100   1.008000   ; qtot 61.179637
 1825         c3     61    bbb     C9   1825 -0.06455200  12.010000   ; qtot 61.115085
 1826         h1     61    bbb    H17   1826 0.13554100   1.008000   ; qtot 61.250626
 1827         h1     61    bbb    H18   1827 0.13554100   1.008000   ; qtot 61.386167
 1828         os     61    bbb     O1   1828 -0.62587700  16.000000   ; qtot 60.760290
 1829         hn     61    bbb    H19   1829 0.23982500   1.008000   ; qtot 61.000115
; residue   62 bbb rtp bbb q 1.0
 1830         n4     62    bbb     N1   1830 0.03726400  14.010000   ; qtot 61.037379
 1831         c3     62    bbb     C1   1831 -0.07020100  12.010000   ; qtot 60.967178
 1832         hx     62    bbb     H1   1832 0.12219000   1.008000   ; qtot 61.089368
 1833         hx     62    bbb     H2   1833 0.12219000   1.008000   ; qtot 61.211558
 1834         c3     62    bbb     C2   1834 -0.07020100  12.010000   ; qtot 61.141357
 1835         hx     62    bbb     H3   1835 0.12219000   1.008000   ; qtot 61.263547
 1836         hx     62    bbb     H4   1836 0.12219000   1.008000   ; qtot 61.385737
 1837         c3     62    bbb     C3   1837 -0.39007700  12.010000   ; qtot 60.995660
 1838         hx     62    bbb     H5   1838 0.14940300   1.008000   ; qtot 61.145063
 1839         hx     62    bbb     H6   1839 0.14940300   1.008000   ; qtot 61.294466
 1840         c3     62    bbb     C4   1840 0.18057300  12.010000   ; qtot 61.475039
 1841         hc     62    bbb     H7   1841 0.01788900   1.008000   ; qtot 61.492928
 1842         hc     62    bbb     H8   1842 0.01788900   1.008000   ; qtot 61.510817
 1843         c3     62    bbb     C5   1843 -0.11337700  12.010000   ; qtot 61.397440
 1844         hc     62    bbb     H9   1844 0.09515400   1.008000   ; qtot 61.492594
 1845         hc     62    bbb    H10   1845 0.09515400   1.008000   ; qtot 61.587748
 1846         c3     62    bbb     C6   1846 -0.11337700  12.010000   ; qtot 61.474371
 1847         hc     62    bbb    H11   1847 0.09515400   1.008000   ; qtot 61.569525
 1848         hc     62    bbb    H12   1848 0.09515400   1.008000   ; qtot 61.664679
 1849         c3     62    bbb     C7   1849 0.21842400  12.010000   ; qtot 61.883103
 1850         h1     62    bbb    H13   1850 0.04500300   1.008000   ; qtot 61.928106
 1851         h1     62    bbb    H14   1851 0.04500300   1.008000   ; qtot 61.973109
 1852         c3     62    bbb     C8   1852 -0.06455200  12.010000   ; qtot 61.908557
 1853         h1     62    bbb    H15   1853 0.13554100   1.008000   ; qtot 62.044098
 1854         h1     62    bbb    H16   1854 0.13554100   1.008000   ; qtot 62.179639
 1855         c3     62    bbb     C9   1855 -0.06455200  12.010000   ; qtot 62.115087
 1856         h1     62    bbb    H17   1856 0.13554100   1.008000   ; qtot 62.250628
 1857         h1     62    bbb    H18   1857 0.13554100   1.008000   ; qtot 62.386169
 1858         os     62    bbb     O1   1858 -0.62587700  16.000000   ; qtot 61.760292
 1859         hn     62    bbb    H19   1859 0.23982500   1.008000   ; qtot 62.000117
; residue   63 bbb rtp bbb q 1.0
 1860         n4     63    bbb     N1   1860 0.03726400  14.010000   ; qtot 62.037381
 1861         c3     63    bbb     C1   1861 -0.07020100  12.010000   ; qtot 61.967180
 1862         hx     63    bbb     H1   1862 0.12219000   1.008000   ; qtot 62.089370
 1863         hx     63    bbb     H2   1863 0.12219000   1.008000   ; qtot 62.211560
 1864         c3     63    bbb     C2   1864 -0.07020100  12.010000   ; qtot 62.141359
 1865         hx     63    bbb     H3   1865 0.12219000   1.008000   ; qtot 62.263549
 1866         hx     63    bbb     H4   1866 0.12219000   1.008000   ; qtot 62.385739
 1867         c3     63    bbb     C3   1867 -0.39007700  12.010000   ; qtot 61.995662
 1868         hx     63    bbb     H5   1868 0.14940300   1.008000   ; qtot 62.145065
 1869         hx     63    bbb     H6   1869 0.14940300   1.008000   ; qtot 62.294468
 1870         c3     63    bbb     C4   1870 0.18057300  12.010000   ; qtot 62.475041
 1871         hc     63    bbb     H7   1871 0.01788900   1.008000   ; qtot 62.492930
 1872         hc     63    bbb     H8   1872 0.01788900   1.008000   ; qtot 62.510819
 1873         c3     63    bbb     C5   1873 -0.11337700  12.010000   ; qtot 62.397442
 1874         hc     63    bbb     H9   1874 0.09515400   1.008000   ; qtot 62.492596
 1875         hc     63    bbb    H10   1875 0.09515400   1.008000   ; qtot 62.587750
 1876         c3     63    bbb     C6   1876 -0.11337700  12.010000   ; qtot 62.474373
 1877         hc     63    bbb    H11   1877 0.09515400   1.008000   ; qtot 62.569527
 1878         hc     63    bbb    H12   1878 0.09515400   1.008000   ; qtot 62.664681
 1879         c3     63    bbb     C7   1879 0.21842400  12.010000   ; qtot 62.883105
 1880         h1     63    bbb    H13   1880 0.04500300   1.008000   ; qtot 62.928108
 1881         h1     63    bbb    H14   1881 0.04500300   1.008000   ; qtot 62.973111
 1882         c3     63    bbb     C8   1882 -0.06455200  12.010000   ; qtot 62.908559
 1883         h1     63    bbb    H15   1883 0.13554100   1.008000   ; qtot 63.044100
 1884         h1     63    bbb    H16   1884 0.13554100   1.008000   ; qtot 63.179641
 1885         c3     63    bbb     C9   1885 -0.06455200  12.010000   ; qtot 63.115089
 1886         h1     63    bbb    H17   1886 0.13554100   1.008000   ; qtot 63.250630
 1887         h1     63    bbb    H18   1887 0.13554100   1.008000   ; qtot 63.386171
 1888         os     63    bbb     O1   1888 -0.62587700  16.000000   ; qtot 62.760294
 1889         hn     63    bbb    H19   1889 0.23982500   1.008000   ; qtot 63.000119
; residue   64 bbb rtp bbb q 1.0
 1890         n4     64    bbb     N1   1890 0.03726400  14.010000   ; qtot 63.037383
 1891         c3     64    bbb     C1   1891 -0.07020100  12.010000   ; qtot 62.967182
 1892         hx     64    bbb     H1   1892 0.12219000   1.008000   ; qtot 63.089372
 1893         hx     64    bbb     H2   1893 0.12219000   1.008000   ; qtot 63.211562
 1894         c3     64    bbb     C2   1894 -0.07020100  12.010000   ; qtot 63.141361
 1895         hx     64    bbb     H3   1895 0.12219000   1.008000   ; qtot 63.263551
 1896         hx     64    bbb     H4   1896 0.12219000   1.008000   ; qtot 63.385741
 1897         c3     64    bbb     C3   1897 -0.39007700  12.010000   ; qtot 62.995664
 1898         hx     64    bbb     H5   1898 0.14940300   1.008000   ; qtot 63.145067
 1899         hx     64    bbb     H6   1899 0.14940300   1.008000   ; qtot 63.294470
 1900         c3     64    bbb     C4   1900 0.18057300  12.010000   ; qtot 63.475043
 1901         hc     64    bbb     H7   1901 0.01788900   1.008000   ; qtot 63.492932
 1902         hc     64    bbb     H8   1902 0.01788900   1.008000   ; qtot 63.510821
 1903         c3     64    bbb     C5   1903 -0.11337700  12.010000   ; qtot 63.397444
 1904         hc     64    bbb     H9   1904 0.09515400   1.008000   ; qtot 63.492598
 1905         hc     64    bbb    H10   1905 0.09515400   1.008000   ; qtot 63.587752
 1906         c3     64    bbb     C6   1906 -0.11337700  12.010000   ; qtot 63.474375
 1907         hc     64    bbb    H11   1907 0.09515400   1.008000   ; qtot 63.569529
 1908         hc     64    bbb    H12   1908 0.09515400   1.008000   ; qtot 63.664683
 1909         c3     64    bbb     C7   1909 0.21842400  12.010000   ; qtot 63.883107
 1910         h1     64    bbb    H13   1910 0.04500300   1.008000   ; qtot 63.928110
 1911         h1     64    bbb    H14   1911 0.04500300   1.008000   ; qtot 63.973113
 1912         c3     64    bbb     C8   1912 -0.06455200  12.010000   ; qtot 63.908561
 1913         h1     64    bbb    H15   1913 0.13554100   1.008000   ; qtot 64.044102
 1914         h1     64    bbb    H16   1914 0.13554100   1.008000   ; qtot 64.179643
 1915         c3     64    bbb     C9   1915 -0.06455200  12.010000   ; qtot 64.115091
 1916         h1     64    bbb    H17   1916 0.13554100   1.008000   ; qtot 64.250632
 1917         h1     64    bbb    H18   1917 0.13554100   1.008000   ; qtot 64.386173
 1918         os     64    bbb     O1   1918 -0.62587700  16.000000   ; qtot 63.760296
 1919         hn     64    bbb    H19   1919 0.23982500   1.008000   ; qtot 64.000121
; residue   65 bbb rtp bbb q 1.0
 1920         n4     65    bbb     N1   1920 0.03726400  14.010000   ; qtot 64.037385
 1921         c3     65    bbb     C1   1921 -0.07020100  12.010000   ; qtot 63.967184
 1922         hx     65    bbb     H1   1922 0.12219000   1.008000   ; qtot 64.089374
 1923         hx     65    bbb     H2   1923 0.12219000   1.008000   ; qtot 64.211564
 1924         c3     65    bbb     C2   1924 -0.07020100  12.010000   ; qtot 64.141363
 1925         hx     65    bbb     H3   1925 0.12219000   1.008000   ; qtot 64.263553
 1926         hx     65    bbb     H4   1926 0.12219000   1.008000   ; qtot 64.385743
 1927         c3     65    bbb     C3   1927 -0.39007700  12.010000   ; qtot 63.995666
 1928         hx     65    bbb     H5   1928 0.14940300   1.008000   ; qtot 64.145069
 1929         hx     65    bbb     H6   1929 0.14940300   1.008000   ; qtot 64.294472
 1930         c3     65    bbb     C4   1930 0.18057300  12.010000   ; qtot 64.475045
 1931         hc     65    bbb     H7   1931 0.01788900   1.008000   ; qtot 64.492934
 1932         hc     65    bbb     H8   1932 0.01788900   1.008000   ; qtot 64.510823
 1933         c3     65    bbb     C5   1933 -0.11337700  12.010000   ; qtot 64.397446
 1934         hc     65    bbb     H9   1934 0.09515400   1.008000   ; qtot 64.492600
 1935         hc     65    bbb    H10   1935 0.09515400   1.008000   ; qtot 64.587754
 1936         c3     65    bbb     C6   1936 -0.11337700  12.010000   ; qtot 64.474377
 1937         hc     65    bbb    H11   1937 0.09515400   1.008000   ; qtot 64.569531
 1938         hc     65    bbb    H12   1938 0.09515400   1.008000   ; qtot 64.664685
 1939         c3     65    bbb     C7   1939 0.21842400  12.010000   ; qtot 64.883109
 1940         h1     65    bbb    H13   1940 0.04500300   1.008000   ; qtot 64.928112
 1941         h1     65    bbb    H14   1941 0.04500300   1.008000   ; qtot 64.973115
 1942         c3     65    bbb     C8   1942 -0.06455200  12.010000   ; qtot 64.908563
 1943         h1     65    bbb    H15   1943 0.13554100   1.008000   ; qtot 65.044104
 1944         h1     65    bbb    H16   1944 0.13554100   1.008000   ; qtot 65.179645
 1945         c3     65    bbb     C9   1945 -0.06455200  12.010000   ; qtot 65.115093
 1946         h1     65    bbb    H17   1946 0.13554100   1.008000   ; qtot 65.250634
 1947         h1     65    bbb    H18   1947 0.13554100   1.008000   ; qtot 65.386175
 1948         os     65    bbb     O1   1948 -0.62587700  16.000000   ; qtot 64.760298
 1949         hn     65    bbb    H19   1949 0.23982500   1.008000   ; qtot 65.000123
; residue   66 bbb rtp bbb q 1.0
 1950         n4     66    bbb     N1   1950 0.03726400  14.010000   ; qtot 65.037387
 1951         c3     66    bbb     C1   1951 -0.07020100  12.010000   ; qtot 64.967186
 1952         hx     66    bbb     H1   1952 0.12219000   1.008000   ; qtot 65.089376
 1953         hx     66    bbb     H2   1953 0.12219000   1.008000   ; qtot 65.211566
 1954         c3     66    bbb     C2   1954 -0.07020100  12.010000   ; qtot 65.141365
 1955         hx     66    bbb     H3   1955 0.12219000   1.008000   ; qtot 65.263555
 1956         hx     66    bbb     H4   1956 0.12219000   1.008000   ; qtot 65.385745
 1957         c3     66    bbb     C3   1957 -0.39007700  12.010000   ; qtot 64.995668
 1958         hx     66    bbb     H5   1958 0.14940300   1.008000   ; qtot 65.145071
 1959         hx     66    bbb     H6   1959 0.14940300   1.008000   ; qtot 65.294474
 1960         c3     66    bbb     C4   1960 0.18057300  12.010000   ; qtot 65.475047
 1961         hc     66    bbb     H7   1961 0.01788900   1.008000   ; qtot 65.492936
 1962         hc     66    bbb     H8   1962 0.01788900   1.008000   ; qtot 65.510825
 1963         c3     66    bbb     C5   1963 -0.11337700  12.010000   ; qtot 65.397448
 1964         hc     66    bbb     H9   1964 0.09515400   1.008000   ; qtot 65.492602
 1965         hc     66    bbb    H10   1965 0.09515400   1.008000   ; qtot 65.587756
 1966         c3     66    bbb     C6   1966 -0.11337700  12.010000   ; qtot 65.474379
 1967         hc     66    bbb    H11   1967 0.09515400   1.008000   ; qtot 65.569533
 1968         hc     66    bbb    H12   1968 0.09515400   1.008000   ; qtot 65.664687
 1969         c3     66    bbb     C7   1969 0.21842400  12.010000   ; qtot 65.883111
 1970         h1     66    bbb    H13   1970 0.04500300   1.008000   ; qtot 65.928114
 1971         h1     66    bbb    H14   1971 0.04500300   1.008000   ; qtot 65.973117
 1972         c3     66    bbb     C8   1972 -0.06455200  12.010000   ; qtot 65.908565
 1973         h1     66    bbb    H15   1973 0.13554100   1.008000   ; qtot 66.044106
 1974         h1     66    bbb    H16   1974 0.13554100   1.008000   ; qtot 66.179647
 1975         c3     66    bbb     C9   1975 -0.06455200  12.010000   ; qtot 66.115095
 1976         h1     66    bbb    H17   1976 0.13554100   1.008000   ; qtot 66.250636
 1977         h1     66    bbb    H18   1977 0.13554100   1.008000   ; qtot 66.386177
 1978         os     66    bbb     O1   1978 -0.62587700  16.000000   ; qtot 65.760300
 1979         hn     66    bbb    H19   1979 0.23982500   1.008000   ; qtot 66.000125
; residue   67 bbb rtp bbb q 1.0
 1980         n4     67    bbb     N1   1980 0.03726400  14.010000   ; qtot 66.037389
 1981         c3     67    bbb     C1   1981 -0.07020100  12.010000   ; qtot 65.967188
 1982         hx     67    bbb     H1   1982 0.12219000   1.008000   ; qtot 66.089378
 1983         hx     67    bbb     H2   1983 0.12219000   1.008000   ; qtot 66.211568
 1984         c3     67    bbb     C2   1984 -0.07020100  12.010000   ; qtot 66.141367
 1985         hx     67    bbb     H3   1985 0.12219000   1.008000   ; qtot 66.263557
 1986         hx     67    bbb     H4   1986 0.12219000   1.008000   ; qtot 66.385747
 1987         c3     67    bbb     C3   1987 -0.39007700  12.010000   ; qtot 65.995670
 1988         hx     67    bbb     H5   1988 0.14940300   1.008000   ; qtot 66.145073
 1989         hx     67    bbb     H6   1989 0.14940300   1.008000   ; qtot 66.294476
 1990         c3     67    bbb     C4   1990 0.18057300  12.010000   ; qtot 66.475049
 1991         hc     67    bbb     H7   1991 0.01788900   1.008000   ; qtot 66.492938
 1992         hc     67    bbb     H8   1992 0.01788900   1.008000   ; qtot 66.510827
 1993         c3     67    bbb     C5   1993 -0.11337700  12.010000   ; qtot 66.397450
 1994         hc     67    bbb     H9   1994 0.09515400   1.008000   ; qtot 66.492604
 1995         hc     67    bbb    H10   1995 0.09515400   1.008000   ; qtot 66.587758
 1996         c3     67    bbb     C6   1996 -0.11337700  12.010000   ; qtot 66.474381
 1997         hc     67    bbb    H11   1997 0.09515400   1.008000   ; qtot 66.569535
 1998         hc     67    bbb    H12   1998 0.09515400   1.008000   ; qtot 66.664689
 1999         c3     67    bbb     C7   1999 0.21842400  12.010000   ; qtot 66.883113
 2000         h1     67    bbb    H13   2000 0.04500300   1.008000   ; qtot 66.928116
 2001         h1     67    bbb    H14   2001 0.04500300   1.008000   ; qtot 66.973119
 2002         c3     67    bbb     C8   2002 -0.06455200  12.010000   ; qtot 66.908567
 2003         h1     67    bbb    H15   2003 0.13554100   1.008000   ; qtot 67.044108
 2004         h1     67    bbb    H16   2004 0.13554100   1.008000   ; qtot 67.179649
 2005         c3     67    bbb     C9   2005 -0.06455200  12.010000   ; qtot 67.115097
 2006         h1     67    bbb    H17   2006 0.13554100   1.008000   ; qtot 67.250638
 2007         h1     67    bbb    H18   2007 0.13554100   1.008000   ; qtot 67.386179
 2008         os     67    bbb     O1   2008 -0.62587700  16.000000   ; qtot 66.760302
 2009         hn     67    bbb    H19   2009 0.23982500   1.008000   ; qtot 67.000127
; residue   68 bbb rtp bbb q 1.0
 2010         n4     68    bbb     N1   2010 0.03726400  14.010000   ; qtot 67.037391
 2011         c3     68    bbb     C1   2011 -0.07020100  12.010000   ; qtot 66.967190
 2012         hx     68    bbb     H1   2012 0.12219000   1.008000   ; qtot 67.089380
 2013         hx     68    bbb     H2   2013 0.12219000   1.008000   ; qtot 67.211570
 2014         c3     68    bbb     C2   2014 -0.07020100  12.010000   ; qtot 67.141369
 2015         hx     68    bbb     H3   2015 0.12219000   1.008000   ; qtot 67.263559
 2016         hx     68    bbb     H4   2016 0.12219000   1.008000   ; qtot 67.385749
 2017         c3     68    bbb     C3   2017 -0.39007700  12.010000   ; qtot 66.995672
 2018         hx     68    bbb     H5   2018 0.14940300   1.008000   ; qtot 67.145075
 2019         hx     68    bbb     H6   2019 0.14940300   1.008000   ; qtot 67.294478
 2020         c3     68    bbb     C4   2020 0.18057300  12.010000   ; qtot 67.475051
 2021         hc     68    bbb     H7   2021 0.01788900   1.008000   ; qtot 67.492940
 2022         hc     68    bbb     H8   2022 0.01788900   1.008000   ; qtot 67.510829
 2023         c3     68    bbb     C5   2023 -0.11337700  12.010000   ; qtot 67.397452
 2024         hc     68    bbb     H9   2024 0.09515400   1.008000   ; qtot 67.492606
 2025         hc     68    bbb    H10   2025 0.09515400   1.008000   ; qtot 67.587760
 2026         c3     68    bbb     C6   2026 -0.11337700  12.010000   ; qtot 67.474383
 2027         hc     68    bbb    H11   2027 0.09515400   1.008000   ; qtot 67.569537
 2028         hc     68    bbb    H12   2028 0.09515400   1.008000   ; qtot 67.664691
 2029         c3     68    bbb     C7   2029 0.21842400  12.010000   ; qtot 67.883115
 2030         h1     68    bbb    H13   2030 0.04500300   1.008000   ; qtot 67.928118
 2031         h1     68    bbb    H14   2031 0.04500300   1.008000   ; qtot 67.973121
 2032         c3     68    bbb     C8   2032 -0.06455200  12.010000   ; qtot 67.908569
 2033         h1     68    bbb    H15   2033 0.13554100   1.008000   ; qtot 68.044110
 2034         h1     68    bbb    H16   2034 0.13554100   1.008000   ; qtot 68.179651
 2035         c3     68    bbb     C9   2035 -0.06455200  12.010000   ; qtot 68.115099
 2036         h1     68    bbb    H17   2036 0.13554100   1.008000   ; qtot 68.250640
 2037         h1     68    bbb    H18   2037 0.13554100   1.008000   ; qtot 68.386181
 2038         os     68    bbb     O1   2038 -0.62587700  16.000000   ; qtot 67.760304
 2039         hn     68    bbb    H19   2039 0.23982500   1.008000   ; qtot 68.000129
; residue   69 bbb rtp bbb q 1.0
 2040         n4     69    bbb     N1   2040 0.03726400  14.010000   ; qtot 68.037393
 2041         c3     69    bbb     C1   2041 -0.07020100  12.010000   ; qtot 67.967192
 2042         hx     69    bbb     H1   2042 0.12219000   1.008000   ; qtot 68.089382
 2043         hx     69    bbb     H2   2043 0.12219000   1.008000   ; qtot 68.211572
 2044         c3     69    bbb     C2   2044 -0.07020100  12.010000   ; qtot 68.141371
 2045         hx     69    bbb     H3   2045 0.12219000   1.008000   ; qtot 68.263561
 2046         hx     69    bbb     H4   2046 0.12219000   1.008000   ; qtot 68.385751
 2047         c3     69    bbb     C3   2047 -0.39007700  12.010000   ; qtot 67.995674
 2048         hx     69    bbb     H5   2048 0.14940300   1.008000   ; qtot 68.145077
 2049         hx     69    bbb     H6   2049 0.14940300   1.008000   ; qtot 68.294480
 2050         c3     69    bbb     C4   2050 0.18057300  12.010000   ; qtot 68.475053
 2051         hc     69    bbb     H7   2051 0.01788900   1.008000   ; qtot 68.492942
 2052         hc     69    bbb     H8   2052 0.01788900   1.008000   ; qtot 68.510831
 2053         c3     69    bbb     C5   2053 -0.11337700  12.010000   ; qtot 68.397454
 2054         hc     69    bbb     H9   2054 0.09515400   1.008000   ; qtot 68.492608
 2055         hc     69    bbb    H10   2055 0.09515400   1.008000   ; qtot 68.587762
 2056         c3     69    bbb     C6   2056 -0.11337700  12.010000   ; qtot 68.474385
 2057         hc     69    bbb    H11   2057 0.09515400   1.008000   ; qtot 68.569539
 2058         hc     69    bbb    H12   2058 0.09515400   1.008000   ; qtot 68.664693
 2059         c3     69    bbb     C7   2059 0.21842400  12.010000   ; qtot 68.883117
 2060         h1     69    bbb    H13   2060 0.04500300   1.008000   ; qtot 68.928120
 2061         h1     69    bbb    H14   2061 0.04500300   1.008000   ; qtot 68.973123
 2062         c3     69    bbb     C8   2062 -0.06455200  12.010000   ; qtot 68.908571
 2063         h1     69    bbb    H15   2063 0.13554100   1.008000   ; qtot 69.044112
 2064         h1     69    bbb    H16   2064 0.13554100   1.008000   ; qtot 69.179653
 2065         c3     69    bbb     C9   2065 -0.06455200  12.010000   ; qtot 69.115101
 2066         h1     69    bbb    H17   2066 0.13554100   1.008000   ; qtot 69.250642
 2067         h1     69    bbb    H18   2067 0.13554100   1.008000   ; qtot 69.386183
 2068         os     69    bbb     O1   2068 -0.62587700  16.000000   ; qtot 68.760306
 2069         hn     69    bbb    H19   2069 0.23982500   1.008000   ; qtot 69.000131
; residue   70 bbb rtp bbb q 1.0
 2070         n4     70    bbb     N1   2070 0.03726400  14.010000   ; qtot 69.037395
 2071         c3     70    bbb     C1   2071 -0.07020100  12.010000   ; qtot 68.967194
 2072         hx     70    bbb     H1   2072 0.12219000   1.008000   ; qtot 69.089384
 2073         hx     70    bbb     H2   2073 0.12219000   1.008000   ; qtot 69.211574
 2074         c3     70    bbb     C2   2074 -0.07020100  12.010000   ; qtot 69.141373
 2075         hx     70    bbb     H3   2075 0.12219000   1.008000   ; qtot 69.263563
 2076         hx     70    bbb     H4   2076 0.12219000   1.008000   ; qtot 69.385753
 2077         c3     70    bbb     C3   2077 -0.39007700  12.010000   ; qtot 68.995676
 2078         hx     70    bbb     H5   2078 0.14940300   1.008000   ; qtot 69.145079
 2079         hx     70    bbb     H6   2079 0.14940300   1.008000   ; qtot 69.294482
 2080         c3     70    bbb     C4   2080 0.18057300  12.010000   ; qtot 69.475055
 2081         hc     70    bbb     H7   2081 0.01788900   1.008000   ; qtot 69.492944
 2082         hc     70    bbb     H8   2082 0.01788900   1.008000   ; qtot 69.510833
 2083         c3     70    bbb     C5   2083 -0.11337700  12.010000   ; qtot 69.397456
 2084         hc     70    bbb     H9   2084 0.09515400   1.008000   ; qtot 69.492610
 2085         hc     70    bbb    H10   2085 0.09515400   1.008000   ; qtot 69.587764
 2086         c3     70    bbb     C6   2086 -0.11337700  12.010000   ; qtot 69.474387
 2087         hc     70    bbb    H11   2087 0.09515400   1.008000   ; qtot 69.569541
 2088         hc     70    bbb    H12   2088 0.09515400   1.008000   ; qtot 69.664695
 2089         c3     70    bbb     C7   2089 0.21842400  12.010000   ; qtot 69.883119
 2090         h1     70    bbb    H13   2090 0.04500300   1.008000   ; qtot 69.928122
 2091         h1     70    bbb    H14   2091 0.04500300   1.008000   ; qtot 69.973125
 2092         c3     70    bbb     C8   2092 -0.06455200  12.010000   ; qtot 69.908573
 2093         h1     70    bbb    H15   2093 0.13554100   1.008000   ; qtot 70.044114
 2094         h1     70    bbb    H16   2094 0.13554100   1.008000   ; qtot 70.179655
 2095         c3     70    bbb     C9   2095 -0.06455200  12.010000   ; qtot 70.115103
 2096         h1     70    bbb    H17   2096 0.13554100   1.008000   ; qtot 70.250644
 2097         h1     70    bbb    H18   2097 0.13554100   1.008000   ; qtot 70.386185
 2098         os     70    bbb     O1   2098 -0.62587700  16.000000   ; qtot 69.760308
 2099         hn     70    bbb    H19   2099 0.23982500   1.008000   ; qtot 70.000133
; residue   71 bbb rtp bbb q 1.0
 2100         n4     71    bbb     N1   2100 0.03726400  14.010000   ; qtot 70.037397
 2101         c3     71    bbb     C1   2101 -0.07020100  12.010000   ; qtot 69.967196
 2102         hx     71    bbb     H1   2102 0.12219000   1.008000   ; qtot 70.089386
 2103         hx     71    bbb     H2   2103 0.12219000   1.008000   ; qtot 70.211576
 2104         c3     71    bbb     C2   2104 -0.07020100  12.010000   ; qtot 70.141375
 2105         hx     71    bbb     H3   2105 0.12219000   1.008000   ; qtot 70.263565
 2106         hx     71    bbb     H4   2106 0.12219000   1.008000   ; qtot 70.385755
 2107         c3     71    bbb     C3   2107 -0.39007700  12.010000   ; qtot 69.995678
 2108         hx     71    bbb     H5   2108 0.14940300   1.008000   ; qtot 70.145081
 2109         hx     71    bbb     H6   2109 0.14940300   1.008000   ; qtot 70.294484
 2110         c3     71    bbb     C4   2110 0.18057300  12.010000   ; qtot 70.475057
 2111         hc     71    bbb     H7   2111 0.01788900   1.008000   ; qtot 70.492946
 2112         hc     71    bbb     H8   2112 0.01788900   1.008000   ; qtot 70.510835
 2113         c3     71    bbb     C5   2113 -0.11337700  12.010000   ; qtot 70.397458
 2114         hc     71    bbb     H9   2114 0.09515400   1.008000   ; qtot 70.492612
 2115         hc     71    bbb    H10   2115 0.09515400   1.008000   ; qtot 70.587766
 2116         c3     71    bbb     C6   2116 -0.11337700  12.010000   ; qtot 70.474389
 2117         hc     71    bbb    H11   2117 0.09515400   1.008000   ; qtot 70.569543
 2118         hc     71    bbb    H12   2118 0.09515400   1.008000   ; qtot 70.664697
 2119         c3     71    bbb     C7   2119 0.21842400  12.010000   ; qtot 70.883121
 2120         h1     71    bbb    H13   2120 0.04500300   1.008000   ; qtot 70.928124
 2121         h1     71    bbb    H14   2121 0.04500300   1.008000   ; qtot 70.973127
 2122         c3     71    bbb     C8   2122 -0.06455200  12.010000   ; qtot 70.908575
 2123         h1     71    bbb    H15   2123 0.13554100   1.008000   ; qtot 71.044116
 2124         h1     71    bbb    H16   2124 0.13554100   1.008000   ; qtot 71.179657
 2125         c3     71    bbb     C9   2125 -0.06455200  12.010000   ; qtot 71.115105
 2126         h1     71    bbb    H17   2126 0.13554100   1.008000   ; qtot 71.250646
 2127         h1     71    bbb    H18   2127 0.13554100   1.008000   ; qtot 71.386187
 2128         os     71    bbb     O1   2128 -0.62587700  16.000000   ; qtot 70.760310
 2129         hn     71    bbb    H19   2129 0.23982500   1.008000   ; qtot 71.000135
; residue   72 bbb rtp bbb q 1.0
 2130         n4     72    bbb     N1   2130 0.03726400  14.010000   ; qtot 71.037399
 2131         c3     72    bbb     C1   2131 -0.07020100  12.010000   ; qtot 70.967198
 2132         hx     72    bbb     H1   2132 0.12219000   1.008000   ; qtot 71.089388
 2133         hx     72    bbb     H2   2133 0.12219000   1.008000   ; qtot 71.211578
 2134         c3     72    bbb     C2   2134 -0.07020100  12.010000   ; qtot 71.141377
 2135         hx     72    bbb     H3   2135 0.12219000   1.008000   ; qtot 71.263567
 2136         hx     72    bbb     H4   2136 0.12219000   1.008000   ; qtot 71.385757
 2137         c3     72    bbb     C3   2137 -0.39007700  12.010000   ; qtot 70.995680
 2138         hx     72    bbb     H5   2138 0.14940300   1.008000   ; qtot 71.145083
 2139         hx     72    bbb     H6   2139 0.14940300   1.008000   ; qtot 71.294486
 2140         c3     72    bbb     C4   2140 0.18057300  12.010000   ; qtot 71.475059
 2141         hc     72    bbb     H7   2141 0.01788900   1.008000   ; qtot 71.492948
 2142         hc     72    bbb     H8   2142 0.01788900   1.008000   ; qtot 71.510837
 2143         c3     72    bbb     C5   2143 -0.11337700  12.010000   ; qtot 71.397460
 2144         hc     72    bbb     H9   2144 0.09515400   1.008000   ; qtot 71.492614
 2145         hc     72    bbb    H10   2145 0.09515400   1.008000   ; qtot 71.587768
 2146         c3     72    bbb     C6   2146 -0.11337700  12.010000   ; qtot 71.474391
 2147         hc     72    bbb    H11   2147 0.09515400   1.008000   ; qtot 71.569545
 2148         hc     72    bbb    H12   2148 0.09515400   1.008000   ; qtot 71.664699
 2149         c3     72    bbb     C7   2149 0.21842400  12.010000   ; qtot 71.883123
 2150         h1     72    bbb    H13   2150 0.04500300   1.008000   ; qtot 71.928126
 2151         h1     72    bbb    H14   2151 0.04500300   1.008000   ; qtot 71.973129
 2152         c3     72    bbb     C8   2152 -0.06455200  12.010000   ; qtot 71.908577
 2153         h1     72    bbb    H15   2153 0.13554100   1.008000   ; qtot 72.044118
 2154         h1     72    bbb    H16   2154 0.13554100   1.008000   ; qtot 72.179659
 2155         c3     72    bbb     C9   2155 -0.06455200  12.010000   ; qtot 72.115107
 2156         h1     72    bbb    H17   2156 0.13554100   1.008000   ; qtot 72.250648
 2157         h1     72    bbb    H18   2157 0.13554100   1.008000   ; qtot 72.386189
 2158         os     72    bbb     O1   2158 -0.62587700  16.000000   ; qtot 71.760312
 2159         hn     72    bbb    H19   2159 0.23982500   1.008000   ; qtot 72.000137
; residue   73 bbb rtp bbb q 1.0
 2160         n4     73    bbb     N1   2160 0.03726400  14.010000   ; qtot 72.037401
 2161         c3     73    bbb     C1   2161 -0.07020100  12.010000   ; qtot 71.967200
 2162         hx     73    bbb     H1   2162 0.12219000   1.008000   ; qtot 72.089390
 2163         hx     73    bbb     H2   2163 0.12219000   1.008000   ; qtot 72.211580
 2164         c3     73    bbb     C2   2164 -0.07020100  12.010000   ; qtot 72.141379
 2165         hx     73    bbb     H3   2165 0.12219000   1.008000   ; qtot 72.263569
 2166         hx     73    bbb     H4   2166 0.12219000   1.008000   ; qtot 72.385759
 2167         c3     73    bbb     C3   2167 -0.39007700  12.010000   ; qtot 71.995682
 2168         hx     73    bbb     H5   2168 0.14940300   1.008000   ; qtot 72.145085
 2169         hx     73    bbb     H6   2169 0.14940300   1.008000   ; qtot 72.294488
 2170         c3     73    bbb     C4   2170 0.18057300  12.010000   ; qtot 72.475061
 2171         hc     73    bbb     H7   2171 0.01788900   1.008000   ; qtot 72.492950
 2172         hc     73    bbb     H8   2172 0.01788900   1.008000   ; qtot 72.510839
 2173         c3     73    bbb     C5   2173 -0.11337700  12.010000   ; qtot 72.397462
 2174         hc     73    bbb     H9   2174 0.09515400   1.008000   ; qtot 72.492616
 2175         hc     73    bbb    H10   2175 0.09515400   1.008000   ; qtot 72.587770
 2176         c3     73    bbb     C6   2176 -0.11337700  12.010000   ; qtot 72.474393
 2177         hc     73    bbb    H11   2177 0.09515400   1.008000   ; qtot 72.569547
 2178         hc     73    bbb    H12   2178 0.09515400   1.008000   ; qtot 72.664701
 2179         c3     73    bbb     C7   2179 0.21842400  12.010000   ; qtot 72.883125
 2180         h1     73    bbb    H13   2180 0.04500300   1.008000   ; qtot 72.928128
 2181         h1     73    bbb    H14   2181 0.04500300   1.008000   ; qtot 72.973131
 2182         c3     73    bbb     C8   2182 -0.06455200  12.010000   ; qtot 72.908579
 2183         h1     73    bbb    H15   2183 0.13554100   1.008000   ; qtot 73.044120
 2184         h1     73    bbb    H16   2184 0.13554100   1.008000   ; qtot 73.179661
 2185         c3     73    bbb     C9   2185 -0.06455200  12.010000   ; qtot 73.115109
 2186         h1     73    bbb    H17   2186 0.13554100   1.008000   ; qtot 73.250650
 2187         h1     73    bbb    H18   2187 0.13554100   1.008000   ; qtot 73.386191
 2188         os     73    bbb     O1   2188 -0.62587700  16.000000   ; qtot 72.760314
 2189         hn     73    bbb    H19   2189 0.23982500   1.008000   ; qtot 73.000139
; residue   74 bbb rtp bbb q 1.0
 2190         n4     74    bbb     N1   2190 0.03726400  14.010000   ; qtot 73.037403
 2191         c3     74    bbb     C1   2191 -0.07020100  12.010000   ; qtot 72.967202
 2192         hx     74    bbb     H1   2192 0.12219000   1.008000   ; qtot 73.089392
 2193         hx     74    bbb     H2   2193 0.12219000   1.008000   ; qtot 73.211582
 2194         c3     74    bbb     C2   2194 -0.07020100  12.010000   ; qtot 73.141381
 2195         hx     74    bbb     H3   2195 0.12219000   1.008000   ; qtot 73.263571
 2196         hx     74    bbb     H4   2196 0.12219000   1.008000   ; qtot 73.385761
 2197         c3     74    bbb     C3   2197 -0.39007700  12.010000   ; qtot 72.995684
 2198         hx     74    bbb     H5   2198 0.14940300   1.008000   ; qtot 73.145087
 2199         hx     74    bbb     H6   2199 0.14940300   1.008000   ; qtot 73.294490
 2200         c3     74    bbb     C4   2200 0.18057300  12.010000   ; qtot 73.475063
 2201         hc     74    bbb     H7   2201 0.01788900   1.008000   ; qtot 73.492952
 2202         hc     74    bbb     H8   2202 0.01788900   1.008000   ; qtot 73.510841
 2203         c3     74    bbb     C5   2203 -0.11337700  12.010000   ; qtot 73.397464
 2204         hc     74    bbb     H9   2204 0.09515400   1.008000   ; qtot 73.492618
 2205         hc     74    bbb    H10   2205 0.09515400   1.008000   ; qtot 73.587772
 2206         c3     74    bbb     C6   2206 -0.11337700  12.010000   ; qtot 73.474395
 2207         hc     74    bbb    H11   2207 0.09515400   1.008000   ; qtot 73.569549
 2208         hc     74    bbb    H12   2208 0.09515400   1.008000   ; qtot 73.664703
 2209         c3     74    bbb     C7   2209 0.21842400  12.010000   ; qtot 73.883127
 2210         h1     74    bbb    H13   2210 0.04500300   1.008000   ; qtot 73.928130
 2211         h1     74    bbb    H14   2211 0.04500300   1.008000   ; qtot 73.973133
 2212         c3     74    bbb     C8   2212 -0.06455200  12.010000   ; qtot 73.908581
 2213         h1     74    bbb    H15   2213 0.13554100   1.008000   ; qtot 74.044122
 2214         h1     74    bbb    H16   2214 0.13554100   1.008000   ; qtot 74.179663
 2215         c3     74    bbb     C9   2215 -0.06455200  12.010000   ; qtot 74.115111
 2216         h1     74    bbb    H17   2216 0.13554100   1.008000   ; qtot 74.250652
 2217         h1     74    bbb    H18   2217 0.13554100   1.008000   ; qtot 74.386193
 2218         os     74    bbb     O1   2218 -0.62587700  16.000000   ; qtot 73.760316
 2219         hn     74    bbb    H19   2219 0.23982500   1.008000   ; qtot 74.000141
; residue   75 bbb rtp bbb q 1.0
 2220         n4     75    bbb     N1   2220 0.03726400  14.010000   ; qtot 74.037405
 2221         c3     75    bbb     C1   2221 -0.07020100  12.010000   ; qtot 73.967204
 2222         hx     75    bbb     H1   2222 0.12219000   1.008000   ; qtot 74.089394
 2223         hx     75    bbb     H2   2223 0.12219000   1.008000   ; qtot 74.211584
 2224         c3     75    bbb     C2   2224 -0.07020100  12.010000   ; qtot 74.141383
 2225         hx     75    bbb     H3   2225 0.12219000   1.008000   ; qtot 74.263573
 2226         hx     75    bbb     H4   2226 0.12219000   1.008000   ; qtot 74.385763
 2227         c3     75    bbb     C3   2227 -0.39007700  12.010000   ; qtot 73.995686
 2228         hx     75    bbb     H5   2228 0.14940300   1.008000   ; qtot 74.145089
 2229         hx     75    bbb     H6   2229 0.14940300   1.008000   ; qtot 74.294492
 2230         c3     75    bbb     C4   2230 0.18057300  12.010000   ; qtot 74.475065
 2231         hc     75    bbb     H7   2231 0.01788900   1.008000   ; qtot 74.492954
 2232         hc     75    bbb     H8   2232 0.01788900   1.008000   ; qtot 74.510843
 2233         c3     75    bbb     C5   2233 -0.11337700  12.010000   ; qtot 74.397466
 2234         hc     75    bbb     H9   2234 0.09515400   1.008000   ; qtot 74.492620
 2235         hc     75    bbb    H10   2235 0.09515400   1.008000   ; qtot 74.587774
 2236         c3     75    bbb     C6   2236 -0.11337700  12.010000   ; qtot 74.474397
 2237         hc     75    bbb    H11   2237 0.09515400   1.008000   ; qtot 74.569551
 2238         hc     75    bbb    H12   2238 0.09515400   1.008000   ; qtot 74.664705
 2239         c3     75    bbb     C7   2239 0.21842400  12.010000   ; qtot 74.883129
 2240         h1     75    bbb    H13   2240 0.04500300   1.008000   ; qtot 74.928132
 2241         h1     75    bbb    H14   2241 0.04500300   1.008000   ; qtot 74.973135
 2242         c3     75    bbb     C8   2242 -0.06455200  12.010000   ; qtot 74.908583
 2243         h1     75    bbb    H15   2243 0.13554100   1.008000   ; qtot 75.044124
 2244         h1     75    bbb    H16   2244 0.13554100   1.008000   ; qtot 75.179665
 2245         c3     75    bbb     C9   2245 -0.06455200  12.010000   ; qtot 75.115113
 2246         h1     75    bbb    H17   2246 0.13554100   1.008000   ; qtot 75.250654
 2247         h1     75    bbb    H18   2247 0.13554100   1.008000   ; qtot 75.386195
 2248         os     75    bbb     O1   2248 -0.62587700  16.000000   ; qtot 74.760318
 2249         hn     75    bbb    H19   2249 0.23982500   1.008000   ; qtot 75.000143
; residue   76 bbb rtp bbb q 1.0
 2250         n4     76    bbb     N1   2250 0.03726400  14.010000   ; qtot 75.037407
 2251         c3     76    bbb     C1   2251 -0.07020100  12.010000   ; qtot 74.967206
 2252         hx     76    bbb     H1   2252 0.12219000   1.008000   ; qtot 75.089396
 2253         hx     76    bbb     H2   2253 0.12219000   1.008000   ; qtot 75.211586
 2254         c3     76    bbb     C2   2254 -0.07020100  12.010000   ; qtot 75.141385
 2255         hx     76    bbb     H3   2255 0.12219000   1.008000   ; qtot 75.263575
 2256         hx     76    bbb     H4   2256 0.12219000   1.008000   ; qtot 75.385765
 2257         c3     76    bbb     C3   2257 -0.39007700  12.010000   ; qtot 74.995688
 2258         hx     76    bbb     H5   2258 0.14940300   1.008000   ; qtot 75.145091
 2259         hx     76    bbb     H6   2259 0.14940300   1.008000   ; qtot 75.294494
 2260         c3     76    bbb     C4   2260 0.18057300  12.010000   ; qtot 75.475067
 2261         hc     76    bbb     H7   2261 0.01788900   1.008000   ; qtot 75.492956
 2262         hc     76    bbb     H8   2262 0.01788900   1.008000   ; qtot 75.510845
 2263         c3     76    bbb     C5   2263 -0.11337700  12.010000   ; qtot 75.397468
 2264         hc     76    bbb     H9   2264 0.09515400   1.008000   ; qtot 75.492622
 2265         hc     76    bbb    H10   2265 0.09515400   1.008000   ; qtot 75.587776
 2266         c3     76    bbb     C6   2266 -0.11337700  12.010000   ; qtot 75.474399
 2267         hc     76    bbb    H11   2267 0.09515400   1.008000   ; qtot 75.569553
 2268         hc     76    bbb    H12   2268 0.09515400   1.008000   ; qtot 75.664707
 2269         c3     76    bbb     C7   2269 0.21842400  12.010000   ; qtot 75.883131
 2270         h1     76    bbb    H13   2270 0.04500300   1.008000   ; qtot 75.928134
 2271         h1     76    bbb    H14   2271 0.04500300   1.008000   ; qtot 75.973137
 2272         c3     76    bbb     C8   2272 -0.06455200  12.010000   ; qtot 75.908585
 2273         h1     76    bbb    H15   2273 0.13554100   1.008000   ; qtot 76.044126
 2274         h1     76    bbb    H16   2274 0.13554100   1.008000   ; qtot 76.179667
 2275         c3     76    bbb     C9   2275 -0.06455200  12.010000   ; qtot 76.115115
 2276         h1     76    bbb    H17   2276 0.13554100   1.008000   ; qtot 76.250656
 2277         h1     76    bbb    H18   2277 0.13554100   1.008000   ; qtot 76.386197
 2278         os     76    bbb     O1   2278 -0.62587700  16.000000   ; qtot 75.760320
 2279         hn     76    bbb    H19   2279 0.23982500   1.008000   ; qtot 76.000145
; residue   77 bbb rtp bbb q 1.0
 2280         n4     77    bbb     N1   2280 0.03726400  14.010000   ; qtot 76.037409
 2281         c3     77    bbb     C1   2281 -0.07020100  12.010000   ; qtot 75.967208
 2282         hx     77    bbb     H1   2282 0.12219000   1.008000   ; qtot 76.089398
 2283         hx     77    bbb     H2   2283 0.12219000   1.008000   ; qtot 76.211588
 2284         c3     77    bbb     C2   2284 -0.07020100  12.010000   ; qtot 76.141387
 2285         hx     77    bbb     H3   2285 0.12219000   1.008000   ; qtot 76.263577
 2286         hx     77    bbb     H4   2286 0.12219000   1.008000   ; qtot 76.385767
 2287         c3     77    bbb     C3   2287 -0.39007700  12.010000   ; qtot 75.995690
 2288         hx     77    bbb     H5   2288 0.14940300   1.008000   ; qtot 76.145093
 2289         hx     77    bbb     H6   2289 0.14940300   1.008000   ; qtot 76.294496
 2290         c3     77    bbb     C4   2290 0.18057300  12.010000   ; qtot 76.475069
 2291         hc     77    bbb     H7   2291 0.01788900   1.008000   ; qtot 76.492958
 2292         hc     77    bbb     H8   2292 0.01788900   1.008000   ; qtot 76.510847
 2293         c3     77    bbb     C5   2293 -0.11337700  12.010000   ; qtot 76.397470
 2294         hc     77    bbb     H9   2294 0.09515400   1.008000   ; qtot 76.492624
 2295         hc     77    bbb    H10   2295 0.09515400   1.008000   ; qtot 76.587778
 2296         c3     77    bbb     C6   2296 -0.11337700  12.010000   ; qtot 76.474401
 2297         hc     77    bbb    H11   2297 0.09515400   1.008000   ; qtot 76.569555
 2298         hc     77    bbb    H12   2298 0.09515400   1.008000   ; qtot 76.664709
 2299         c3     77    bbb     C7   2299 0.21842400  12.010000   ; qtot 76.883133
 2300         h1     77    bbb    H13   2300 0.04500300   1.008000   ; qtot 76.928136
 2301         h1     77    bbb    H14   2301 0.04500300   1.008000   ; qtot 76.973139
 2302         c3     77    bbb     C8   2302 -0.06455200  12.010000   ; qtot 76.908587
 2303         h1     77    bbb    H15   2303 0.13554100   1.008000   ; qtot 77.044128
 2304         h1     77    bbb    H16   2304 0.13554100   1.008000   ; qtot 77.179669
 2305         c3     77    bbb     C9   2305 -0.06455200  12.010000   ; qtot 77.115117
 2306         h1     77    bbb    H17   2306 0.13554100   1.008000   ; qtot 77.250658
 2307         h1     77    bbb    H18   2307 0.13554100   1.008000   ; qtot 77.386199
 2308         os     77    bbb     O1   2308 -0.62587700  16.000000   ; qtot 76.760322
 2309         hn     77    bbb    H19   2309 0.23982500   1.008000   ; qtot 77.000147
; residue   78 bbb rtp bbb q 1.0
 2310         n4     78    bbb     N1   2310 0.03726400  14.010000   ; qtot 77.037411
 2311         c3     78    bbb     C1   2311 -0.07020100  12.010000   ; qtot 76.967210
 2312         hx     78    bbb     H1   2312 0.12219000   1.008000   ; qtot 77.089400
 2313         hx     78    bbb     H2   2313 0.12219000   1.008000   ; qtot 77.211590
 2314         c3     78    bbb     C2   2314 -0.07020100  12.010000   ; qtot 77.141389
 2315         hx     78    bbb     H3   2315 0.12219000   1.008000   ; qtot 77.263579
 2316         hx     78    bbb     H4   2316 0.12219000   1.008000   ; qtot 77.385769
 2317         c3     78    bbb     C3   2317 -0.39007700  12.010000   ; qtot 76.995692
 2318         hx     78    bbb     H5   2318 0.14940300   1.008000   ; qtot 77.145095
 2319         hx     78    bbb     H6   2319 0.14940300   1.008000   ; qtot 77.294498
 2320         c3     78    bbb     C4   2320 0.18057300  12.010000   ; qtot 77.475071
 2321         hc     78    bbb     H7   2321 0.01788900   1.008000   ; qtot 77.492960
 2322         hc     78    bbb     H8   2322 0.01788900   1.008000   ; qtot 77.510849
 2323         c3     78    bbb     C5   2323 -0.11337700  12.010000   ; qtot 77.397472
 2324         hc     78    bbb     H9   2324 0.09515400   1.008000   ; qtot 77.492626
 2325         hc     78    bbb    H10   2325 0.09515400   1.008000   ; qtot 77.587780
 2326         c3     78    bbb     C6   2326 -0.11337700  12.010000   ; qtot 77.474403
 2327         hc     78    bbb    H11   2327 0.09515400   1.008000   ; qtot 77.569557
 2328         hc     78    bbb    H12   2328 0.09515400   1.008000   ; qtot 77.664711
 2329         c3     78    bbb     C7   2329 0.21842400  12.010000   ; qtot 77.883135
 2330         h1     78    bbb    H13   2330 0.04500300   1.008000   ; qtot 77.928138
 2331         h1     78    bbb    H14   2331 0.04500300   1.008000   ; qtot 77.973141
 2332         c3     78    bbb     C8   2332 -0.06455200  12.010000   ; qtot 77.908589
 2333         h1     78    bbb    H15   2333 0.13554100   1.008000   ; qtot 78.044130
 2334         h1     78    bbb    H16   2334 0.13554100   1.008000   ; qtot 78.179671
 2335         c3     78    bbb     C9   2335 -0.06455200  12.010000   ; qtot 78.115119
 2336         h1     78    bbb    H17   2336 0.13554100   1.008000   ; qtot 78.250660
 2337         h1     78    bbb    H18   2337 0.13554100   1.008000   ; qtot 78.386201
 2338         os     78    bbb     O1   2338 -0.62587700  16.000000   ; qtot 77.760324
 2339         hn     78    bbb    H19   2339 0.23982500   1.008000   ; qtot 78.000149
; residue   79 bbb rtp bbb q 1.0
 2340         n4     79    bbb     N1   2340 0.03726400  14.010000   ; qtot 78.037413
 2341         c3     79    bbb     C1   2341 -0.07020100  12.010000   ; qtot 77.967212
 2342         hx     79    bbb     H1   2342 0.12219000   1.008000   ; qtot 78.089402
 2343         hx     79    bbb     H2   2343 0.12219000   1.008000   ; qtot 78.211592
 2344         c3     79    bbb     C2   2344 -0.07020100  12.010000   ; qtot 78.141391
 2345         hx     79    bbb     H3   2345 0.12219000   1.008000   ; qtot 78.263581
 2346         hx     79    bbb     H4   2346 0.12219000   1.008000   ; qtot 78.385771
 2347         c3     79    bbb     C3   2347 -0.39007700  12.010000   ; qtot 77.995694
 2348         hx     79    bbb     H5   2348 0.14940300   1.008000   ; qtot 78.145097
 2349         hx     79    bbb     H6   2349 0.14940300   1.008000   ; qtot 78.294500
 2350         c3     79    bbb     C4   2350 0.18057300  12.010000   ; qtot 78.475073
 2351         hc     79    bbb     H7   2351 0.01788900   1.008000   ; qtot 78.492962
 2352         hc     79    bbb     H8   2352 0.01788900   1.008000   ; qtot 78.510851
 2353         c3     79    bbb     C5   2353 -0.11337700  12.010000   ; qtot 78.397474
 2354         hc     79    bbb     H9   2354 0.09515400   1.008000   ; qtot 78.492628
 2355         hc     79    bbb    H10   2355 0.09515400   1.008000   ; qtot 78.587782
 2356         c3     79    bbb     C6   2356 -0.11337700  12.010000   ; qtot 78.474405
 2357         hc     79    bbb    H11   2357 0.09515400   1.008000   ; qtot 78.569559
 2358         hc     79    bbb    H12   2358 0.09515400   1.008000   ; qtot 78.664713
 2359         c3     79    bbb     C7   2359 0.21842400  12.010000   ; qtot 78.883137
 2360         h1     79    bbb    H13   2360 0.04500300   1.008000   ; qtot 78.928140
 2361         h1     79    bbb    H14   2361 0.04500300   1.008000   ; qtot 78.973143
 2362         c3     79    bbb     C8   2362 -0.06455200  12.010000   ; qtot 78.908591
 2363         h1     79    bbb    H15   2363 0.13554100   1.008000   ; qtot 79.044132
 2364         h1     79    bbb    H16   2364 0.13554100   1.008000   ; qtot 79.179673
 2365         c3     79    bbb     C9   2365 -0.06455200  12.010000   ; qtot 79.115121
 2366         h1     79    bbb    H17   2366 0.13554100   1.008000   ; qtot 79.250662
 2367         h1     79    bbb    H18   2367 0.13554100   1.008000   ; qtot 79.386203
 2368         os     79    bbb     O1   2368 -0.62587700  16.000000   ; qtot 78.760326
 2369         hn     79    bbb    H19   2369 0.23982500   1.008000   ; qtot 79.000151
; residue   80 bbb rtp bbb q 1.0
 2370         n4     80    bbb     N1   2370 0.03726400  14.010000   ; qtot 79.037415
 2371         c3     80    bbb     C1   2371 -0.07020100  12.010000   ; qtot 78.967214
 2372         hx     80    bbb     H1   2372 0.12219000   1.008000   ; qtot 79.089404
 2373         hx     80    bbb     H2   2373 0.12219000   1.008000   ; qtot 79.211594
 2374         c3     80    bbb     C2   2374 -0.07020100  12.010000   ; qtot 79.141393
 2375         hx     80    bbb     H3   2375 0.12219000   1.008000   ; qtot 79.263583
 2376         hx     80    bbb     H4   2376 0.12219000   1.008000   ; qtot 79.385773
 2377         c3     80    bbb     C3   2377 -0.39007700  12.010000   ; qtot 78.995696
 2378         hx     80    bbb     H5   2378 0.14940300   1.008000   ; qtot 79.145099
 2379         hx     80    bbb     H6   2379 0.14940300   1.008000   ; qtot 79.294502
 2380         c3     80    bbb     C4   2380 0.18057300  12.010000   ; qtot 79.475075
 2381         hc     80    bbb     H7   2381 0.01788900   1.008000   ; qtot 79.492964
 2382         hc     80    bbb     H8   2382 0.01788900   1.008000   ; qtot 79.510853
 2383         c3     80    bbb     C5   2383 -0.11337700  12.010000   ; qtot 79.397476
 2384         hc     80    bbb     H9   2384 0.09515400   1.008000   ; qtot 79.492630
 2385         hc     80    bbb    H10   2385 0.09515400   1.008000   ; qtot 79.587784
 2386         c3     80    bbb     C6   2386 -0.11337700  12.010000   ; qtot 79.474407
 2387         hc     80    bbb    H11   2387 0.09515400   1.008000   ; qtot 79.569561
 2388         hc     80    bbb    H12   2388 0.09515400   1.008000   ; qtot 79.664715
 2389         c3     80    bbb     C7   2389 0.21842400  12.010000   ; qtot 79.883139
 2390         h1     80    bbb    H13   2390 0.04500300   1.008000   ; qtot 79.928142
 2391         h1     80    bbb    H14   2391 0.04500300   1.008000   ; qtot 79.973145
 2392         c3     80    bbb     C8   2392 -0.06455200  12.010000   ; qtot 79.908593
 2393         h1     80    bbb    H15   2393 0.13554100   1.008000   ; qtot 80.044134
 2394         h1     80    bbb    H16   2394 0.13554100   1.008000   ; qtot 80.179675
 2395         c3     80    bbb     C9   2395 -0.06455200  12.010000   ; qtot 80.115123
 2396         h1     80    bbb    H17   2396 0.13554100   1.008000   ; qtot 80.250664
 2397         h1     80    bbb    H18   2397 0.13554100   1.008000   ; qtot 80.386205
 2398         os     80    bbb     O1   2398 -0.62587700  16.000000   ; qtot 79.760328
 2399         hn     80    bbb    H19   2399 0.23982500   1.008000   ; qtot 80.000153
; residue   81 bbb rtp bbb q 1.0
 2400         n4     81    bbb     N1   2400 0.03726400  14.010000   ; qtot 80.037417
 2401         c3     81    bbb     C1   2401 -0.07020100  12.010000   ; qtot 79.967216
 2402         hx     81    bbb     H1   2402 0.12219000   1.008000   ; qtot 80.089406
 2403         hx     81    bbb     H2   2403 0.12219000   1.008000   ; qtot 80.211596
 2404         c3     81    bbb     C2   2404 -0.07020100  12.010000   ; qtot 80.141395
 2405         hx     81    bbb     H3   2405 0.12219000   1.008000   ; qtot 80.263585
 2406         hx     81    bbb     H4   2406 0.12219000   1.008000   ; qtot 80.385775
 2407         c3     81    bbb     C3   2407 -0.39007700  12.010000   ; qtot 79.995698
 2408         hx     81    bbb     H5   2408 0.14940300   1.008000   ; qtot 80.145101
 2409         hx     81    bbb     H6   2409 0.14940300   1.008000   ; qtot 80.294504
 2410         c3     81    bbb     C4   2410 0.18057300  12.010000   ; qtot 80.475077
 2411         hc     81    bbb     H7   2411 0.01788900   1.008000   ; qtot 80.492966
 2412         hc     81    bbb     H8   2412 0.01788900   1.008000   ; qtot 80.510855
 2413         c3     81    bbb     C5   2413 -0.11337700  12.010000   ; qtot 80.397478
 2414         hc     81    bbb     H9   2414 0.09515400   1.008000   ; qtot 80.492632
 2415         hc     81    bbb    H10   2415 0.09515400   1.008000   ; qtot 80.587786
 2416         c3     81    bbb     C6   2416 -0.11337700  12.010000   ; qtot 80.474409
 2417         hc     81    bbb    H11   2417 0.09515400   1.008000   ; qtot 80.569563
 2418         hc     81    bbb    H12   2418 0.09515400   1.008000   ; qtot 80.664717
 2419         c3     81    bbb     C7   2419 0.21842400  12.010000   ; qtot 80.883141
 2420         h1     81    bbb    H13   2420 0.04500300   1.008000   ; qtot 80.928144
 2421         h1     81    bbb    H14   2421 0.04500300   1.008000   ; qtot 80.973147
 2422         c3     81    bbb     C8   2422 -0.06455200  12.010000   ; qtot 80.908595
 2423         h1     81    bbb    H15   2423 0.13554100   1.008000   ; qtot 81.044136
 2424         h1     81    bbb    H16   2424 0.13554100   1.008000   ; qtot 81.179677
 2425         c3     81    bbb     C9   2425 -0.06455200  12.010000   ; qtot 81.115125
 2426         h1     81    bbb    H17   2426 0.13554100   1.008000   ; qtot 81.250666
 2427         h1     81    bbb    H18   2427 0.13554100   1.008000   ; qtot 81.386207
 2428         os     81    bbb     O1   2428 -0.62587700  16.000000   ; qtot 80.760330
 2429         hn     81    bbb    H19   2429 0.23982500   1.008000   ; qtot 81.000155
; residue   82 bbb rtp bbb q 1.0
 2430         n4     82    bbb     N1   2430 0.03726400  14.010000   ; qtot 81.037419
 2431         c3     82    bbb     C1   2431 -0.07020100  12.010000   ; qtot 80.967218
 2432         hx     82    bbb     H1   2432 0.12219000   1.008000   ; qtot 81.089408
 2433         hx     82    bbb     H2   2433 0.12219000   1.008000   ; qtot 81.211598
 2434         c3     82    bbb     C2   2434 -0.07020100  12.010000   ; qtot 81.141397
 2435         hx     82    bbb     H3   2435 0.12219000   1.008000   ; qtot 81.263587
 2436         hx     82    bbb     H4   2436 0.12219000   1.008000   ; qtot 81.385777
 2437         c3     82    bbb     C3   2437 -0.39007700  12.010000   ; qtot 80.995700
 2438         hx     82    bbb     H5   2438 0.14940300   1.008000   ; qtot 81.145103
 2439         hx     82    bbb     H6   2439 0.14940300   1.008000   ; qtot 81.294506
 2440         c3     82    bbb     C4   2440 0.18057300  12.010000   ; qtot 81.475079
 2441         hc     82    bbb     H7   2441 0.01788900   1.008000   ; qtot 81.492968
 2442         hc     82    bbb     H8   2442 0.01788900   1.008000   ; qtot 81.510857
 2443         c3     82    bbb     C5   2443 -0.11337700  12.010000   ; qtot 81.397480
 2444         hc     82    bbb     H9   2444 0.09515400   1.008000   ; qtot 81.492634
 2445         hc     82    bbb    H10   2445 0.09515400   1.008000   ; qtot 81.587788
 2446         c3     82    bbb     C6   2446 -0.11337700  12.010000   ; qtot 81.474411
 2447         hc     82    bbb    H11   2447 0.09515400   1.008000   ; qtot 81.569565
 2448         hc     82    bbb    H12   2448 0.09515400   1.008000   ; qtot 81.664719
 2449         c3     82    bbb     C7   2449 0.21842400  12.010000   ; qtot 81.883143
 2450         h1     82    bbb    H13   2450 0.04500300   1.008000   ; qtot 81.928146
 2451         h1     82    bbb    H14   2451 0.04500300   1.008000   ; qtot 81.973149
 2452         c3     82    bbb     C8   2452 -0.06455200  12.010000   ; qtot 81.908597
 2453         h1     82    bbb    H15   2453 0.13554100   1.008000   ; qtot 82.044138
 2454         h1     82    bbb    H16   2454 0.13554100   1.008000   ; qtot 82.179679
 2455         c3     82    bbb     C9   2455 -0.06455200  12.010000   ; qtot 82.115127
 2456         h1     82    bbb    H17   2456 0.13554100   1.008000   ; qtot 82.250668
 2457         h1     82    bbb    H18   2457 0.13554100   1.008000   ; qtot 82.386209
 2458         os     82    bbb     O1   2458 -0.62587700  16.000000   ; qtot 81.760332
 2459         hn     82    bbb    H19   2459 0.23982500   1.008000   ; qtot 82.000157
; residue   83 bbb rtp bbb q 1.0
 2460         n4     83    bbb     N1   2460 0.03726400  14.010000   ; qtot 82.037421
 2461         c3     83    bbb     C1   2461 -0.07020100  12.010000   ; qtot 81.967220
 2462         hx     83    bbb     H1   2462 0.12219000   1.008000   ; qtot 82.089410
 2463         hx     83    bbb     H2   2463 0.12219000   1.008000   ; qtot 82.211600
 2464         c3     83    bbb     C2   2464 -0.07020100  12.010000   ; qtot 82.141399
 2465         hx     83    bbb     H3   2465 0.12219000   1.008000   ; qtot 82.263589
 2466         hx     83    bbb     H4   2466 0.12219000   1.008000   ; qtot 82.385779
 2467         c3     83    bbb     C3   2467 -0.39007700  12.010000   ; qtot 81.995702
 2468         hx     83    bbb     H5   2468 0.14940300   1.008000   ; qtot 82.145105
 2469         hx     83    bbb     H6   2469 0.14940300   1.008000   ; qtot 82.294508
 2470         c3     83    bbb     C4   2470 0.18057300  12.010000   ; qtot 82.475081
 2471         hc     83    bbb     H7   2471 0.01788900   1.008000   ; qtot 82.492970
 2472         hc     83    bbb     H8   2472 0.01788900   1.008000   ; qtot 82.510859
 2473         c3     83    bbb     C5   2473 -0.11337700  12.010000   ; qtot 82.397482
 2474         hc     83    bbb     H9   2474 0.09515400   1.008000   ; qtot 82.492636
 2475         hc     83    bbb    H10   2475 0.09515400   1.008000   ; qtot 82.587790
 2476         c3     83    bbb     C6   2476 -0.11337700  12.010000   ; qtot 82.474413
 2477         hc     83    bbb    H11   2477 0.09515400   1.008000   ; qtot 82.569567
 2478         hc     83    bbb    H12   2478 0.09515400   1.008000   ; qtot 82.664721
 2479         c3     83    bbb     C7   2479 0.21842400  12.010000   ; qtot 82.883145
 2480         h1     83    bbb    H13   2480 0.04500300   1.008000   ; qtot 82.928148
 2481         h1     83    bbb    H14   2481 0.04500300   1.008000   ; qtot 82.973151
 2482         c3     83    bbb     C8   2482 -0.06455200  12.010000   ; qtot 82.908599
 2483         h1     83    bbb    H15   2483 0.13554100   1.008000   ; qtot 83.044140
 2484         h1     83    bbb    H16   2484 0.13554100   1.008000   ; qtot 83.179681
 2485         c3     83    bbb     C9   2485 -0.06455200  12.010000   ; qtot 83.115129
 2486         h1     83    bbb    H17   2486 0.13554100   1.008000   ; qtot 83.250670
 2487         h1     83    bbb    H18   2487 0.13554100   1.008000   ; qtot 83.386211
 2488         os     83    bbb     O1   2488 -0.62587700  16.000000   ; qtot 82.760334
 2489         hn     83    bbb    H19   2489 0.23982500   1.008000   ; qtot 83.000159
; residue   84 bbb rtp bbb q 1.0
 2490         n4     84    bbb     N1   2490 0.03726400  14.010000   ; qtot 83.037423
 2491         c3     84    bbb     C1   2491 -0.07020100  12.010000   ; qtot 82.967222
 2492         hx     84    bbb     H1   2492 0.12219000   1.008000   ; qtot 83.089412
 2493         hx     84    bbb     H2   2493 0.12219000   1.008000   ; qtot 83.211602
 2494         c3     84    bbb     C2   2494 -0.07020100  12.010000   ; qtot 83.141401
 2495         hx     84    bbb     H3   2495 0.12219000   1.008000   ; qtot 83.263591
 2496         hx     84    bbb     H4   2496 0.12219000   1.008000   ; qtot 83.385781
 2497         c3     84    bbb     C3   2497 -0.39007700  12.010000   ; qtot 82.995704
 2498         hx     84    bbb     H5   2498 0.14940300   1.008000   ; qtot 83.145107
 2499         hx     84    bbb     H6   2499 0.14940300   1.008000   ; qtot 83.294510
 2500         c3     84    bbb     C4   2500 0.18057300  12.010000   ; qtot 83.475083
 2501         hc     84    bbb     H7   2501 0.01788900   1.008000   ; qtot 83.492972
 2502         hc     84    bbb     H8   2502 0.01788900   1.008000   ; qtot 83.510861
 2503         c3     84    bbb     C5   2503 -0.11337700  12.010000   ; qtot 83.397484
 2504         hc     84    bbb     H9   2504 0.09515400   1.008000   ; qtot 83.492638
 2505         hc     84    bbb    H10   2505 0.09515400   1.008000   ; qtot 83.587792
 2506         c3     84    bbb     C6   2506 -0.11337700  12.010000   ; qtot 83.474415
 2507         hc     84    bbb    H11   2507 0.09515400   1.008000   ; qtot 83.569569
 2508         hc     84    bbb    H12   2508 0.09515400   1.008000   ; qtot 83.664723
 2509         c3     84    bbb     C7   2509 0.21842400  12.010000   ; qtot 83.883147
 2510         h1     84    bbb    H13   2510 0.04500300   1.008000   ; qtot 83.928150
 2511         h1     84    bbb    H14   2511 0.04500300   1.008000   ; qtot 83.973153
 2512         c3     84    bbb     C8   2512 -0.06455200  12.010000   ; qtot 83.908601
 2513         h1     84    bbb    H15   2513 0.13554100   1.008000   ; qtot 84.044142
 2514         h1     84    bbb    H16   2514 0.13554100   1.008000   ; qtot 84.179683
 2515         c3     84    bbb     C9   2515 -0.06455200  12.010000   ; qtot 84.115131
 2516         h1     84    bbb    H17   2516 0.13554100   1.008000   ; qtot 84.250672
 2517         h1     84    bbb    H18   2517 0.13554100   1.008000   ; qtot 84.386213
 2518         os     84    bbb     O1   2518 -0.62587700  16.000000   ; qtot 83.760336
 2519         hn     84    bbb    H19   2519 0.23982500   1.008000   ; qtot 84.000161
; residue   85 bbb rtp bbb q 1.0
 2520         n4     85    bbb     N1   2520 0.03726400  14.010000   ; qtot 84.037425
 2521         c3     85    bbb     C1   2521 -0.07020100  12.010000   ; qtot 83.967224
 2522         hx     85    bbb     H1   2522 0.12219000   1.008000   ; qtot 84.089414
 2523         hx     85    bbb     H2   2523 0.12219000   1.008000   ; qtot 84.211604
 2524         c3     85    bbb     C2   2524 -0.07020100  12.010000   ; qtot 84.141403
 2525         hx     85    bbb     H3   2525 0.12219000   1.008000   ; qtot 84.263593
 2526         hx     85    bbb     H4   2526 0.12219000   1.008000   ; qtot 84.385783
 2527         c3     85    bbb     C3   2527 -0.39007700  12.010000   ; qtot 83.995706
 2528         hx     85    bbb     H5   2528 0.14940300   1.008000   ; qtot 84.145109
 2529         hx     85    bbb     H6   2529 0.14940300   1.008000   ; qtot 84.294512
 2530         c3     85    bbb     C4   2530 0.18057300  12.010000   ; qtot 84.475085
 2531         hc     85    bbb     H7   2531 0.01788900   1.008000   ; qtot 84.492974
 2532         hc     85    bbb     H8   2532 0.01788900   1.008000   ; qtot 84.510863
 2533         c3     85    bbb     C5   2533 -0.11337700  12.010000   ; qtot 84.397486
 2534         hc     85    bbb     H9   2534 0.09515400   1.008000   ; qtot 84.492640
 2535         hc     85    bbb    H10   2535 0.09515400   1.008000   ; qtot 84.587794
 2536         c3     85    bbb     C6   2536 -0.11337700  12.010000   ; qtot 84.474417
 2537         hc     85    bbb    H11   2537 0.09515400   1.008000   ; qtot 84.569571
 2538         hc     85    bbb    H12   2538 0.09515400   1.008000   ; qtot 84.664725
 2539         c3     85    bbb     C7   2539 0.21842400  12.010000   ; qtot 84.883149
 2540         h1     85    bbb    H13   2540 0.04500300   1.008000   ; qtot 84.928152
 2541         h1     85    bbb    H14   2541 0.04500300   1.008000   ; qtot 84.973155
 2542         c3     85    bbb     C8   2542 -0.06455200  12.010000   ; qtot 84.908603
 2543         h1     85    bbb    H15   2543 0.13554100   1.008000   ; qtot 85.044144
 2544         h1     85    bbb    H16   2544 0.13554100   1.008000   ; qtot 85.179685
 2545         c3     85    bbb     C9   2545 -0.06455200  12.010000   ; qtot 85.115133
 2546         h1     85    bbb    H17   2546 0.13554100   1.008000   ; qtot 85.250674
 2547         h1     85    bbb    H18   2547 0.13554100   1.008000   ; qtot 85.386215
 2548         os     85    bbb     O1   2548 -0.62587700  16.000000   ; qtot 84.760338
 2549         hn     85    bbb    H19   2549 0.23982500   1.008000   ; qtot 85.000163
; residue   86 bbb rtp bbb q 1.0
 2550         n4     86    bbb     N1   2550 0.03726400  14.010000   ; qtot 85.037427
 2551         c3     86    bbb     C1   2551 -0.07020100  12.010000   ; qtot 84.967226
 2552         hx     86    bbb     H1   2552 0.12219000   1.008000   ; qtot 85.089416
 2553         hx     86    bbb     H2   2553 0.12219000   1.008000   ; qtot 85.211606
 2554         c3     86    bbb     C2   2554 -0.07020100  12.010000   ; qtot 85.141405
 2555         hx     86    bbb     H3   2555 0.12219000   1.008000   ; qtot 85.263595
 2556         hx     86    bbb     H4   2556 0.12219000   1.008000   ; qtot 85.385785
 2557         c3     86    bbb     C3   2557 -0.39007700  12.010000   ; qtot 84.995708
 2558         hx     86    bbb     H5   2558 0.14940300   1.008000   ; qtot 85.145111
 2559         hx     86    bbb     H6   2559 0.14940300   1.008000   ; qtot 85.294514
 2560         c3     86    bbb     C4   2560 0.18057300  12.010000   ; qtot 85.475087
 2561         hc     86    bbb     H7   2561 0.01788900   1.008000   ; qtot 85.492976
 2562         hc     86    bbb     H8   2562 0.01788900   1.008000   ; qtot 85.510865
 2563         c3     86    bbb     C5   2563 -0.11337700  12.010000   ; qtot 85.397488
 2564         hc     86    bbb     H9   2564 0.09515400   1.008000   ; qtot 85.492642
 2565         hc     86    bbb    H10   2565 0.09515400   1.008000   ; qtot 85.587796
 2566         c3     86    bbb     C6   2566 -0.11337700  12.010000   ; qtot 85.474419
 2567         hc     86    bbb    H11   2567 0.09515400   1.008000   ; qtot 85.569573
 2568         hc     86    bbb    H12   2568 0.09515400   1.008000   ; qtot 85.664727
 2569         c3     86    bbb     C7   2569 0.21842400  12.010000   ; qtot 85.883151
 2570         h1     86    bbb    H13   2570 0.04500300   1.008000   ; qtot 85.928154
 2571         h1     86    bbb    H14   2571 0.04500300   1.008000   ; qtot 85.973157
 2572         c3     86    bbb     C8   2572 -0.06455200  12.010000   ; qtot 85.908605
 2573         h1     86    bbb    H15   2573 0.13554100   1.008000   ; qtot 86.044146
 2574         h1     86    bbb    H16   2574 0.13554100   1.008000   ; qtot 86.179687
 2575         c3     86    bbb     C9   2575 -0.06455200  12.010000   ; qtot 86.115135
 2576         h1     86    bbb    H17   2576 0.13554100   1.008000   ; qtot 86.250676
 2577         h1     86    bbb    H18   2577 0.13554100   1.008000   ; qtot 86.386217
 2578         os     86    bbb     O1   2578 -0.62587700  16.000000   ; qtot 85.760340
 2579         hn     86    bbb    H19   2579 0.23982500   1.008000   ; qtot 86.000165
; residue   87 bbb rtp bbb q 1.0
 2580         n4     87    bbb     N1   2580 0.03726400  14.010000   ; qtot 86.037429
 2581         c3     87    bbb     C1   2581 -0.07020100  12.010000   ; qtot 85.967228
 2582         hx     87    bbb     H1   2582 0.12219000   1.008000   ; qtot 86.089418
 2583         hx     87    bbb     H2   2583 0.12219000   1.008000   ; qtot 86.211608
 2584         c3     87    bbb     C2   2584 -0.07020100  12.010000   ; qtot 86.141407
 2585         hx     87    bbb     H3   2585 0.12219000   1.008000   ; qtot 86.263597
 2586         hx     87    bbb     H4   2586 0.12219000   1.008000   ; qtot 86.385787
 2587         c3     87    bbb     C3   2587 -0.39007700  12.010000   ; qtot 85.995710
 2588         hx     87    bbb     H5   2588 0.14940300   1.008000   ; qtot 86.145113
 2589         hx     87    bbb     H6   2589 0.14940300   1.008000   ; qtot 86.294516
 2590         c3     87    bbb     C4   2590 0.18057300  12.010000   ; qtot 86.475089
 2591         hc     87    bbb     H7   2591 0.01788900   1.008000   ; qtot 86.492978
 2592         hc     87    bbb     H8   2592 0.01788900   1.008000   ; qtot 86.510867
 2593         c3     87    bbb     C5   2593 -0.11337700  12.010000   ; qtot 86.397490
 2594         hc     87    bbb     H9   2594 0.09515400   1.008000   ; qtot 86.492644
 2595         hc     87    bbb    H10   2595 0.09515400   1.008000   ; qtot 86.587798
 2596         c3     87    bbb     C6   2596 -0.11337700  12.010000   ; qtot 86.474421
 2597         hc     87    bbb    H11   2597 0.09515400   1.008000   ; qtot 86.569575
 2598         hc     87    bbb    H12   2598 0.09515400   1.008000   ; qtot 86.664729
 2599         c3     87    bbb     C7   2599 0.21842400  12.010000   ; qtot 86.883153
 2600         h1     87    bbb    H13   2600 0.04500300   1.008000   ; qtot 86.928156
 2601         h1     87    bbb    H14   2601 0.04500300   1.008000   ; qtot 86.973159
 2602         c3     87    bbb     C8   2602 -0.06455200  12.010000   ; qtot 86.908607
 2603         h1     87    bbb    H15   2603 0.13554100   1.008000   ; qtot 87.044148
 2604         h1     87    bbb    H16   2604 0.13554100   1.008000   ; qtot 87.179689
 2605         c3     87    bbb     C9   2605 -0.06455200  12.010000   ; qtot 87.115137
 2606         h1     87    bbb    H17   2606 0.13554100   1.008000   ; qtot 87.250678
 2607         h1     87    bbb    H18   2607 0.13554100   1.008000   ; qtot 87.386219
 2608         os     87    bbb     O1   2608 -0.62587700  16.000000   ; qtot 86.760342
 2609         hn     87    bbb    H19   2609 0.23982500   1.008000   ; qtot 87.000167
; residue   88 bbb rtp bbb q 1.0
 2610         n4     88    bbb     N1   2610 0.03726400  14.010000   ; qtot 87.037431
 2611         c3     88    bbb     C1   2611 -0.07020100  12.010000   ; qtot 86.967230
 2612         hx     88    bbb     H1   2612 0.12219000   1.008000   ; qtot 87.089420
 2613         hx     88    bbb     H2   2613 0.12219000   1.008000   ; qtot 87.211610
 2614         c3     88    bbb     C2   2614 -0.07020100  12.010000   ; qtot 87.141409
 2615         hx     88    bbb     H3   2615 0.12219000   1.008000   ; qtot 87.263599
 2616         hx     88    bbb     H4   2616 0.12219000   1.008000   ; qtot 87.385789
 2617         c3     88    bbb     C3   2617 -0.39007700  12.010000   ; qtot 86.995712
 2618         hx     88    bbb     H5   2618 0.14940300   1.008000   ; qtot 87.145115
 2619         hx     88    bbb     H6   2619 0.14940300   1.008000   ; qtot 87.294518
 2620         c3     88    bbb     C4   2620 0.18057300  12.010000   ; qtot 87.475091
 2621         hc     88    bbb     H7   2621 0.01788900   1.008000   ; qtot 87.492980
 2622         hc     88    bbb     H8   2622 0.01788900   1.008000   ; qtot 87.510869
 2623         c3     88    bbb     C5   2623 -0.11337700  12.010000   ; qtot 87.397492
 2624         hc     88    bbb     H9   2624 0.09515400   1.008000   ; qtot 87.492646
 2625         hc     88    bbb    H10   2625 0.09515400   1.008000   ; qtot 87.587800
 2626         c3     88    bbb     C6   2626 -0.11337700  12.010000   ; qtot 87.474423
 2627         hc     88    bbb    H11   2627 0.09515400   1.008000   ; qtot 87.569577
 2628         hc     88    bbb    H12   2628 0.09515400   1.008000   ; qtot 87.664731
 2629         c3     88    bbb     C7   2629 0.21842400  12.010000   ; qtot 87.883155
 2630         h1     88    bbb    H13   2630 0.04500300   1.008000   ; qtot 87.928158
 2631         h1     88    bbb    H14   2631 0.04500300   1.008000   ; qtot 87.973161
 2632         c3     88    bbb     C8   2632 -0.06455200  12.010000   ; qtot 87.908609
 2633         h1     88    bbb    H15   2633 0.13554100   1.008000   ; qtot 88.044150
 2634         h1     88    bbb    H16   2634 0.13554100   1.008000   ; qtot 88.179691
 2635         c3     88    bbb     C9   2635 -0.06455200  12.010000   ; qtot 88.115139
 2636         h1     88    bbb    H17   2636 0.13554100   1.008000   ; qtot 88.250680
 2637         h1     88    bbb    H18   2637 0.13554100   1.008000   ; qtot 88.386221
 2638         os     88    bbb     O1   2638 -0.62587700  16.000000   ; qtot 87.760344
 2639         hn     88    bbb    H19   2639 0.23982500   1.008000   ; qtot 88.000169
; residue   89 bbb rtp bbb q 1.0
 2640         n4     89    bbb     N1   2640 0.03726400  14.010000   ; qtot 88.037433
 2641         c3     89    bbb     C1   2641 -0.07020100  12.010000   ; qtot 87.967232
 2642         hx     89    bbb     H1   2642 0.12219000   1.008000   ; qtot 88.089422
 2643         hx     89    bbb     H2   2643 0.12219000   1.008000   ; qtot 88.211612
 2644         c3     89    bbb     C2   2644 -0.07020100  12.010000   ; qtot 88.141411
 2645         hx     89    bbb     H3   2645 0.12219000   1.008000   ; qtot 88.263601
 2646         hx     89    bbb     H4   2646 0.12219000   1.008000   ; qtot 88.385791
 2647         c3     89    bbb     C3   2647 -0.39007700  12.010000   ; qtot 87.995714
 2648         hx     89    bbb     H5   2648 0.14940300   1.008000   ; qtot 88.145117
 2649         hx     89    bbb     H6   2649 0.14940300   1.008000   ; qtot 88.294520
 2650         c3     89    bbb     C4   2650 0.18057300  12.010000   ; qtot 88.475093
 2651         hc     89    bbb     H7   2651 0.01788900   1.008000   ; qtot 88.492982
 2652         hc     89    bbb     H8   2652 0.01788900   1.008000   ; qtot 88.510871
 2653         c3     89    bbb     C5   2653 -0.11337700  12.010000   ; qtot 88.397494
 2654         hc     89    bbb     H9   2654 0.09515400   1.008000   ; qtot 88.492648
 2655         hc     89    bbb    H10   2655 0.09515400   1.008000   ; qtot 88.587802
 2656         c3     89    bbb     C6   2656 -0.11337700  12.010000   ; qtot 88.474425
 2657         hc     89    bbb    H11   2657 0.09515400   1.008000   ; qtot 88.569579
 2658         hc     89    bbb    H12   2658 0.09515400   1.008000   ; qtot 88.664733
 2659         c3     89    bbb     C7   2659 0.21842400  12.010000   ; qtot 88.883157
 2660         h1     89    bbb    H13   2660 0.04500300   1.008000   ; qtot 88.928160
 2661         h1     89    bbb    H14   2661 0.04500300   1.008000   ; qtot 88.973163
 2662         c3     89    bbb     C8   2662 -0.06455200  12.010000   ; qtot 88.908611
 2663         h1     89    bbb    H15   2663 0.13554100   1.008000   ; qtot 89.044152
 2664         h1     89    bbb    H16   2664 0.13554100   1.008000   ; qtot 89.179693
 2665         c3     89    bbb     C9   2665 -0.06455200  12.010000   ; qtot 89.115141
 2666         h1     89    bbb    H17   2666 0.13554100   1.008000   ; qtot 89.250682
 2667         h1     89    bbb    H18   2667 0.13554100   1.008000   ; qtot 89.386223
 2668         os     89    bbb     O1   2668 -0.62587700  16.000000   ; qtot 88.760346
 2669         hn     89    bbb    H19   2669 0.23982500   1.008000   ; qtot 89.000171
; residue   90 bbb rtp bbb q 1.0
 2670         n4     90    bbb     N1   2670 0.03726400  14.010000   ; qtot 89.037435
 2671         c3     90    bbb     C1   2671 -0.07020100  12.010000   ; qtot 88.967234
 2672         hx     90    bbb     H1   2672 0.12219000   1.008000   ; qtot 89.089424
 2673         hx     90    bbb     H2   2673 0.12219000   1.008000   ; qtot 89.211614
 2674         c3     90    bbb     C2   2674 -0.07020100  12.010000   ; qtot 89.141413
 2675         hx     90    bbb     H3   2675 0.12219000   1.008000   ; qtot 89.263603
 2676         hx     90    bbb     H4   2676 0.12219000   1.008000   ; qtot 89.385793
 2677         c3     90    bbb     C3   2677 -0.39007700  12.010000   ; qtot 88.995716
 2678         hx     90    bbb     H5   2678 0.14940300   1.008000   ; qtot 89.145119
 2679         hx     90    bbb     H6   2679 0.14940300   1.008000   ; qtot 89.294522
 2680         c3     90    bbb     C4   2680 0.18057300  12.010000   ; qtot 89.475095
 2681         hc     90    bbb     H7   2681 0.01788900   1.008000   ; qtot 89.492984
 2682         hc     90    bbb     H8   2682 0.01788900   1.008000   ; qtot 89.510873
 2683         c3     90    bbb     C5   2683 -0.11337700  12.010000   ; qtot 89.397496
 2684         hc     90    bbb     H9   2684 0.09515400   1.008000   ; qtot 89.492650
 2685         hc     90    bbb    H10   2685 0.09515400   1.008000   ; qtot 89.587804
 2686         c3     90    bbb     C6   2686 -0.11337700  12.010000   ; qtot 89.474427
 2687         hc     90    bbb    H11   2687 0.09515400   1.008000   ; qtot 89.569581
 2688         hc     90    bbb    H12   2688 0.09515400   1.008000   ; qtot 89.664735
 2689         c3     90    bbb     C7   2689 0.21842400  12.010000   ; qtot 89.883159
 2690         h1     90    bbb    H13   2690 0.04500300   1.008000   ; qtot 89.928162
 2691         h1     90    bbb    H14   2691 0.04500300   1.008000   ; qtot 89.973165
 2692         c3     90    bbb     C8   2692 -0.06455200  12.010000   ; qtot 89.908613
 2693         h1     90    bbb    H15   2693 0.13554100   1.008000   ; qtot 90.044154
 2694         h1     90    bbb    H16   2694 0.13554100   1.008000   ; qtot 90.179695
 2695         c3     90    bbb     C9   2695 -0.06455200  12.010000   ; qtot 90.115143
 2696         h1     90    bbb    H17   2696 0.13554100   1.008000   ; qtot 90.250684
 2697         h1     90    bbb    H18   2697 0.13554100   1.008000   ; qtot 90.386225
 2698         os     90    bbb     O1   2698 -0.62587700  16.000000   ; qtot 89.760348
 2699         hn     90    bbb    H19   2699 0.23982500   1.008000   ; qtot 90.000173
; residue   91 bbb rtp bbb q 1.0
 2700         n4     91    bbb     N1   2700 0.03726400  14.010000   ; qtot 90.037437
 2701         c3     91    bbb     C1   2701 -0.07020100  12.010000   ; qtot 89.967236
 2702         hx     91    bbb     H1   2702 0.12219000   1.008000   ; qtot 90.089426
 2703         hx     91    bbb     H2   2703 0.12219000   1.008000   ; qtot 90.211616
 2704         c3     91    bbb     C2   2704 -0.07020100  12.010000   ; qtot 90.141415
 2705         hx     91    bbb     H3   2705 0.12219000   1.008000   ; qtot 90.263605
 2706         hx     91    bbb     H4   2706 0.12219000   1.008000   ; qtot 90.385795
 2707         c3     91    bbb     C3   2707 -0.39007700  12.010000   ; qtot 89.995718
 2708         hx     91    bbb     H5   2708 0.14940300   1.008000   ; qtot 90.145121
 2709         hx     91    bbb     H6   2709 0.14940300   1.008000   ; qtot 90.294524
 2710         c3     91    bbb     C4   2710 0.18057300  12.010000   ; qtot 90.475097
 2711         hc     91    bbb     H7   2711 0.01788900   1.008000   ; qtot 90.492986
 2712         hc     91    bbb     H8   2712 0.01788900   1.008000   ; qtot 90.510875
 2713         c3     91    bbb     C5   2713 -0.11337700  12.010000   ; qtot 90.397498
 2714         hc     91    bbb     H9   2714 0.09515400   1.008000   ; qtot 90.492652
 2715         hc     91    bbb    H10   2715 0.09515400   1.008000   ; qtot 90.587806
 2716         c3     91    bbb     C6   2716 -0.11337700  12.010000   ; qtot 90.474429
 2717         hc     91    bbb    H11   2717 0.09515400   1.008000   ; qtot 90.569583
 2718         hc     91    bbb    H12   2718 0.09515400   1.008000   ; qtot 90.664737
 2719         c3     91    bbb     C7   2719 0.21842400  12.010000   ; qtot 90.883161
 2720         h1     91    bbb    H13   2720 0.04500300   1.008000   ; qtot 90.928164
 2721         h1     91    bbb    H14   2721 0.04500300   1.008000   ; qtot 90.973167
 2722         c3     91    bbb     C8   2722 -0.06455200  12.010000   ; qtot 90.908615
 2723         h1     91    bbb    H15   2723 0.13554100   1.008000   ; qtot 91.044156
 2724         h1     91    bbb    H16   2724 0.13554100   1.008000   ; qtot 91.179697
 2725         c3     91    bbb     C9   2725 -0.06455200  12.010000   ; qtot 91.115145
 2726         h1     91    bbb    H17   2726 0.13554100   1.008000   ; qtot 91.250686
 2727         h1     91    bbb    H18   2727 0.13554100   1.008000   ; qtot 91.386227
 2728         os     91    bbb     O1   2728 -0.62587700  16.000000   ; qtot 90.760350
 2729         hn     91    bbb    H19   2729 0.23982500   1.008000   ; qtot 91.000175
; residue   92 bbb rtp bbb q 1.0
 2730         n4     92    bbb     N1   2730 0.03726400  14.010000   ; qtot 91.037439
 2731         c3     92    bbb     C1   2731 -0.07020100  12.010000   ; qtot 90.967238
 2732         hx     92    bbb     H1   2732 0.12219000   1.008000   ; qtot 91.089428
 2733         hx     92    bbb     H2   2733 0.12219000   1.008000   ; qtot 91.211618
 2734         c3     92    bbb     C2   2734 -0.07020100  12.010000   ; qtot 91.141417
 2735         hx     92    bbb     H3   2735 0.12219000   1.008000   ; qtot 91.263607
 2736         hx     92    bbb     H4   2736 0.12219000   1.008000   ; qtot 91.385797
 2737         c3     92    bbb     C3   2737 -0.39007700  12.010000   ; qtot 90.995720
 2738         hx     92    bbb     H5   2738 0.14940300   1.008000   ; qtot 91.145123
 2739         hx     92    bbb     H6   2739 0.14940300   1.008000   ; qtot 91.294526
 2740         c3     92    bbb     C4   2740 0.18057300  12.010000   ; qtot 91.475099
 2741         hc     92    bbb     H7   2741 0.01788900   1.008000   ; qtot 91.492988
 2742         hc     92    bbb     H8   2742 0.01788900   1.008000   ; qtot 91.510877
 2743         c3     92    bbb     C5   2743 -0.11337700  12.010000   ; qtot 91.397500
 2744         hc     92    bbb     H9   2744 0.09515400   1.008000   ; qtot 91.492654
 2745         hc     92    bbb    H10   2745 0.09515400   1.008000   ; qtot 91.587808
 2746         c3     92    bbb     C6   2746 -0.11337700  12.010000   ; qtot 91.474431
 2747         hc     92    bbb    H11   2747 0.09515400   1.008000   ; qtot 91.569585
 2748         hc     92    bbb    H12   2748 0.09515400   1.008000   ; qtot 91.664739
 2749         c3     92    bbb     C7   2749 0.21842400  12.010000   ; qtot 91.883163
 2750         h1     92    bbb    H13   2750 0.04500300   1.008000   ; qtot 91.928166
 2751         h1     92    bbb    H14   2751 0.04500300   1.008000   ; qtot 91.973169
 2752         c3     92    bbb     C8   2752 -0.06455200  12.010000   ; qtot 91.908617
 2753         h1     92    bbb    H15   2753 0.13554100   1.008000   ; qtot 92.044158
 2754         h1     92    bbb    H16   2754 0.13554100   1.008000   ; qtot 92.179699
 2755         c3     92    bbb     C9   2755 -0.06455200  12.010000   ; qtot 92.115147
 2756         h1     92    bbb    H17   2756 0.13554100   1.008000   ; qtot 92.250688
 2757         h1     92    bbb    H18   2757 0.13554100   1.008000   ; qtot 92.386229
 2758         os     92    bbb     O1   2758 -0.62587700  16.000000   ; qtot 91.760352
 2759         hn     92    bbb    H19   2759 0.23982500   1.008000   ; qtot 92.000177
; residue   93 bbb rtp bbb q 1.0
 2760         n4     93    bbb     N1   2760 0.03726400  14.010000   ; qtot 92.037441
 2761         c3     93    bbb     C1   2761 -0.07020100  12.010000   ; qtot 91.967240
 2762         hx     93    bbb     H1   2762 0.12219000   1.008000   ; qtot 92.089430
 2763         hx     93    bbb     H2   2763 0.12219000   1.008000   ; qtot 92.211620
 2764         c3     93    bbb     C2   2764 -0.07020100  12.010000   ; qtot 92.141419
 2765         hx     93    bbb     H3   2765 0.12219000   1.008000   ; qtot 92.263609
 2766         hx     93    bbb     H4   2766 0.12219000   1.008000   ; qtot 92.385799
 2767         c3     93    bbb     C3   2767 -0.39007700  12.010000   ; qtot 91.995722
 2768         hx     93    bbb     H5   2768 0.14940300   1.008000   ; qtot 92.145125
 2769         hx     93    bbb     H6   2769 0.14940300   1.008000   ; qtot 92.294528
 2770         c3     93    bbb     C4   2770 0.18057300  12.010000   ; qtot 92.475101
 2771         hc     93    bbb     H7   2771 0.01788900   1.008000   ; qtot 92.492990
 2772         hc     93    bbb     H8   2772 0.01788900   1.008000   ; qtot 92.510879
 2773         c3     93    bbb     C5   2773 -0.11337700  12.010000   ; qtot 92.397502
 2774         hc     93    bbb     H9   2774 0.09515400   1.008000   ; qtot 92.492656
 2775         hc     93    bbb    H10   2775 0.09515400   1.008000   ; qtot 92.587810
 2776         c3     93    bbb     C6   2776 -0.11337700  12.010000   ; qtot 92.474433
 2777         hc     93    bbb    H11   2777 0.09515400   1.008000   ; qtot 92.569587
 2778         hc     93    bbb    H12   2778 0.09515400   1.008000   ; qtot 92.664741
 2779         c3     93    bbb     C7   2779 0.21842400  12.010000   ; qtot 92.883165
 2780         h1     93    bbb    H13   2780 0.04500300   1.008000   ; qtot 92.928168
 2781         h1     93    bbb    H14   2781 0.04500300   1.008000   ; qtot 92.973171
 2782         c3     93    bbb     C8   2782 -0.06455200  12.010000   ; qtot 92.908619
 2783         h1     93    bbb    H15   2783 0.13554100   1.008000   ; qtot 93.044160
 2784         h1     93    bbb    H16   2784 0.13554100   1.008000   ; qtot 93.179701
 2785         c3     93    bbb     C9   2785 -0.06455200  12.010000   ; qtot 93.115149
 2786         h1     93    bbb    H17   2786 0.13554100   1.008000   ; qtot 93.250690
 2787         h1     93    bbb    H18   2787 0.13554100   1.008000   ; qtot 93.386231
 2788         os     93    bbb     O1   2788 -0.62587700  16.000000   ; qtot 92.760354
 2789         hn     93    bbb    H19   2789 0.23982500   1.008000   ; qtot 93.000179
; residue   94 bbb rtp bbb q 1.0
 2790         n4     94    bbb     N1   2790 0.03726400  14.010000   ; qtot 93.037443
 2791         c3     94    bbb     C1   2791 -0.07020100  12.010000   ; qtot 92.967242
 2792         hx     94    bbb     H1   2792 0.12219000   1.008000   ; qtot 93.089432
 2793         hx     94    bbb     H2   2793 0.12219000   1.008000   ; qtot 93.211622
 2794         c3     94    bbb     C2   2794 -0.07020100  12.010000   ; qtot 93.141421
 2795         hx     94    bbb     H3   2795 0.12219000   1.008000   ; qtot 93.263611
 2796         hx     94    bbb     H4   2796 0.12219000   1.008000   ; qtot 93.385801
 2797         c3     94    bbb     C3   2797 -0.39007700  12.010000   ; qtot 92.995724
 2798         hx     94    bbb     H5   2798 0.14940300   1.008000   ; qtot 93.145127
 2799         hx     94    bbb     H6   2799 0.14940300   1.008000   ; qtot 93.294530
 2800         c3     94    bbb     C4   2800 0.18057300  12.010000   ; qtot 93.475103
 2801         hc     94    bbb     H7   2801 0.01788900   1.008000   ; qtot 93.492992
 2802         hc     94    bbb     H8   2802 0.01788900   1.008000   ; qtot 93.510881
 2803         c3     94    bbb     C5   2803 -0.11337700  12.010000   ; qtot 93.397504
 2804         hc     94    bbb     H9   2804 0.09515400   1.008000   ; qtot 93.492658
 2805         hc     94    bbb    H10   2805 0.09515400   1.008000   ; qtot 93.587812
 2806         c3     94    bbb     C6   2806 -0.11337700  12.010000   ; qtot 93.474435
 2807         hc     94    bbb    H11   2807 0.09515400   1.008000   ; qtot 93.569589
 2808         hc     94    bbb    H12   2808 0.09515400   1.008000   ; qtot 93.664743
 2809         c3     94    bbb     C7   2809 0.21842400  12.010000   ; qtot 93.883167
 2810         h1     94    bbb    H13   2810 0.04500300   1.008000   ; qtot 93.928170
 2811         h1     94    bbb    H14   2811 0.04500300   1.008000   ; qtot 93.973173
 2812         c3     94    bbb     C8   2812 -0.06455200  12.010000   ; qtot 93.908621
 2813         h1     94    bbb    H15   2813 0.13554100   1.008000   ; qtot 94.044162
 2814         h1     94    bbb    H16   2814 0.13554100   1.008000   ; qtot 94.179703
 2815         c3     94    bbb     C9   2815 -0.06455200  12.010000   ; qtot 94.115151
 2816         h1     94    bbb    H17   2816 0.13554100   1.008000   ; qtot 94.250692
 2817         h1     94    bbb    H18   2817 0.13554100   1.008000   ; qtot 94.386233
 2818         os     94    bbb     O1   2818 -0.62587700  16.000000   ; qtot 93.760356
 2819         hn     94    bbb    H19   2819 0.23982500   1.008000   ; qtot 94.000181
; residue   95 bbb rtp bbb q 1.0
 2820         n4     95    bbb     N1   2820 0.03726400  14.010000   ; qtot 94.037445
 2821         c3     95    bbb     C1   2821 -0.07020100  12.010000   ; qtot 93.967244
 2822         hx     95    bbb     H1   2822 0.12219000   1.008000   ; qtot 94.089434
 2823         hx     95    bbb     H2   2823 0.12219000   1.008000   ; qtot 94.211624
 2824         c3     95    bbb     C2   2824 -0.07020100  12.010000   ; qtot 94.141423
 2825         hx     95    bbb     H3   2825 0.12219000   1.008000   ; qtot 94.263613
 2826         hx     95    bbb     H4   2826 0.12219000   1.008000   ; qtot 94.385803
 2827         c3     95    bbb     C3   2827 -0.39007700  12.010000   ; qtot 93.995726
 2828         hx     95    bbb     H5   2828 0.14940300   1.008000   ; qtot 94.145129
 2829         hx     95    bbb     H6   2829 0.14940300   1.008000   ; qtot 94.294532
 2830         c3     95    bbb     C4   2830 0.18057300  12.010000   ; qtot 94.475105
 2831         hc     95    bbb     H7   2831 0.01788900   1.008000   ; qtot 94.492994
 2832         hc     95    bbb     H8   2832 0.01788900   1.008000   ; qtot 94.510883
 2833         c3     95    bbb     C5   2833 -0.11337700  12.010000   ; qtot 94.397506
 2834         hc     95    bbb     H9   2834 0.09515400   1.008000   ; qtot 94.492660
 2835         hc     95    bbb    H10   2835 0.09515400   1.008000   ; qtot 94.587814
 2836         c3     95    bbb     C6   2836 -0.11337700  12.010000   ; qtot 94.474437
 2837         hc     95    bbb    H11   2837 0.09515400   1.008000   ; qtot 94.569591
 2838         hc     95    bbb    H12   2838 0.09515400   1.008000   ; qtot 94.664745
 2839         c3     95    bbb     C7   2839 0.21842400  12.010000   ; qtot 94.883169
 2840         h1     95    bbb    H13   2840 0.04500300   1.008000   ; qtot 94.928172
 2841         h1     95    bbb    H14   2841 0.04500300   1.008000   ; qtot 94.973175
 2842         c3     95    bbb     C8   2842 -0.06455200  12.010000   ; qtot 94.908623
 2843         h1     95    bbb    H15   2843 0.13554100   1.008000   ; qtot 95.044164
 2844         h1     95    bbb    H16   2844 0.13554100   1.008000   ; qtot 95.179705
 2845         c3     95    bbb     C9   2845 -0.06455200  12.010000   ; qtot 95.115153
 2846         h1     95    bbb    H17   2846 0.13554100   1.008000   ; qtot 95.250694
 2847         h1     95    bbb    H18   2847 0.13554100   1.008000   ; qtot 95.386235
 2848         os     95    bbb     O1   2848 -0.62587700  16.000000   ; qtot 94.760358
 2849         hn     95    bbb    H19   2849 0.23982500   1.008000   ; qtot 95.000183
; residue   96 bbb rtp bbb q 1.0
 2850         n4     96    bbb     N1   2850 0.03726400  14.010000   ; qtot 95.037447
 2851         c3     96    bbb     C1   2851 -0.07020100  12.010000   ; qtot 94.967246
 2852         hx     96    bbb     H1   2852 0.12219000   1.008000   ; qtot 95.089436
 2853         hx     96    bbb     H2   2853 0.12219000   1.008000   ; qtot 95.211626
 2854         c3     96    bbb     C2   2854 -0.07020100  12.010000   ; qtot 95.141425
 2855         hx     96    bbb     H3   2855 0.12219000   1.008000   ; qtot 95.263615
 2856         hx     96    bbb     H4   2856 0.12219000   1.008000   ; qtot 95.385805
 2857         c3     96    bbb     C3   2857 -0.39007700  12.010000   ; qtot 94.995728
 2858         hx     96    bbb     H5   2858 0.14940300   1.008000   ; qtot 95.145131
 2859         hx     96    bbb     H6   2859 0.14940300   1.008000   ; qtot 95.294534
 2860         c3     96    bbb     C4   2860 0.18057300  12.010000   ; qtot 95.475107
 2861         hc     96    bbb     H7   2861 0.01788900   1.008000   ; qtot 95.492996
 2862         hc     96    bbb     H8   2862 0.01788900   1.008000   ; qtot 95.510885
 2863         c3     96    bbb     C5   2863 -0.11337700  12.010000   ; qtot 95.397508
 2864         hc     96    bbb     H9   2864 0.09515400   1.008000   ; qtot 95.492662
 2865         hc     96    bbb    H10   2865 0.09515400   1.008000   ; qtot 95.587816
 2866         c3     96    bbb     C6   2866 -0.11337700  12.010000   ; qtot 95.474439
 2867         hc     96    bbb    H11   2867 0.09515400   1.008000   ; qtot 95.569593
 2868         hc     96    bbb    H12   2868 0.09515400   1.008000   ; qtot 95.664747
 2869         c3     96    bbb     C7   2869 0.21842400  12.010000   ; qtot 95.883171
 2870         h1     96    bbb    H13   2870 0.04500300   1.008000   ; qtot 95.928174
 2871         h1     96    bbb    H14   2871 0.04500300   1.008000   ; qtot 95.973177
 2872         c3     96    bbb     C8   2872 -0.06455200  12.010000   ; qtot 95.908625
 2873         h1     96    bbb    H15   2873 0.13554100   1.008000   ; qtot 96.044166
 2874         h1     96    bbb    H16   2874 0.13554100   1.008000   ; qtot 96.179707
 2875         c3     96    bbb     C9   2875 -0.06455200  12.010000   ; qtot 96.115155
 2876         h1     96    bbb    H17   2876 0.13554100   1.008000   ; qtot 96.250696
 2877         h1     96    bbb    H18   2877 0.13554100   1.008000   ; qtot 96.386237
 2878         os     96    bbb     O1   2878 -0.62587700  16.000000   ; qtot 95.760360
 2879         hn     96    bbb    H19   2879 0.23982500   1.008000   ; qtot 96.000185
; residue   97 bbb rtp bbb q 1.0
 2880         n4     97    bbb     N1   2880 0.03726400  14.010000   ; qtot 96.037449
 2881         c3     97    bbb     C1   2881 -0.07020100  12.010000   ; qtot 95.967248
 2882         hx     97    bbb     H1   2882 0.12219000   1.008000   ; qtot 96.089438
 2883         hx     97    bbb     H2   2883 0.12219000   1.008000   ; qtot 96.211628
 2884         c3     97    bbb     C2   2884 -0.07020100  12.010000   ; qtot 96.141427
 2885         hx     97    bbb     H3   2885 0.12219000   1.008000   ; qtot 96.263617
 2886         hx     97    bbb     H4   2886 0.12219000   1.008000   ; qtot 96.385807
 2887         c3     97    bbb     C3   2887 -0.39007700  12.010000   ; qtot 95.995730
 2888         hx     97    bbb     H5   2888 0.14940300   1.008000   ; qtot 96.145133
 2889         hx     97    bbb     H6   2889 0.14940300   1.008000   ; qtot 96.294536
 2890         c3     97    bbb     C4   2890 0.18057300  12.010000   ; qtot 96.475109
 2891         hc     97    bbb     H7   2891 0.01788900   1.008000   ; qtot 96.492998
 2892         hc     97    bbb     H8   2892 0.01788900   1.008000   ; qtot 96.510887
 2893         c3     97    bbb     C5   2893 -0.11337700  12.010000   ; qtot 96.397510
 2894         hc     97    bbb     H9   2894 0.09515400   1.008000   ; qtot 96.492664
 2895         hc     97    bbb    H10   2895 0.09515400   1.008000   ; qtot 96.587818
 2896         c3     97    bbb     C6   2896 -0.11337700  12.010000   ; qtot 96.474441
 2897         hc     97    bbb    H11   2897 0.09515400   1.008000   ; qtot 96.569595
 2898         hc     97    bbb    H12   2898 0.09515400   1.008000   ; qtot 96.664749
 2899         c3     97    bbb     C7   2899 0.21842400  12.010000   ; qtot 96.883173
 2900         h1     97    bbb    H13   2900 0.04500300   1.008000   ; qtot 96.928176
 2901         h1     97    bbb    H14   2901 0.04500300   1.008000   ; qtot 96.973179
 2902         c3     97    bbb     C8   2902 -0.06455200  12.010000   ; qtot 96.908627
 2903         h1     97    bbb    H15   2903 0.13554100   1.008000   ; qtot 97.044168
 2904         h1     97    bbb    H16   2904 0.13554100   1.008000   ; qtot 97.179709
 2905         c3     97    bbb     C9   2905 -0.06455200  12.010000   ; qtot 97.115157
 2906         h1     97    bbb    H17   2906 0.13554100   1.008000   ; qtot 97.250698
 2907         h1     97    bbb    H18   2907 0.13554100   1.008000   ; qtot 97.386239
 2908         os     97    bbb     O1   2908 -0.62587700  16.000000   ; qtot 96.760362
 2909         hn     97    bbb    H19   2909 0.23982500   1.008000   ; qtot 97.000187
; residue   98 bbb rtp bbb q 1.0
 2910         n4     98    bbb     N1   2910 0.03726400  14.010000   ; qtot 97.037451
 2911         c3     98    bbb     C1   2911 -0.07020100  12.010000   ; qtot 96.967250
 2912         hx     98    bbb     H1   2912 0.12219000   1.008000   ; qtot 97.089440
 2913         hx     98    bbb     H2   2913 0.12219000   1.008000   ; qtot 97.211630
 2914         c3     98    bbb     C2   2914 -0.07020100  12.010000   ; qtot 97.141429
 2915         hx     98    bbb     H3   2915 0.12219000   1.008000   ; qtot 97.263619
 2916         hx     98    bbb     H4   2916 0.12219000   1.008000   ; qtot 97.385809
 2917         c3     98    bbb     C3   2917 -0.39007700  12.010000   ; qtot 96.995732
 2918         hx     98    bbb     H5   2918 0.14940300   1.008000   ; qtot 97.145135
 2919         hx     98    bbb     H6   2919 0.14940300   1.008000   ; qtot 97.294538
 2920         c3     98    bbb     C4   2920 0.18057300  12.010000   ; qtot 97.475111
 2921         hc     98    bbb     H7   2921 0.01788900   1.008000   ; qtot 97.493000
 2922         hc     98    bbb     H8   2922 0.01788900   1.008000   ; qtot 97.510889
 2923         c3     98    bbb     C5   2923 -0.11337700  12.010000   ; qtot 97.397512
 2924         hc     98    bbb     H9   2924 0.09515400   1.008000   ; qtot 97.492666
 2925         hc     98    bbb    H10   2925 0.09515400   1.008000   ; qtot 97.587820
 2926         c3     98    bbb     C6   2926 -0.11337700  12.010000   ; qtot 97.474443
 2927         hc     98    bbb    H11   2927 0.09515400   1.008000   ; qtot 97.569597
 2928         hc     98    bbb    H12   2928 0.09515400   1.008000   ; qtot 97.664751
 2929         c3     98    bbb     C7   2929 0.21842400  12.010000   ; qtot 97.883175
 2930         h1     98    bbb    H13   2930 0.04500300   1.008000   ; qtot 97.928178
 2931         h1     98    bbb    H14   2931 0.04500300   1.008000   ; qtot 97.973181
 2932         c3     98    bbb     C8   2932 -0.06455200  12.010000   ; qtot 97.908629
 2933         h1     98    bbb    H15   2933 0.13554100   1.008000   ; qtot 98.044170
 2934         h1     98    bbb    H16   2934 0.13554100   1.008000   ; qtot 98.179711
 2935         c3     98    bbb     C9   2935 -0.06455200  12.010000   ; qtot 98.115159
 2936         h1     98    bbb    H17   2936 0.13554100   1.008000   ; qtot 98.250700
 2937         h1     98    bbb    H18   2937 0.13554100   1.008000   ; qtot 98.386241
 2938         os     98    bbb     O1   2938 -0.62587700  16.000000   ; qtot 97.760364
 2939         hn     98    bbb    H19   2939 0.23982500   1.008000   ; qtot 98.000189
; residue   99 bbb rtp bbb q 1.0
 2940         n4     99    bbb     N1   2940 0.03726400  14.010000   ; qtot 98.037453
 2941         c3     99    bbb     C1   2941 -0.07020100  12.010000   ; qtot 97.967252
 2942         hx     99    bbb     H1   2942 0.12219000   1.008000   ; qtot 98.089442
 2943         hx     99    bbb     H2   2943 0.12219000   1.008000   ; qtot 98.211632
 2944         c3     99    bbb     C2   2944 -0.07020100  12.010000   ; qtot 98.141431
 2945         hx     99    bbb     H3   2945 0.12219000   1.008000   ; qtot 98.263621
 2946         hx     99    bbb     H4   2946 0.12219000   1.008000   ; qtot 98.385811
 2947         c3     99    bbb     C3   2947 -0.39007700  12.010000   ; qtot 97.995734
 2948         hx     99    bbb     H5   2948 0.14940300   1.008000   ; qtot 98.145137
 2949         hx     99    bbb     H6   2949 0.14940300   1.008000   ; qtot 98.294540
 2950         c3     99    bbb     C4   2950 0.18057300  12.010000   ; qtot 98.475113
 2951         hc     99    bbb     H7   2951 0.01788900   1.008000   ; qtot 98.493002
 2952         hc     99    bbb     H8   2952 0.01788900   1.008000   ; qtot 98.510891
 2953         c3     99    bbb     C5   2953 -0.11337700  12.010000   ; qtot 98.397514
 2954         hc     99    bbb     H9   2954 0.09515400   1.008000   ; qtot 98.492668
 2955         hc     99    bbb    H10   2955 0.09515400   1.008000   ; qtot 98.587822
 2956         c3     99    bbb     C6   2956 -0.11337700  12.010000   ; qtot 98.474445
 2957         hc     99    bbb    H11   2957 0.09515400   1.008000   ; qtot 98.569599
 2958         hc     99    bbb    H12   2958 0.09515400   1.008000   ; qtot 98.664753
 2959         c3     99    bbb     C7   2959 0.21842400  12.010000   ; qtot 98.883177
 2960         h1     99    bbb    H13   2960 0.04500300   1.008000   ; qtot 98.928180
 2961         h1     99    bbb    H14   2961 0.04500300   1.008000   ; qtot 98.973183
 2962         c3     99    bbb     C8   2962 -0.06455200  12.010000   ; qtot 98.908631
 2963         h1     99    bbb    H15   2963 0.13554100   1.008000   ; qtot 99.044172
 2964         h1     99    bbb    H16   2964 0.13554100   1.008000   ; qtot 99.179713
 2965         c3     99    bbb     C9   2965 -0.06455200  12.010000   ; qtot 99.115161
 2966         h1     99    bbb    H17   2966 0.13554100   1.008000   ; qtot 99.250702
 2967         h1     99    bbb    H18   2967 0.13554100   1.008000   ; qtot 99.386243
 2968         os     99    bbb     O1   2968 -0.62587700  16.000000   ; qtot 98.760366
 2969         hn     99    bbb    H19   2969 0.23982500   1.008000   ; qtot 99.000191
; residue  100 bbb rtp bbb q 1.0
 2970         n4    100    bbb     N1   2970 0.03726400  14.010000   ; qtot 99.037455
 2971         c3    100    bbb     C1   2971 -0.07020100  12.010000   ; qtot 98.967254
 2972         hx    100    bbb     H1   2972 0.12219000   1.008000   ; qtot 99.089444
 2973         hx    100    bbb     H2   2973 0.12219000   1.008000   ; qtot 99.211634
 2974         c3    100    bbb     C2   2974 -0.07020100  12.010000   ; qtot 99.141433
 2975         hx    100    bbb     H3   2975 0.12219000   1.008000   ; qtot 99.263623
 2976         hx    100    bbb     H4   2976 0.12219000   1.008000   ; qtot 99.385813
 2977         c3    100    bbb     C3   2977 -0.39007700  12.010000   ; qtot 98.995736
 2978         hx    100    bbb     H5   2978 0.14940300   1.008000   ; qtot 99.145139
 2979         hx    100    bbb     H6   2979 0.14940300   1.008000   ; qtot 99.294542
 2980         c3    100    bbb     C4   2980 0.18057300  12.010000   ; qtot 99.475115
 2981         hc    100    bbb     H7   2981 0.01788900   1.008000   ; qtot 99.493004
 2982         hc    100    bbb     H8   2982 0.01788900   1.008000   ; qtot 99.510893
 2983         c3    100    bbb     C5   2983 -0.11337700  12.010000   ; qtot 99.397516
 2984         hc    100    bbb     H9   2984 0.09515400   1.008000   ; qtot 99.492670
 2985         hc    100    bbb    H10   2985 0.09515400   1.008000   ; qtot 99.587824
 2986         c3    100    bbb     C6   2986 -0.11337700  12.010000   ; qtot 99.474447
 2987         hc    100    bbb    H11   2987 0.09515400   1.008000   ; qtot 99.569601
 2988         hc    100    bbb    H12   2988 0.09515400   1.008000   ; qtot 99.664755
 2989         c3    100    bbb     C7   2989 0.21842400  12.010000   ; qtot 99.883179
 2990         h1    100    bbb    H13   2990 0.04500300   1.008000   ; qtot 99.928182
 2991         h1    100    bbb    H14   2991 0.04500300   1.008000   ; qtot 99.973185
 2992         c3    100    bbb     C8   2992 -0.06455200  12.010000   ; qtot 99.908633
 2993         h1    100    bbb    H15   2993 0.13554100   1.008000   ; qtot 100.044174
 2994         h1    100    bbb    H16   2994 0.13554100   1.008000   ; qtot 100.179715
 2995         c3    100    bbb     C9   2995 -0.06455200  12.010000   ; qtot 100.115163
 2996         h1    100    bbb    H17   2996 0.13554100   1.008000   ; qtot 100.250704
 2997         h1    100    bbb    H18   2997 0.13554100   1.008000   ; qtot 100.386245
 2998         os    100    bbb     O1   2998 -0.62587700  16.000000   ; qtot 99.760368
 2999         hn    100    bbb    H19   2999 0.23982500   1.008000   ; qtot 100.000193
; residue  101 bbb rtp bbb q 1.0
 3000         n4    101    bbb     N1   3000 0.03726400  14.010000   ; qtot 100.037457
 3001         c3    101    bbb     C1   3001 -0.07020100  12.010000   ; qtot 99.967256
 3002         hx    101    bbb     H1   3002 0.12219000   1.008000   ; qtot 100.089446
 3003         hx    101    bbb     H2   3003 0.12219000   1.008000   ; qtot 100.211636
 3004         c3    101    bbb     C2   3004 -0.07020100  12.010000   ; qtot 100.141435
 3005         hx    101    bbb     H3   3005 0.12219000   1.008000   ; qtot 100.263625
 3006         hx    101    bbb     H4   3006 0.12219000   1.008000   ; qtot 100.385815
 3007         c3    101    bbb     C3   3007 -0.39007700  12.010000   ; qtot 99.995738
 3008         hx    101    bbb     H5   3008 0.14940300   1.008000   ; qtot 100.145141
 3009         hx    101    bbb     H6   3009 0.14940300   1.008000   ; qtot 100.294544
 3010         c3    101    bbb     C4   3010 0.18057300  12.010000   ; qtot 100.475117
 3011         hc    101    bbb     H7   3011 0.01788900   1.008000   ; qtot 100.493006
 3012         hc    101    bbb     H8   3012 0.01788900   1.008000   ; qtot 100.510895
 3013         c3    101    bbb     C5   3013 -0.11337700  12.010000   ; qtot 100.397518
 3014         hc    101    bbb     H9   3014 0.09515400   1.008000   ; qtot 100.492672
 3015         hc    101    bbb    H10   3015 0.09515400   1.008000   ; qtot 100.587826
 3016         c3    101    bbb     C6   3016 -0.11337700  12.010000   ; qtot 100.474449
 3017         hc    101    bbb    H11   3017 0.09515400   1.008000   ; qtot 100.569603
 3018         hc    101    bbb    H12   3018 0.09515400   1.008000   ; qtot 100.664757
 3019         c3    101    bbb     C7   3019 0.21842400  12.010000   ; qtot 100.883181
 3020         h1    101    bbb    H13   3020 0.04500300   1.008000   ; qtot 100.928184
 3021         h1    101    bbb    H14   3021 0.04500300   1.008000   ; qtot 100.973187
 3022         c3    101    bbb     C8   3022 -0.06455200  12.010000   ; qtot 100.908635
 3023         h1    101    bbb    H15   3023 0.13554100   1.008000   ; qtot 101.044176
 3024         h1    101    bbb    H16   3024 0.13554100   1.008000   ; qtot 101.179717
 3025         c3    101    bbb     C9   3025 -0.06455200  12.010000   ; qtot 101.115165
 3026         h1    101    bbb    H17   3026 0.13554100   1.008000   ; qtot 101.250706
 3027         h1    101    bbb    H18   3027 0.13554100   1.008000   ; qtot 101.386247
 3028         os    101    bbb     O1   3028 -0.62587700  16.000000   ; qtot 100.760370
 3029         hn    101    bbb    H19   3029 0.23982500   1.008000   ; qtot 101.000195
; residue  102 bbb rtp bbb q 1.0
 3030         n4    102    bbb     N1   3030 0.03726400  14.010000   ; qtot 101.037459
 3031         c3    102    bbb     C1   3031 -0.07020100  12.010000   ; qtot 100.967258
 3032         hx    102    bbb     H1   3032 0.12219000   1.008000   ; qtot 101.089448
 3033         hx    102    bbb     H2   3033 0.12219000   1.008000   ; qtot 101.211638
 3034         c3    102    bbb     C2   3034 -0.07020100  12.010000   ; qtot 101.141437
 3035         hx    102    bbb     H3   3035 0.12219000   1.008000   ; qtot 101.263627
 3036         hx    102    bbb     H4   3036 0.12219000   1.008000   ; qtot 101.385817
 3037         c3    102    bbb     C3   3037 -0.39007700  12.010000   ; qtot 100.995740
 3038         hx    102    bbb     H5   3038 0.14940300   1.008000   ; qtot 101.145143
 3039         hx    102    bbb     H6   3039 0.14940300   1.008000   ; qtot 101.294546
 3040         c3    102    bbb     C4   3040 0.18057300  12.010000   ; qtot 101.475119
 3041         hc    102    bbb     H7   3041 0.01788900   1.008000   ; qtot 101.493008
 3042         hc    102    bbb     H8   3042 0.01788900   1.008000   ; qtot 101.510897
 3043         c3    102    bbb     C5   3043 -0.11337700  12.010000   ; qtot 101.397520
 3044         hc    102    bbb     H9   3044 0.09515400   1.008000   ; qtot 101.492674
 3045         hc    102    bbb    H10   3045 0.09515400   1.008000   ; qtot 101.587828
 3046         c3    102    bbb     C6   3046 -0.11337700  12.010000   ; qtot 101.474451
 3047         hc    102    bbb    H11   3047 0.09515400   1.008000   ; qtot 101.569605
 3048         hc    102    bbb    H12   3048 0.09515400   1.008000   ; qtot 101.664759
 3049         c3    102    bbb     C7   3049 0.21842400  12.010000   ; qtot 101.883183
 3050         h1    102    bbb    H13   3050 0.04500300   1.008000   ; qtot 101.928186
 3051         h1    102    bbb    H14   3051 0.04500300   1.008000   ; qtot 101.973189
 3052         c3    102    bbb     C8   3052 -0.06455200  12.010000   ; qtot 101.908637
 3053         h1    102    bbb    H15   3053 0.13554100   1.008000   ; qtot 102.044178
 3054         h1    102    bbb    H16   3054 0.13554100   1.008000   ; qtot 102.179719
 3055         c3    102    bbb     C9   3055 -0.06455200  12.010000   ; qtot 102.115167
 3056         h1    102    bbb    H17   3056 0.13554100   1.008000   ; qtot 102.250708
 3057         h1    102    bbb    H18   3057 0.13554100   1.008000   ; qtot 102.386249
 3058         os    102    bbb     O1   3058 -0.62587700  16.000000   ; qtot 101.760372
 3059         hn    102    bbb    H19   3059 0.23982500   1.008000   ; qtot 102.000197
; residue  103 bbb rtp bbb q 1.0
 3060         n4    103    bbb     N1   3060 0.03726400  14.010000   ; qtot 102.037461
 3061         c3    103    bbb     C1   3061 -0.07020100  12.010000   ; qtot 101.967260
 3062         hx    103    bbb     H1   3062 0.12219000   1.008000   ; qtot 102.089450
 3063         hx    103    bbb     H2   3063 0.12219000   1.008000   ; qtot 102.211640
 3064         c3    103    bbb     C2   3064 -0.07020100  12.010000   ; qtot 102.141439
 3065         hx    103    bbb     H3   3065 0.12219000   1.008000   ; qtot 102.263629
 3066         hx    103    bbb     H4   3066 0.12219000   1.008000   ; qtot 102.385819
 3067         c3    103    bbb     C3   3067 -0.39007700  12.010000   ; qtot 101.995742
 3068         hx    103    bbb     H5   3068 0.14940300   1.008000   ; qtot 102.145145
 3069         hx    103    bbb     H6   3069 0.14940300   1.008000   ; qtot 102.294548
 3070         c3    103    bbb     C4   3070 0.18057300  12.010000   ; qtot 102.475121
 3071         hc    103    bbb     H7   3071 0.01788900   1.008000   ; qtot 102.493010
 3072         hc    103    bbb     H8   3072 0.01788900   1.008000   ; qtot 102.510899
 3073         c3    103    bbb     C5   3073 -0.11337700  12.010000   ; qtot 102.397522
 3074         hc    103    bbb     H9   3074 0.09515400   1.008000   ; qtot 102.492676
 3075         hc    103    bbb    H10   3075 0.09515400   1.008000   ; qtot 102.587830
 3076         c3    103    bbb     C6   3076 -0.11337700  12.010000   ; qtot 102.474453
 3077         hc    103    bbb    H11   3077 0.09515400   1.008000   ; qtot 102.569607
 3078         hc    103    bbb    H12   3078 0.09515400   1.008000   ; qtot 102.664761
 3079         c3    103    bbb     C7   3079 0.21842400  12.010000   ; qtot 102.883185
 3080         h1    103    bbb    H13   3080 0.04500300   1.008000   ; qtot 102.928188
 3081         h1    103    bbb    H14   3081 0.04500300   1.008000   ; qtot 102.973191
 3082         c3    103    bbb     C8   3082 -0.06455200  12.010000   ; qtot 102.908639
 3083         h1    103    bbb    H15   3083 0.13554100   1.008000   ; qtot 103.044180
 3084         h1    103    bbb    H16   3084 0.13554100   1.008000   ; qtot 103.179721
 3085         c3    103    bbb     C9   3085 -0.06455200  12.010000   ; qtot 103.115169
 3086         h1    103    bbb    H17   3086 0.13554100   1.008000   ; qtot 103.250710
 3087         h1    103    bbb    H18   3087 0.13554100   1.008000   ; qtot 103.386251
 3088         os    103    bbb     O1   3088 -0.62587700  16.000000   ; qtot 102.760374
 3089         hn    103    bbb    H19   3089 0.23982500   1.008000   ; qtot 103.000199
; residue  104 bbb rtp bbb q 1.0
 3090         n4    104    bbb     N1   3090 0.03726400  14.010000   ; qtot 103.037463
 3091         c3    104    bbb     C1   3091 -0.07020100  12.010000   ; qtot 102.967262
 3092         hx    104    bbb     H1   3092 0.12219000   1.008000   ; qtot 103.089452
 3093         hx    104    bbb     H2   3093 0.12219000   1.008000   ; qtot 103.211642
 3094         c3    104    bbb     C2   3094 -0.07020100  12.010000   ; qtot 103.141441
 3095         hx    104    bbb     H3   3095 0.12219000   1.008000   ; qtot 103.263631
 3096         hx    104    bbb     H4   3096 0.12219000   1.008000   ; qtot 103.385821
 3097         c3    104    bbb     C3   3097 -0.39007700  12.010000   ; qtot 102.995744
 3098         hx    104    bbb     H5   3098 0.14940300   1.008000   ; qtot 103.145147
 3099         hx    104    bbb     H6   3099 0.14940300   1.008000   ; qtot 103.294550
 3100         c3    104    bbb     C4   3100 0.18057300  12.010000   ; qtot 103.475123
 3101         hc    104    bbb     H7   3101 0.01788900   1.008000   ; qtot 103.493012
 3102         hc    104    bbb     H8   3102 0.01788900   1.008000   ; qtot 103.510901
 3103         c3    104    bbb     C5   3103 -0.11337700  12.010000   ; qtot 103.397524
 3104         hc    104    bbb     H9   3104 0.09515400   1.008000   ; qtot 103.492678
 3105         hc    104    bbb    H10   3105 0.09515400   1.008000   ; qtot 103.587832
 3106         c3    104    bbb     C6   3106 -0.11337700  12.010000   ; qtot 103.474455
 3107         hc    104    bbb    H11   3107 0.09515400   1.008000   ; qtot 103.569609
 3108         hc    104    bbb    H12   3108 0.09515400   1.008000   ; qtot 103.664763
 3109         c3    104    bbb     C7   3109 0.21842400  12.010000   ; qtot 103.883187
 3110         h1    104    bbb    H13   3110 0.04500300   1.008000   ; qtot 103.928190
 3111         h1    104    bbb    H14   3111 0.04500300   1.008000   ; qtot 103.973193
 3112         c3    104    bbb     C8   3112 -0.06455200  12.010000   ; qtot 103.908641
 3113         h1    104    bbb    H15   3113 0.13554100   1.008000   ; qtot 104.044182
 3114         h1    104    bbb    H16   3114 0.13554100   1.008000   ; qtot 104.179723
 3115         c3    104    bbb     C9   3115 -0.06455200  12.010000   ; qtot 104.115171
 3116         h1    104    bbb    H17   3116 0.13554100   1.008000   ; qtot 104.250712
 3117         h1    104    bbb    H18   3117 0.13554100   1.008000   ; qtot 104.386253
 3118         os    104    bbb     O1   3118 -0.62587700  16.000000   ; qtot 103.760376
 3119         hn    104    bbb    H19   3119 0.23982500   1.008000   ; qtot 104.000201
; residue  105 bbb rtp bbb q 1.0
 3120         n4    105    bbb     N1   3120 0.03726400  14.010000   ; qtot 104.037465
 3121         c3    105    bbb     C1   3121 -0.07020100  12.010000   ; qtot 103.967264
 3122         hx    105    bbb     H1   3122 0.12219000   1.008000   ; qtot 104.089454
 3123         hx    105    bbb     H2   3123 0.12219000   1.008000   ; qtot 104.211644
 3124         c3    105    bbb     C2   3124 -0.07020100  12.010000   ; qtot 104.141443
 3125         hx    105    bbb     H3   3125 0.12219000   1.008000   ; qtot 104.263633
 3126         hx    105    bbb     H4   3126 0.12219000   1.008000   ; qtot 104.385823
 3127         c3    105    bbb     C3   3127 -0.39007700  12.010000   ; qtot 103.995746
 3128         hx    105    bbb     H5   3128 0.14940300   1.008000   ; qtot 104.145149
 3129         hx    105    bbb     H6   3129 0.14940300   1.008000   ; qtot 104.294552
 3130         c3    105    bbb     C4   3130 0.18057300  12.010000   ; qtot 104.475125
 3131         hc    105    bbb     H7   3131 0.01788900   1.008000   ; qtot 104.493014
 3132         hc    105    bbb     H8   3132 0.01788900   1.008000   ; qtot 104.510903
 3133         c3    105    bbb     C5   3133 -0.11337700  12.010000   ; qtot 104.397526
 3134         hc    105    bbb     H9   3134 0.09515400   1.008000   ; qtot 104.492680
 3135         hc    105    bbb    H10   3135 0.09515400   1.008000   ; qtot 104.587834
 3136         c3    105    bbb     C6   3136 -0.11337700  12.010000   ; qtot 104.474457
 3137         hc    105    bbb    H11   3137 0.09515400   1.008000   ; qtot 104.569611
 3138         hc    105    bbb    H12   3138 0.09515400   1.008000   ; qtot 104.664765
 3139         c3    105    bbb     C7   3139 0.21842400  12.010000   ; qtot 104.883189
 3140         h1    105    bbb    H13   3140 0.04500300   1.008000   ; qtot 104.928192
 3141         h1    105    bbb    H14   3141 0.04500300   1.008000   ; qtot 104.973195
 3142         c3    105    bbb     C8   3142 -0.06455200  12.010000   ; qtot 104.908643
 3143         h1    105    bbb    H15   3143 0.13554100   1.008000   ; qtot 105.044184
 3144         h1    105    bbb    H16   3144 0.13554100   1.008000   ; qtot 105.179725
 3145         c3    105    bbb     C9   3145 -0.06455200  12.010000   ; qtot 105.115173
 3146         h1    105    bbb    H17   3146 0.13554100   1.008000   ; qtot 105.250714
 3147         h1    105    bbb    H18   3147 0.13554100   1.008000   ; qtot 105.386255
 3148         os    105    bbb     O1   3148 -0.62587700  16.000000   ; qtot 104.760378
 3149         hn    105    bbb    H19   3149 0.23982500   1.008000   ; qtot 105.000203
; residue  106 bbb rtp bbb q 1.0
 3150         n4    106    bbb     N1   3150 0.03726400  14.010000   ; qtot 105.037467
 3151         c3    106    bbb     C1   3151 -0.07020100  12.010000   ; qtot 104.967266
 3152         hx    106    bbb     H1   3152 0.12219000   1.008000   ; qtot 105.089456
 3153         hx    106    bbb     H2   3153 0.12219000   1.008000   ; qtot 105.211646
 3154         c3    106    bbb     C2   3154 -0.07020100  12.010000   ; qtot 105.141445
 3155         hx    106    bbb     H3   3155 0.12219000   1.008000   ; qtot 105.263635
 3156         hx    106    bbb     H4   3156 0.12219000   1.008000   ; qtot 105.385825
 3157         c3    106    bbb     C3   3157 -0.39007700  12.010000   ; qtot 104.995748
 3158         hx    106    bbb     H5   3158 0.14940300   1.008000   ; qtot 105.145151
 3159         hx    106    bbb     H6   3159 0.14940300   1.008000   ; qtot 105.294554
 3160         c3    106    bbb     C4   3160 0.18057300  12.010000   ; qtot 105.475127
 3161         hc    106    bbb     H7   3161 0.01788900   1.008000   ; qtot 105.493016
 3162         hc    106    bbb     H8   3162 0.01788900   1.008000   ; qtot 105.510905
 3163         c3    106    bbb     C5   3163 -0.11337700  12.010000   ; qtot 105.397528
 3164         hc    106    bbb     H9   3164 0.09515400   1.008000   ; qtot 105.492682
 3165         hc    106    bbb    H10   3165 0.09515400   1.008000   ; qtot 105.587836
 3166         c3    106    bbb     C6   3166 -0.11337700  12.010000   ; qtot 105.474459
 3167         hc    106    bbb    H11   3167 0.09515400   1.008000   ; qtot 105.569613
 3168         hc    106    bbb    H12   3168 0.09515400   1.008000   ; qtot 105.664767
 3169         c3    106    bbb     C7   3169 0.21842400  12.010000   ; qtot 105.883191
 3170         h1    106    bbb    H13   3170 0.04500300   1.008000   ; qtot 105.928194
 3171         h1    106    bbb    H14   3171 0.04500300   1.008000   ; qtot 105.973197
 3172         c3    106    bbb     C8   3172 -0.06455200  12.010000   ; qtot 105.908645
 3173         h1    106    bbb    H15   3173 0.13554100   1.008000   ; qtot 106.044186
 3174         h1    106    bbb    H16   3174 0.13554100   1.008000   ; qtot 106.179727
 3175         c3    106    bbb     C9   3175 -0.06455200  12.010000   ; qtot 106.115175
 3176         h1    106    bbb    H17   3176 0.13554100   1.008000   ; qtot 106.250716
 3177         h1    106    bbb    H18   3177 0.13554100   1.008000   ; qtot 106.386257
 3178         os    106    bbb     O1   3178 -0.62587700  16.000000   ; qtot 105.760380
 3179         hn    106    bbb    H19   3179 0.23982500   1.008000   ; qtot 106.000205
; residue  107 bbb rtp bbb q 1.0
 3180         n4    107    bbb     N1   3180 0.03726400  14.010000   ; qtot 106.037469
 3181         c3    107    bbb     C1   3181 -0.07020100  12.010000   ; qtot 105.967268
 3182         hx    107    bbb     H1   3182 0.12219000   1.008000   ; qtot 106.089458
 3183         hx    107    bbb     H2   3183 0.12219000   1.008000   ; qtot 106.211648
 3184         c3    107    bbb     C2   3184 -0.07020100  12.010000   ; qtot 106.141447
 3185         hx    107    bbb     H3   3185 0.12219000   1.008000   ; qtot 106.263637
 3186         hx    107    bbb     H4   3186 0.12219000   1.008000   ; qtot 106.385827
 3187         c3    107    bbb     C3   3187 -0.39007700  12.010000   ; qtot 105.995750
 3188         hx    107    bbb     H5   3188 0.14940300   1.008000   ; qtot 106.145153
 3189         hx    107    bbb     H6   3189 0.14940300   1.008000   ; qtot 106.294556
 3190         c3    107    bbb     C4   3190 0.18057300  12.010000   ; qtot 106.475129
 3191         hc    107    bbb     H7   3191 0.01788900   1.008000   ; qtot 106.493018
 3192         hc    107    bbb     H8   3192 0.01788900   1.008000   ; qtot 106.510907
 3193         c3    107    bbb     C5   3193 -0.11337700  12.010000   ; qtot 106.397530
 3194         hc    107    bbb     H9   3194 0.09515400   1.008000   ; qtot 106.492684
 3195         hc    107    bbb    H10   3195 0.09515400   1.008000   ; qtot 106.587838
 3196         c3    107    bbb     C6   3196 -0.11337700  12.010000   ; qtot 106.474461
 3197         hc    107    bbb    H11   3197 0.09515400   1.008000   ; qtot 106.569615
 3198         hc    107    bbb    H12   3198 0.09515400   1.008000   ; qtot 106.664769
 3199         c3    107    bbb     C7   3199 0.21842400  12.010000   ; qtot 106.883193
 3200         h1    107    bbb    H13   3200 0.04500300   1.008000   ; qtot 106.928196
 3201         h1    107    bbb    H14   3201 0.04500300   1.008000   ; qtot 106.973199
 3202         c3    107    bbb     C8   3202 -0.06455200  12.010000   ; qtot 106.908647
 3203         h1    107    bbb    H15   3203 0.13554100   1.008000   ; qtot 107.044188
 3204         h1    107    bbb    H16   3204 0.13554100   1.008000   ; qtot 107.179729
 3205         c3    107    bbb     C9   3205 -0.06455200  12.010000   ; qtot 107.115177
 3206         h1    107    bbb    H17   3206 0.13554100   1.008000   ; qtot 107.250718
 3207         h1    107    bbb    H18   3207 0.13554100   1.008000   ; qtot 107.386259
 3208         os    107    bbb     O1   3208 -0.62587700  16.000000   ; qtot 106.760382
 3209         hn    107    bbb    H19   3209 0.23982500   1.008000   ; qtot 107.000207
; residue  108 bbb rtp bbb q 1.0
 3210         n4    108    bbb     N1   3210 0.03726400  14.010000   ; qtot 107.037471
 3211         c3    108    bbb     C1   3211 -0.07020100  12.010000   ; qtot 106.967270
 3212         hx    108    bbb     H1   3212 0.12219000   1.008000   ; qtot 107.089460
 3213         hx    108    bbb     H2   3213 0.12219000   1.008000   ; qtot 107.211650
 3214         c3    108    bbb     C2   3214 -0.07020100  12.010000   ; qtot 107.141449
 3215         hx    108    bbb     H3   3215 0.12219000   1.008000   ; qtot 107.263639
 3216         hx    108    bbb     H4   3216 0.12219000   1.008000   ; qtot 107.385829
 3217         c3    108    bbb     C3   3217 -0.39007700  12.010000   ; qtot 106.995752
 3218         hx    108    bbb     H5   3218 0.14940300   1.008000   ; qtot 107.145155
 3219         hx    108    bbb     H6   3219 0.14940300   1.008000   ; qtot 107.294558
 3220         c3    108    bbb     C4   3220 0.18057300  12.010000   ; qtot 107.475131
 3221         hc    108    bbb     H7   3221 0.01788900   1.008000   ; qtot 107.493020
 3222         hc    108    bbb     H8   3222 0.01788900   1.008000   ; qtot 107.510909
 3223         c3    108    bbb     C5   3223 -0.11337700  12.010000   ; qtot 107.397532
 3224         hc    108    bbb     H9   3224 0.09515400   1.008000   ; qtot 107.492686
 3225         hc    108    bbb    H10   3225 0.09515400   1.008000   ; qtot 107.587840
 3226         c3    108    bbb     C6   3226 -0.11337700  12.010000   ; qtot 107.474463
 3227         hc    108    bbb    H11   3227 0.09515400   1.008000   ; qtot 107.569617
 3228         hc    108    bbb    H12   3228 0.09515400   1.008000   ; qtot 107.664771
 3229         c3    108    bbb     C7   3229 0.21842400  12.010000   ; qtot 107.883195
 3230         h1    108    bbb    H13   3230 0.04500300   1.008000   ; qtot 107.928198
 3231         h1    108    bbb    H14   3231 0.04500300   1.008000   ; qtot 107.973201
 3232         c3    108    bbb     C8   3232 -0.06455200  12.010000   ; qtot 107.908649
 3233         h1    108    bbb    H15   3233 0.13554100   1.008000   ; qtot 108.044190
 3234         h1    108    bbb    H16   3234 0.13554100   1.008000   ; qtot 108.179731
 3235         c3    108    bbb     C9   3235 -0.06455200  12.010000   ; qtot 108.115179
 3236         h1    108    bbb    H17   3236 0.13554100   1.008000   ; qtot 108.250720
 3237         h1    108    bbb    H18   3237 0.13554100   1.008000   ; qtot 108.386261
 3238         os    108    bbb     O1   3238 -0.62587700  16.000000   ; qtot 107.760384
 3239         hn    108    bbb    H19   3239 0.23982500   1.008000   ; qtot 108.000209
; residue  109 bbb rtp bbb q 1.0
 3240         n4    109    bbb     N1   3240 0.03726400  14.010000   ; qtot 108.037473
 3241         c3    109    bbb     C1   3241 -0.07020100  12.010000   ; qtot 107.967272
 3242         hx    109    bbb     H1   3242 0.12219000   1.008000   ; qtot 108.089462
 3243         hx    109    bbb     H2   3243 0.12219000   1.008000   ; qtot 108.211652
 3244         c3    109    bbb     C2   3244 -0.07020100  12.010000   ; qtot 108.141451
 3245         hx    109    bbb     H3   3245 0.12219000   1.008000   ; qtot 108.263641
 3246         hx    109    bbb     H4   3246 0.12219000   1.008000   ; qtot 108.385831
 3247         c3    109    bbb     C3   3247 -0.39007700  12.010000   ; qtot 107.995754
 3248         hx    109    bbb     H5   3248 0.14940300   1.008000   ; qtot 108.145157
 3249         hx    109    bbb     H6   3249 0.14940300   1.008000   ; qtot 108.294560
 3250         c3    109    bbb     C4   3250 0.18057300  12.010000   ; qtot 108.475133
 3251         hc    109    bbb     H7   3251 0.01788900   1.008000   ; qtot 108.493022
 3252         hc    109    bbb     H8   3252 0.01788900   1.008000   ; qtot 108.510911
 3253         c3    109    bbb     C5   3253 -0.11337700  12.010000   ; qtot 108.397534
 3254         hc    109    bbb     H9   3254 0.09515400   1.008000   ; qtot 108.492688
 3255         hc    109    bbb    H10   3255 0.09515400   1.008000   ; qtot 108.587842
 3256         c3    109    bbb     C6   3256 -0.11337700  12.010000   ; qtot 108.474465
 3257         hc    109    bbb    H11   3257 0.09515400   1.008000   ; qtot 108.569619
 3258         hc    109    bbb    H12   3258 0.09515400   1.008000   ; qtot 108.664773
 3259         c3    109    bbb     C7   3259 0.21842400  12.010000   ; qtot 108.883197
 3260         h1    109    bbb    H13   3260 0.04500300   1.008000   ; qtot 108.928200
 3261         h1    109    bbb    H14   3261 0.04500300   1.008000   ; qtot 108.973203
 3262         c3    109    bbb     C8   3262 -0.06455200  12.010000   ; qtot 108.908651
 3263         h1    109    bbb    H15   3263 0.13554100   1.008000   ; qtot 109.044192
 3264         h1    109    bbb    H16   3264 0.13554100   1.008000   ; qtot 109.179733
 3265         c3    109    bbb     C9   3265 -0.06455200  12.010000   ; qtot 109.115181
 3266         h1    109    bbb    H17   3266 0.13554100   1.008000   ; qtot 109.250722
 3267         h1    109    bbb    H18   3267 0.13554100   1.008000   ; qtot 109.386263
 3268         os    109    bbb     O1   3268 -0.62587700  16.000000   ; qtot 108.760386
 3269         hn    109    bbb    H19   3269 0.23982500   1.008000   ; qtot 109.000211
; residue  110 bbb rtp bbb q 1.0
 3270         n4    110    bbb     N1   3270 0.03726400  14.010000   ; qtot 109.037475
 3271         c3    110    bbb     C1   3271 -0.07020100  12.010000   ; qtot 108.967274
 3272         hx    110    bbb     H1   3272 0.12219000   1.008000   ; qtot 109.089464
 3273         hx    110    bbb     H2   3273 0.12219000   1.008000   ; qtot 109.211654
 3274         c3    110    bbb     C2   3274 -0.07020100  12.010000   ; qtot 109.141453
 3275         hx    110    bbb     H3   3275 0.12219000   1.008000   ; qtot 109.263643
 3276         hx    110    bbb     H4   3276 0.12219000   1.008000   ; qtot 109.385833
 3277         c3    110    bbb     C3   3277 -0.39007700  12.010000   ; qtot 108.995756
 3278         hx    110    bbb     H5   3278 0.14940300   1.008000   ; qtot 109.145159
 3279         hx    110    bbb     H6   3279 0.14940300   1.008000   ; qtot 109.294562
 3280         c3    110    bbb     C4   3280 0.18057300  12.010000   ; qtot 109.475135
 3281         hc    110    bbb     H7   3281 0.01788900   1.008000   ; qtot 109.493024
 3282         hc    110    bbb     H8   3282 0.01788900   1.008000   ; qtot 109.510913
 3283         c3    110    bbb     C5   3283 -0.11337700  12.010000   ; qtot 109.397536
 3284         hc    110    bbb     H9   3284 0.09515400   1.008000   ; qtot 109.492690
 3285         hc    110    bbb    H10   3285 0.09515400   1.008000   ; qtot 109.587844
 3286         c3    110    bbb     C6   3286 -0.11337700  12.010000   ; qtot 109.474467
 3287         hc    110    bbb    H11   3287 0.09515400   1.008000   ; qtot 109.569621
 3288         hc    110    bbb    H12   3288 0.09515400   1.008000   ; qtot 109.664775
 3289         c3    110    bbb     C7   3289 0.21842400  12.010000   ; qtot 109.883199
 3290         h1    110    bbb    H13   3290 0.04500300   1.008000   ; qtot 109.928202
 3291         h1    110    bbb    H14   3291 0.04500300   1.008000   ; qtot 109.973205
 3292         c3    110    bbb     C8   3292 -0.06455200  12.010000   ; qtot 109.908653
 3293         h1    110    bbb    H15   3293 0.13554100   1.008000   ; qtot 110.044194
 3294         h1    110    bbb    H16   3294 0.13554100   1.008000   ; qtot 110.179735
 3295         c3    110    bbb     C9   3295 -0.06455200  12.010000   ; qtot 110.115183
 3296         h1    110    bbb    H17   3296 0.13554100   1.008000   ; qtot 110.250724
 3297         h1    110    bbb    H18   3297 0.13554100   1.008000   ; qtot 110.386265
 3298         os    110    bbb     O1   3298 -0.62587700  16.000000   ; qtot 109.760388
 3299         hn    110    bbb    H19   3299 0.23982500   1.008000   ; qtot 110.000213
; residue  111 bbb rtp bbb q 1.0
 3300         n4    111    bbb     N1   3300 0.03726400  14.010000   ; qtot 110.037477
 3301         c3    111    bbb     C1   3301 -0.07020100  12.010000   ; qtot 109.967276
 3302         hx    111    bbb     H1   3302 0.12219000   1.008000   ; qtot 110.089466
 3303         hx    111    bbb     H2   3303 0.12219000   1.008000   ; qtot 110.211656
 3304         c3    111    bbb     C2   3304 -0.07020100  12.010000   ; qtot 110.141455
 3305         hx    111    bbb     H3   3305 0.12219000   1.008000   ; qtot 110.263645
 3306         hx    111    bbb     H4   3306 0.12219000   1.008000   ; qtot 110.385835
 3307         c3    111    bbb     C3   3307 -0.39007700  12.010000   ; qtot 109.995758
 3308         hx    111    bbb     H5   3308 0.14940300   1.008000   ; qtot 110.145161
 3309         hx    111    bbb     H6   3309 0.14940300   1.008000   ; qtot 110.294564
 3310         c3    111    bbb     C4   3310 0.18057300  12.010000   ; qtot 110.475137
 3311         hc    111    bbb     H7   3311 0.01788900   1.008000   ; qtot 110.493026
 3312         hc    111    bbb     H8   3312 0.01788900   1.008000   ; qtot 110.510915
 3313         c3    111    bbb     C5   3313 -0.11337700  12.010000   ; qtot 110.397538
 3314         hc    111    bbb     H9   3314 0.09515400   1.008000   ; qtot 110.492692
 3315         hc    111    bbb    H10   3315 0.09515400   1.008000   ; qtot 110.587846
 3316         c3    111    bbb     C6   3316 -0.11337700  12.010000   ; qtot 110.474469
 3317         hc    111    bbb    H11   3317 0.09515400   1.008000   ; qtot 110.569623
 3318         hc    111    bbb    H12   3318 0.09515400   1.008000   ; qtot 110.664777
 3319         c3    111    bbb     C7   3319 0.21842400  12.010000   ; qtot 110.883201
 3320         h1    111    bbb    H13   3320 0.04500300   1.008000   ; qtot 110.928204
 3321         h1    111    bbb    H14   3321 0.04500300   1.008000   ; qtot 110.973207
 3322         c3    111    bbb     C8   3322 -0.06455200  12.010000   ; qtot 110.908655
 3323         h1    111    bbb    H15   3323 0.13554100   1.008000   ; qtot 111.044196
 3324         h1    111    bbb    H16   3324 0.13554100   1.008000   ; qtot 111.179737
 3325         c3    111    bbb     C9   3325 -0.06455200  12.010000   ; qtot 111.115185
 3326         h1    111    bbb    H17   3326 0.13554100   1.008000   ; qtot 111.250726
 3327         h1    111    bbb    H18   3327 0.13554100   1.008000   ; qtot 111.386267
 3328         os    111    bbb     O1   3328 -0.62587700  16.000000   ; qtot 110.760390
 3329         hn    111    bbb    H19   3329 0.23982500   1.008000   ; qtot 111.000215
; residue  112 bbb rtp bbb q 1.0
 3330         n4    112    bbb     N1   3330 0.03726400  14.010000   ; qtot 111.037479
 3331         c3    112    bbb     C1   3331 -0.07020100  12.010000   ; qtot 110.967278
 3332         hx    112    bbb     H1   3332 0.12219000   1.008000   ; qtot 111.089468
 3333         hx    112    bbb     H2   3333 0.12219000   1.008000   ; qtot 111.211658
 3334         c3    112    bbb     C2   3334 -0.07020100  12.010000   ; qtot 111.141457
 3335         hx    112    bbb     H3   3335 0.12219000   1.008000   ; qtot 111.263647
 3336         hx    112    bbb     H4   3336 0.12219000   1.008000   ; qtot 111.385837
 3337         c3    112    bbb     C3   3337 -0.39007700  12.010000   ; qtot 110.995760
 3338         hx    112    bbb     H5   3338 0.14940300   1.008000   ; qtot 111.145163
 3339         hx    112    bbb     H6   3339 0.14940300   1.008000   ; qtot 111.294566
 3340         c3    112    bbb     C4   3340 0.18057300  12.010000   ; qtot 111.475139
 3341         hc    112    bbb     H7   3341 0.01788900   1.008000   ; qtot 111.493028
 3342         hc    112    bbb     H8   3342 0.01788900   1.008000   ; qtot 111.510917
 3343         c3    112    bbb     C5   3343 -0.11337700  12.010000   ; qtot 111.397540
 3344         hc    112    bbb     H9   3344 0.09515400   1.008000   ; qtot 111.492694
 3345         hc    112    bbb    H10   3345 0.09515400   1.008000   ; qtot 111.587848
 3346         c3    112    bbb     C6   3346 -0.11337700  12.010000   ; qtot 111.474471
 3347         hc    112    bbb    H11   3347 0.09515400   1.008000   ; qtot 111.569625
 3348         hc    112    bbb    H12   3348 0.09515400   1.008000   ; qtot 111.664779
 3349         c3    112    bbb     C7   3349 0.21842400  12.010000   ; qtot 111.883203
 3350         h1    112    bbb    H13   3350 0.04500300   1.008000   ; qtot 111.928206
 3351         h1    112    bbb    H14   3351 0.04500300   1.008000   ; qtot 111.973209
 3352         c3    112    bbb     C8   3352 -0.06455200  12.010000   ; qtot 111.908657
 3353         h1    112    bbb    H15   3353 0.13554100   1.008000   ; qtot 112.044198
 3354         h1    112    bbb    H16   3354 0.13554100   1.008000   ; qtot 112.179739
 3355         c3    112    bbb     C9   3355 -0.06455200  12.010000   ; qtot 112.115187
 3356         h1    112    bbb    H17   3356 0.13554100   1.008000   ; qtot 112.250728
 3357         h1    112    bbb    H18   3357 0.13554100   1.008000   ; qtot 112.386269
 3358         os    112    bbb     O1   3358 -0.62587700  16.000000   ; qtot 111.760392
 3359         hn    112    bbb    H19   3359 0.23982500   1.008000   ; qtot 112.000217
; residue  113 bbb rtp bbb q 1.0
 3360         n4    113    bbb     N1   3360 0.03726400  14.010000   ; qtot 112.037481
 3361         c3    113    bbb     C1   3361 -0.07020100  12.010000   ; qtot 111.967280
 3362         hx    113    bbb     H1   3362 0.12219000   1.008000   ; qtot 112.089470
 3363         hx    113    bbb     H2   3363 0.12219000   1.008000   ; qtot 112.211660
 3364         c3    113    bbb     C2   3364 -0.07020100  12.010000   ; qtot 112.141459
 3365         hx    113    bbb     H3   3365 0.12219000   1.008000   ; qtot 112.263649
 3366         hx    113    bbb     H4   3366 0.12219000   1.008000   ; qtot 112.385839
 3367         c3    113    bbb     C3   3367 -0.39007700  12.010000   ; qtot 111.995762
 3368         hx    113    bbb     H5   3368 0.14940300   1.008000   ; qtot 112.145165
 3369         hx    113    bbb     H6   3369 0.14940300   1.008000   ; qtot 112.294568
 3370         c3    113    bbb     C4   3370 0.18057300  12.010000   ; qtot 112.475141
 3371         hc    113    bbb     H7   3371 0.01788900   1.008000   ; qtot 112.493030
 3372         hc    113    bbb     H8   3372 0.01788900   1.008000   ; qtot 112.510919
 3373         c3    113    bbb     C5   3373 -0.11337700  12.010000   ; qtot 112.397542
 3374         hc    113    bbb     H9   3374 0.09515400   1.008000   ; qtot 112.492696
 3375         hc    113    bbb    H10   3375 0.09515400   1.008000   ; qtot 112.587850
 3376         c3    113    bbb     C6   3376 -0.11337700  12.010000   ; qtot 112.474473
 3377         hc    113    bbb    H11   3377 0.09515400   1.008000   ; qtot 112.569627
 3378         hc    113    bbb    H12   3378 0.09515400   1.008000   ; qtot 112.664781
 3379         c3    113    bbb     C7   3379 0.21842400  12.010000   ; qtot 112.883205
 3380         h1    113    bbb    H13   3380 0.04500300   1.008000   ; qtot 112.928208
 3381         h1    113    bbb    H14   3381 0.04500300   1.008000   ; qtot 112.973211
 3382         c3    113    bbb     C8   3382 -0.06455200  12.010000   ; qtot 112.908659
 3383         h1    113    bbb    H15   3383 0.13554100   1.008000   ; qtot 113.044200
 3384         h1    113    bbb    H16   3384 0.13554100   1.008000   ; qtot 113.179741
 3385         c3    113    bbb     C9   3385 -0.06455200  12.010000   ; qtot 113.115189
 3386         h1    113    bbb    H17   3386 0.13554100   1.008000   ; qtot 113.250730
 3387         h1    113    bbb    H18   3387 0.13554100   1.008000   ; qtot 113.386271
 3388         os    113    bbb     O1   3388 -0.62587700  16.000000   ; qtot 112.760394
 3389         hn    113    bbb    H19   3389 0.23982500   1.008000   ; qtot 113.000219
; residue  114 bbb rtp bbb q 1.0
 3390         n4    114    bbb     N1   3390 0.03726400  14.010000   ; qtot 113.037483
 3391         c3    114    bbb     C1   3391 -0.07020100  12.010000   ; qtot 112.967282
 3392         hx    114    bbb     H1   3392 0.12219000   1.008000   ; qtot 113.089472
 3393         hx    114    bbb     H2   3393 0.12219000   1.008000   ; qtot 113.211662
 3394         c3    114    bbb     C2   3394 -0.07020100  12.010000   ; qtot 113.141461
 3395         hx    114    bbb     H3   3395 0.12219000   1.008000   ; qtot 113.263651
 3396         hx    114    bbb     H4   3396 0.12219000   1.008000   ; qtot 113.385841
 3397         c3    114    bbb     C3   3397 -0.39007700  12.010000   ; qtot 112.995764
 3398         hx    114    bbb     H5   3398 0.14940300   1.008000   ; qtot 113.145167
 3399         hx    114    bbb     H6   3399 0.14940300   1.008000   ; qtot 113.294570
 3400         c3    114    bbb     C4   3400 0.18057300  12.010000   ; qtot 113.475143
 3401         hc    114    bbb     H7   3401 0.01788900   1.008000   ; qtot 113.493032
 3402         hc    114    bbb     H8   3402 0.01788900   1.008000   ; qtot 113.510921
 3403         c3    114    bbb     C5   3403 -0.11337700  12.010000   ; qtot 113.397544
 3404         hc    114    bbb     H9   3404 0.09515400   1.008000   ; qtot 113.492698
 3405         hc    114    bbb    H10   3405 0.09515400   1.008000   ; qtot 113.587852
 3406         c3    114    bbb     C6   3406 -0.11337700  12.010000   ; qtot 113.474475
 3407         hc    114    bbb    H11   3407 0.09515400   1.008000   ; qtot 113.569629
 3408         hc    114    bbb    H12   3408 0.09515400   1.008000   ; qtot 113.664783
 3409         c3    114    bbb     C7   3409 0.21842400  12.010000   ; qtot 113.883207
 3410         h1    114    bbb    H13   3410 0.04500300   1.008000   ; qtot 113.928210
 3411         h1    114    bbb    H14   3411 0.04500300   1.008000   ; qtot 113.973213
 3412         c3    114    bbb     C8   3412 -0.06455200  12.010000   ; qtot 113.908661
 3413         h1    114    bbb    H15   3413 0.13554100   1.008000   ; qtot 114.044202
 3414         h1    114    bbb    H16   3414 0.13554100   1.008000   ; qtot 114.179743
 3415         c3    114    bbb     C9   3415 -0.06455200  12.010000   ; qtot 114.115191
 3416         h1    114    bbb    H17   3416 0.13554100   1.008000   ; qtot 114.250732
 3417         h1    114    bbb    H18   3417 0.13554100   1.008000   ; qtot 114.386273
 3418         os    114    bbb     O1   3418 -0.62587700  16.000000   ; qtot 113.760396
 3419         hn    114    bbb    H19   3419 0.23982500   1.008000   ; qtot 114.000221
; residue  115 bbb rtp bbb q 1.0
 3420         n4    115    bbb     N1   3420 0.03726400  14.010000   ; qtot 114.037485
 3421         c3    115    bbb     C1   3421 -0.07020100  12.010000   ; qtot 113.967284
 3422         hx    115    bbb     H1   3422 0.12219000   1.008000   ; qtot 114.089474
 3423         hx    115    bbb     H2   3423 0.12219000   1.008000   ; qtot 114.211664
 3424         c3    115    bbb     C2   3424 -0.07020100  12.010000   ; qtot 114.141463
 3425         hx    115    bbb     H3   3425 0.12219000   1.008000   ; qtot 114.263653
 3426         hx    115    bbb     H4   3426 0.12219000   1.008000   ; qtot 114.385843
 3427         c3    115    bbb     C3   3427 -0.39007700  12.010000   ; qtot 113.995766
 3428         hx    115    bbb     H5   3428 0.14940300   1.008000   ; qtot 114.145169
 3429         hx    115    bbb     H6   3429 0.14940300   1.008000   ; qtot 114.294572
 3430         c3    115    bbb     C4   3430 0.18057300  12.010000   ; qtot 114.475145
 3431         hc    115    bbb     H7   3431 0.01788900   1.008000   ; qtot 114.493034
 3432         hc    115    bbb     H8   3432 0.01788900   1.008000   ; qtot 114.510923
 3433         c3    115    bbb     C5   3433 -0.11337700  12.010000   ; qtot 114.397546
 3434         hc    115    bbb     H9   3434 0.09515400   1.008000   ; qtot 114.492700
 3435         hc    115    bbb    H10   3435 0.09515400   1.008000   ; qtot 114.587854
 3436         c3    115    bbb     C6   3436 -0.11337700  12.010000   ; qtot 114.474477
 3437         hc    115    bbb    H11   3437 0.09515400   1.008000   ; qtot 114.569631
 3438         hc    115    bbb    H12   3438 0.09515400   1.008000   ; qtot 114.664785
 3439         c3    115    bbb     C7   3439 0.21842400  12.010000   ; qtot 114.883209
 3440         h1    115    bbb    H13   3440 0.04500300   1.008000   ; qtot 114.928212
 3441         h1    115    bbb    H14   3441 0.04500300   1.008000   ; qtot 114.973215
 3442         c3    115    bbb     C8   3442 -0.06455200  12.010000   ; qtot 114.908663
 3443         h1    115    bbb    H15   3443 0.13554100   1.008000   ; qtot 115.044204
 3444         h1    115    bbb    H16   3444 0.13554100   1.008000   ; qtot 115.179745
 3445         c3    115    bbb     C9   3445 -0.06455200  12.010000   ; qtot 115.115193
 3446         h1    115    bbb    H17   3446 0.13554100   1.008000   ; qtot 115.250734
 3447         h1    115    bbb    H18   3447 0.13554100   1.008000   ; qtot 115.386275
 3448         os    115    bbb     O1   3448 -0.62587700  16.000000   ; qtot 114.760398
 3449         hn    115    bbb    H19   3449 0.23982500   1.008000   ; qtot 115.000223
; residue  116 bbb rtp bbb q 1.0
 3450         n4    116    bbb     N1   3450 0.03726400  14.010000   ; qtot 115.037487
 3451         c3    116    bbb     C1   3451 -0.07020100  12.010000   ; qtot 114.967286
 3452         hx    116    bbb     H1   3452 0.12219000   1.008000   ; qtot 115.089476
 3453         hx    116    bbb     H2   3453 0.12219000   1.008000   ; qtot 115.211666
 3454         c3    116    bbb     C2   3454 -0.07020100  12.010000   ; qtot 115.141465
 3455         hx    116    bbb     H3   3455 0.12219000   1.008000   ; qtot 115.263655
 3456         hx    116    bbb     H4   3456 0.12219000   1.008000   ; qtot 115.385845
 3457         c3    116    bbb     C3   3457 -0.39007700  12.010000   ; qtot 114.995768
 3458         hx    116    bbb     H5   3458 0.14940300   1.008000   ; qtot 115.145171
 3459         hx    116    bbb     H6   3459 0.14940300   1.008000   ; qtot 115.294574
 3460         c3    116    bbb     C4   3460 0.18057300  12.010000   ; qtot 115.475147
 3461         hc    116    bbb     H7   3461 0.01788900   1.008000   ; qtot 115.493036
 3462         hc    116    bbb     H8   3462 0.01788900   1.008000   ; qtot 115.510925
 3463         c3    116    bbb     C5   3463 -0.11337700  12.010000   ; qtot 115.397548
 3464         hc    116    bbb     H9   3464 0.09515400   1.008000   ; qtot 115.492702
 3465         hc    116    bbb    H10   3465 0.09515400   1.008000   ; qtot 115.587856
 3466         c3    116    bbb     C6   3466 -0.11337700  12.010000   ; qtot 115.474479
 3467         hc    116    bbb    H11   3467 0.09515400   1.008000   ; qtot 115.569633
 3468         hc    116    bbb    H12   3468 0.09515400   1.008000   ; qtot 115.664787
 3469         c3    116    bbb     C7   3469 0.21842400  12.010000   ; qtot 115.883211
 3470         h1    116    bbb    H13   3470 0.04500300   1.008000   ; qtot 115.928214
 3471         h1    116    bbb    H14   3471 0.04500300   1.008000   ; qtot 115.973217
 3472         c3    116    bbb     C8   3472 -0.06455200  12.010000   ; qtot 115.908665
 3473         h1    116    bbb    H15   3473 0.13554100   1.008000   ; qtot 116.044206
 3474         h1    116    bbb    H16   3474 0.13554100   1.008000   ; qtot 116.179747
 3475         c3    116    bbb     C9   3475 -0.06455200  12.010000   ; qtot 116.115195
 3476         h1    116    bbb    H17   3476 0.13554100   1.008000   ; qtot 116.250736
 3477         h1    116    bbb    H18   3477 0.13554100   1.008000   ; qtot 116.386277
 3478         os    116    bbb     O1   3478 -0.62587700  16.000000   ; qtot 115.760400
 3479         hn    116    bbb    H19   3479 0.23982500   1.008000   ; qtot 116.000225
; residue  117 bbb rtp bbb q 1.0
 3480         n4    117    bbb     N1   3480 0.03726400  14.010000   ; qtot 116.037489
 3481         c3    117    bbb     C1   3481 -0.07020100  12.010000   ; qtot 115.967288
 3482         hx    117    bbb     H1   3482 0.12219000   1.008000   ; qtot 116.089478
 3483         hx    117    bbb     H2   3483 0.12219000   1.008000   ; qtot 116.211668
 3484         c3    117    bbb     C2   3484 -0.07020100  12.010000   ; qtot 116.141467
 3485         hx    117    bbb     H3   3485 0.12219000   1.008000   ; qtot 116.263657
 3486         hx    117    bbb     H4   3486 0.12219000   1.008000   ; qtot 116.385847
 3487         c3    117    bbb     C3   3487 -0.39007700  12.010000   ; qtot 115.995770
 3488         hx    117    bbb     H5   3488 0.14940300   1.008000   ; qtot 116.145173
 3489         hx    117    bbb     H6   3489 0.14940300   1.008000   ; qtot 116.294576
 3490         c3    117    bbb     C4   3490 0.18057300  12.010000   ; qtot 116.475149
 3491         hc    117    bbb     H7   3491 0.01788900   1.008000   ; qtot 116.493038
 3492         hc    117    bbb     H8   3492 0.01788900   1.008000   ; qtot 116.510927
 3493         c3    117    bbb     C5   3493 -0.11337700  12.010000   ; qtot 116.397550
 3494         hc    117    bbb     H9   3494 0.09515400   1.008000   ; qtot 116.492704
 3495         hc    117    bbb    H10   3495 0.09515400   1.008000   ; qtot 116.587858
 3496         c3    117    bbb     C6   3496 -0.11337700  12.010000   ; qtot 116.474481
 3497         hc    117    bbb    H11   3497 0.09515400   1.008000   ; qtot 116.569635
 3498         hc    117    bbb    H12   3498 0.09515400   1.008000   ; qtot 116.664789
 3499         c3    117    bbb     C7   3499 0.21842400  12.010000   ; qtot 116.883213
 3500         h1    117    bbb    H13   3500 0.04500300   1.008000   ; qtot 116.928216
 3501         h1    117    bbb    H14   3501 0.04500300   1.008000   ; qtot 116.973219
 3502         c3    117    bbb     C8   3502 -0.06455200  12.010000   ; qtot 116.908667
 3503         h1    117    bbb    H15   3503 0.13554100   1.008000   ; qtot 117.044208
 3504         h1    117    bbb    H16   3504 0.13554100   1.008000   ; qtot 117.179749
 3505         c3    117    bbb     C9   3505 -0.06455200  12.010000   ; qtot 117.115197
 3506         h1    117    bbb    H17   3506 0.13554100   1.008000   ; qtot 117.250738
 3507         h1    117    bbb    H18   3507 0.13554100   1.008000   ; qtot 117.386279
 3508         os    117    bbb     O1   3508 -0.62587700  16.000000   ; qtot 116.760402
 3509         hn    117    bbb    H19   3509 0.23982500   1.008000   ; qtot 117.000227
; residue  118 bbb rtp bbb q 1.0
 3510         n4    118    bbb     N1   3510 0.03726400  14.010000   ; qtot 117.037491
 3511         c3    118    bbb     C1   3511 -0.07020100  12.010000   ; qtot 116.967290
 3512         hx    118    bbb     H1   3512 0.12219000   1.008000   ; qtot 117.089480
 3513         hx    118    bbb     H2   3513 0.12219000   1.008000   ; qtot 117.211670
 3514         c3    118    bbb     C2   3514 -0.07020100  12.010000   ; qtot 117.141469
 3515         hx    118    bbb     H3   3515 0.12219000   1.008000   ; qtot 117.263659
 3516         hx    118    bbb     H4   3516 0.12219000   1.008000   ; qtot 117.385849
 3517         c3    118    bbb     C3   3517 -0.39007700  12.010000   ; qtot 116.995772
 3518         hx    118    bbb     H5   3518 0.14940300   1.008000   ; qtot 117.145175
 3519         hx    118    bbb     H6   3519 0.14940300   1.008000   ; qtot 117.294578
 3520         c3    118    bbb     C4   3520 0.18057300  12.010000   ; qtot 117.475151
 3521         hc    118    bbb     H7   3521 0.01788900   1.008000   ; qtot 117.493040
 3522         hc    118    bbb     H8   3522 0.01788900   1.008000   ; qtot 117.510929
 3523         c3    118    bbb     C5   3523 -0.11337700  12.010000   ; qtot 117.397552
 3524         hc    118    bbb     H9   3524 0.09515400   1.008000   ; qtot 117.492706
 3525         hc    118    bbb    H10   3525 0.09515400   1.008000   ; qtot 117.587860
 3526         c3    118    bbb     C6   3526 -0.11337700  12.010000   ; qtot 117.474483
 3527         hc    118    bbb    H11   3527 0.09515400   1.008000   ; qtot 117.569637
 3528         hc    118    bbb    H12   3528 0.09515400   1.008000   ; qtot 117.664791
 3529         c3    118    bbb     C7   3529 0.21842400  12.010000   ; qtot 117.883215
 3530         h1    118    bbb    H13   3530 0.04500300   1.008000   ; qtot 117.928218
 3531         h1    118    bbb    H14   3531 0.04500300   1.008000   ; qtot 117.973221
 3532         c3    118    bbb     C8   3532 -0.06455200  12.010000   ; qtot 117.908669
 3533         h1    118    bbb    H15   3533 0.13554100   1.008000   ; qtot 118.044210
 3534         h1    118    bbb    H16   3534 0.13554100   1.008000   ; qtot 118.179751
 3535         c3    118    bbb     C9   3535 -0.06455200  12.010000   ; qtot 118.115199
 3536         h1    118    bbb    H17   3536 0.13554100   1.008000   ; qtot 118.250740
 3537         h1    118    bbb    H18   3537 0.13554100   1.008000   ; qtot 118.386281
 3538         os    118    bbb     O1   3538 -0.62587700  16.000000   ; qtot 117.760404
 3539         hn    118    bbb    H19   3539 0.23982500   1.008000   ; qtot 118.000229
; residue  119 bbb rtp bbb q 1.0
 3540         n4    119    bbb     N1   3540 0.03726400  14.010000   ; qtot 118.037493
 3541         c3    119    bbb     C1   3541 -0.07020100  12.010000   ; qtot 117.967292
 3542         hx    119    bbb     H1   3542 0.12219000   1.008000   ; qtot 118.089482
 3543         hx    119    bbb     H2   3543 0.12219000   1.008000   ; qtot 118.211672
 3544         c3    119    bbb     C2   3544 -0.07020100  12.010000   ; qtot 118.141471
 3545         hx    119    bbb     H3   3545 0.12219000   1.008000   ; qtot 118.263661
 3546         hx    119    bbb     H4   3546 0.12219000   1.008000   ; qtot 118.385851
 3547         c3    119    bbb     C3   3547 -0.39007700  12.010000   ; qtot 117.995774
 3548         hx    119    bbb     H5   3548 0.14940300   1.008000   ; qtot 118.145177
 3549         hx    119    bbb     H6   3549 0.14940300   1.008000   ; qtot 118.294580
 3550         c3    119    bbb     C4   3550 0.18057300  12.010000   ; qtot 118.475153
 3551         hc    119    bbb     H7   3551 0.01788900   1.008000   ; qtot 118.493042
 3552         hc    119    bbb     H8   3552 0.01788900   1.008000   ; qtot 118.510931
 3553         c3    119    bbb     C5   3553 -0.11337700  12.010000   ; qtot 118.397554
 3554         hc    119    bbb     H9   3554 0.09515400   1.008000   ; qtot 118.492708
 3555         hc    119    bbb    H10   3555 0.09515400   1.008000   ; qtot 118.587862
 3556         c3    119    bbb     C6   3556 -0.11337700  12.010000   ; qtot 118.474485
 3557         hc    119    bbb    H11   3557 0.09515400   1.008000   ; qtot 118.569639
 3558         hc    119    bbb    H12   3558 0.09515400   1.008000   ; qtot 118.664793
 3559         c3    119    bbb     C7   3559 0.21842400  12.010000   ; qtot 118.883217
 3560         h1    119    bbb    H13   3560 0.04500300   1.008000   ; qtot 118.928220
 3561         h1    119    bbb    H14   3561 0.04500300   1.008000   ; qtot 118.973223
 3562         c3    119    bbb     C8   3562 -0.06455200  12.010000   ; qtot 118.908671
 3563         h1    119    bbb    H15   3563 0.13554100   1.008000   ; qtot 119.044212
 3564         h1    119    bbb    H16   3564 0.13554100   1.008000   ; qtot 119.179753
 3565         c3    119    bbb     C9   3565 -0.06455200  12.010000   ; qtot 119.115201
 3566         h1    119    bbb    H17   3566 0.13554100   1.008000   ; qtot 119.250742
 3567         h1    119    bbb    H18   3567 0.13554100   1.008000   ; qtot 119.386283
 3568         os    119    bbb     O1   3568 -0.62587700  16.000000   ; qtot 118.760406
 3569         hn    119    bbb    H19   3569 0.23982500   1.008000   ; qtot 119.000231
; residue  120 bbb rtp bbb q 1.0
 3570         n4    120    bbb     N1   3570 0.03726400  14.010000   ; qtot 119.037495
 3571         c3    120    bbb     C1   3571 -0.07020100  12.010000   ; qtot 118.967294
 3572         hx    120    bbb     H1   3572 0.12219000   1.008000   ; qtot 119.089484
 3573         hx    120    bbb     H2   3573 0.12219000   1.008000   ; qtot 119.211674
 3574         c3    120    bbb     C2   3574 -0.07020100  12.010000   ; qtot 119.141473
 3575         hx    120    bbb     H3   3575 0.12219000   1.008000   ; qtot 119.263663
 3576         hx    120    bbb     H4   3576 0.12219000   1.008000   ; qtot 119.385853
 3577         c3    120    bbb     C3   3577 -0.39007700  12.010000   ; qtot 118.995776
 3578         hx    120    bbb     H5   3578 0.14940300   1.008000   ; qtot 119.145179
 3579         hx    120    bbb     H6   3579 0.14940300   1.008000   ; qtot 119.294582
 3580         c3    120    bbb     C4   3580 0.18057300  12.010000   ; qtot 119.475155
 3581         hc    120    bbb     H7   3581 0.01788900   1.008000   ; qtot 119.493044
 3582         hc    120    bbb     H8   3582 0.01788900   1.008000   ; qtot 119.510933
 3583         c3    120    bbb     C5   3583 -0.11337700  12.010000   ; qtot 119.397556
 3584         hc    120    bbb     H9   3584 0.09515400   1.008000   ; qtot 119.492710
 3585         hc    120    bbb    H10   3585 0.09515400   1.008000   ; qtot 119.587864
 3586         c3    120    bbb     C6   3586 -0.11337700  12.010000   ; qtot 119.474487
 3587         hc    120    bbb    H11   3587 0.09515400   1.008000   ; qtot 119.569641
 3588         hc    120    bbb    H12   3588 0.09515400   1.008000   ; qtot 119.664795
 3589         c3    120    bbb     C7   3589 0.21842400  12.010000   ; qtot 119.883219
 3590         h1    120    bbb    H13   3590 0.04500300   1.008000   ; qtot 119.928222
 3591         h1    120    bbb    H14   3591 0.04500300   1.008000   ; qtot 119.973225
 3592         c3    120    bbb     C8   3592 -0.06455200  12.010000   ; qtot 119.908673
 3593         h1    120    bbb    H15   3593 0.13554100   1.008000   ; qtot 120.044214
 3594         h1    120    bbb    H16   3594 0.13554100   1.008000   ; qtot 120.179755
 3595         c3    120    bbb     C9   3595 -0.06455200  12.010000   ; qtot 120.115203
 3596         h1    120    bbb    H17   3596 0.13554100   1.008000   ; qtot 120.250744
 3597         h1    120    bbb    H18   3597 0.13554100   1.008000   ; qtot 120.386285
 3598         os    120    bbb     O1   3598 -0.62587700  16.000000   ; qtot 119.760408
 3599         hn    120    bbb    H19   3599 0.23982500   1.008000   ; qtot 120.000233
; residue  121 bbb rtp bbb q 1.0
 3600         n4    121    bbb     N1   3600 0.03726400  14.010000   ; qtot 120.037497
 3601         c3    121    bbb     C1   3601 -0.07020100  12.010000   ; qtot 119.967296
 3602         hx    121    bbb     H1   3602 0.12219000   1.008000   ; qtot 120.089486
 3603         hx    121    bbb     H2   3603 0.12219000   1.008000   ; qtot 120.211676
 3604         c3    121    bbb     C2   3604 -0.07020100  12.010000   ; qtot 120.141475
 3605         hx    121    bbb     H3   3605 0.12219000   1.008000   ; qtot 120.263665
 3606         hx    121    bbb     H4   3606 0.12219000   1.008000   ; qtot 120.385855
 3607         c3    121    bbb     C3   3607 -0.39007700  12.010000   ; qtot 119.995778
 3608         hx    121    bbb     H5   3608 0.14940300   1.008000   ; qtot 120.145181
 3609         hx    121    bbb     H6   3609 0.14940300   1.008000   ; qtot 120.294584
 3610         c3    121    bbb     C4   3610 0.18057300  12.010000   ; qtot 120.475157
 3611         hc    121    bbb     H7   3611 0.01788900   1.008000   ; qtot 120.493046
 3612         hc    121    bbb     H8   3612 0.01788900   1.008000   ; qtot 120.510935
 3613         c3    121    bbb     C5   3613 -0.11337700  12.010000   ; qtot 120.397558
 3614         hc    121    bbb     H9   3614 0.09515400   1.008000   ; qtot 120.492712
 3615         hc    121    bbb    H10   3615 0.09515400   1.008000   ; qtot 120.587866
 3616         c3    121    bbb     C6   3616 -0.11337700  12.010000   ; qtot 120.474489
 3617         hc    121    bbb    H11   3617 0.09515400   1.008000   ; qtot 120.569643
 3618         hc    121    bbb    H12   3618 0.09515400   1.008000   ; qtot 120.664797
 3619         c3    121    bbb     C7   3619 0.21842400  12.010000   ; qtot 120.883221
 3620         h1    121    bbb    H13   3620 0.04500300   1.008000   ; qtot 120.928224
 3621         h1    121    bbb    H14   3621 0.04500300   1.008000   ; qtot 120.973227
 3622         c3    121    bbb     C8   3622 -0.06455200  12.010000   ; qtot 120.908675
 3623         h1    121    bbb    H15   3623 0.13554100   1.008000   ; qtot 121.044216
 3624         h1    121    bbb    H16   3624 0.13554100   1.008000   ; qtot 121.179757
 3625         c3    121    bbb     C9   3625 -0.06455200  12.010000   ; qtot 121.115205
 3626         h1    121    bbb    H17   3626 0.13554100   1.008000   ; qtot 121.250746
 3627         h1    121    bbb    H18   3627 0.13554100   1.008000   ; qtot 121.386287
 3628         os    121    bbb     O1   3628 -0.62587700  16.000000   ; qtot 120.760410
 3629         hn    121    bbb    H19   3629 0.23982500   1.008000   ; qtot 121.000235
; residue  122 bbb rtp bbb q 1.0
 3630         n4    122    bbb     N1   3630 0.03726400  14.010000   ; qtot 121.037499
 3631         c3    122    bbb     C1   3631 -0.07020100  12.010000   ; qtot 120.967298
 3632         hx    122    bbb     H1   3632 0.12219000   1.008000   ; qtot 121.089488
 3633         hx    122    bbb     H2   3633 0.12219000   1.008000   ; qtot 121.211678
 3634         c3    122    bbb     C2   3634 -0.07020100  12.010000   ; qtot 121.141477
 3635         hx    122    bbb     H3   3635 0.12219000   1.008000   ; qtot 121.263667
 3636         hx    122    bbb     H4   3636 0.12219000   1.008000   ; qtot 121.385857
 3637         c3    122    bbb     C3   3637 -0.39007700  12.010000   ; qtot 120.995780
 3638         hx    122    bbb     H5   3638 0.14940300   1.008000   ; qtot 121.145183
 3639         hx    122    bbb     H6   3639 0.14940300   1.008000   ; qtot 121.294586
 3640         c3    122    bbb     C4   3640 0.18057300  12.010000   ; qtot 121.475159
 3641         hc    122    bbb     H7   3641 0.01788900   1.008000   ; qtot 121.493048
 3642         hc    122    bbb     H8   3642 0.01788900   1.008000   ; qtot 121.510937
 3643         c3    122    bbb     C5   3643 -0.11337700  12.010000   ; qtot 121.397560
 3644         hc    122    bbb     H9   3644 0.09515400   1.008000   ; qtot 121.492714
 3645         hc    122    bbb    H10   3645 0.09515400   1.008000   ; qtot 121.587868
 3646         c3    122    bbb     C6   3646 -0.11337700  12.010000   ; qtot 121.474491
 3647         hc    122    bbb    H11   3647 0.09515400   1.008000   ; qtot 121.569645
 3648         hc    122    bbb    H12   3648 0.09515400   1.008000   ; qtot 121.664799
 3649         c3    122    bbb     C7   3649 0.21842400  12.010000   ; qtot 121.883223
 3650         h1    122    bbb    H13   3650 0.04500300   1.008000   ; qtot 121.928226
 3651         h1    122    bbb    H14   3651 0.04500300   1.008000   ; qtot 121.973229
 3652         c3    122    bbb     C8   3652 -0.06455200  12.010000   ; qtot 121.908677
 3653         h1    122    bbb    H15   3653 0.13554100   1.008000   ; qtot 122.044218
 3654         h1    122    bbb    H16   3654 0.13554100   1.008000   ; qtot 122.179759
 3655         c3    122    bbb     C9   3655 -0.06455200  12.010000   ; qtot 122.115207
 3656         h1    122    bbb    H17   3656 0.13554100   1.008000   ; qtot 122.250748
 3657         h1    122    bbb    H18   3657 0.13554100   1.008000   ; qtot 122.386289
 3658         os    122    bbb     O1   3658 -0.62587700  16.000000   ; qtot 121.760412
 3659         hn    122    bbb    H19   3659 0.23982500   1.008000   ; qtot 122.000237
; residue  123 bbb rtp bbb q 1.0
 3660         n4    123    bbb     N1   3660 0.03726400  14.010000   ; qtot 122.037501
 3661         c3    123    bbb     C1   3661 -0.07020100  12.010000   ; qtot 121.967300
 3662         hx    123    bbb     H1   3662 0.12219000   1.008000   ; qtot 122.089490
 3663         hx    123    bbb     H2   3663 0.12219000   1.008000   ; qtot 122.211680
 3664         c3    123    bbb     C2   3664 -0.07020100  12.010000   ; qtot 122.141479
 3665         hx    123    bbb     H3   3665 0.12219000   1.008000   ; qtot 122.263669
 3666         hx    123    bbb     H4   3666 0.12219000   1.008000   ; qtot 122.385859
 3667         c3    123    bbb     C3   3667 -0.39007700  12.010000   ; qtot 121.995782
 3668         hx    123    bbb     H5   3668 0.14940300   1.008000   ; qtot 122.145185
 3669         hx    123    bbb     H6   3669 0.14940300   1.008000   ; qtot 122.294588
 3670         c3    123    bbb     C4   3670 0.18057300  12.010000   ; qtot 122.475161
 3671         hc    123    bbb     H7   3671 0.01788900   1.008000   ; qtot 122.493050
 3672         hc    123    bbb     H8   3672 0.01788900   1.008000   ; qtot 122.510939
 3673         c3    123    bbb     C5   3673 -0.11337700  12.010000   ; qtot 122.397562
 3674         hc    123    bbb     H9   3674 0.09515400   1.008000   ; qtot 122.492716
 3675         hc    123    bbb    H10   3675 0.09515400   1.008000   ; qtot 122.587870
 3676         c3    123    bbb     C6   3676 -0.11337700  12.010000   ; qtot 122.474493
 3677         hc    123    bbb    H11   3677 0.09515400   1.008000   ; qtot 122.569647
 3678         hc    123    bbb    H12   3678 0.09515400   1.008000   ; qtot 122.664801
 3679         c3    123    bbb     C7   3679 0.21842400  12.010000   ; qtot 122.883225
 3680         h1    123    bbb    H13   3680 0.04500300   1.008000   ; qtot 122.928228
 3681         h1    123    bbb    H14   3681 0.04500300   1.008000   ; qtot 122.973231
 3682         c3    123    bbb     C8   3682 -0.06455200  12.010000   ; qtot 122.908679
 3683         h1    123    bbb    H15   3683 0.13554100   1.008000   ; qtot 123.044220
 3684         h1    123    bbb    H16   3684 0.13554100   1.008000   ; qtot 123.179761
 3685         c3    123    bbb     C9   3685 -0.06455200  12.010000   ; qtot 123.115209
 3686         h1    123    bbb    H17   3686 0.13554100   1.008000   ; qtot 123.250750
 3687         h1    123    bbb    H18   3687 0.13554100   1.008000   ; qtot 123.386291
 3688         os    123    bbb     O1   3688 -0.62587700  16.000000   ; qtot 122.760414
 3689         hn    123    bbb    H19   3689 0.23982500   1.008000   ; qtot 123.000239
; residue  124 bbb rtp bbb q 1.0
 3690         n4    124    bbb     N1   3690 0.03726400  14.010000   ; qtot 123.037503
 3691         c3    124    bbb     C1   3691 -0.07020100  12.010000   ; qtot 122.967302
 3692         hx    124    bbb     H1   3692 0.12219000   1.008000   ; qtot 123.089492
 3693         hx    124    bbb     H2   3693 0.12219000   1.008000   ; qtot 123.211682
 3694         c3    124    bbb     C2   3694 -0.07020100  12.010000   ; qtot 123.141481
 3695         hx    124    bbb     H3   3695 0.12219000   1.008000   ; qtot 123.263671
 3696         hx    124    bbb     H4   3696 0.12219000   1.008000   ; qtot 123.385861
 3697         c3    124    bbb     C3   3697 -0.39007700  12.010000   ; qtot 122.995784
 3698         hx    124    bbb     H5   3698 0.14940300   1.008000   ; qtot 123.145187
 3699         hx    124    bbb     H6   3699 0.14940300   1.008000   ; qtot 123.294590
 3700         c3    124    bbb     C4   3700 0.18057300  12.010000   ; qtot 123.475163
 3701         hc    124    bbb     H7   3701 0.01788900   1.008000   ; qtot 123.493052
 3702         hc    124    bbb     H8   3702 0.01788900   1.008000   ; qtot 123.510941
 3703         c3    124    bbb     C5   3703 -0.11337700  12.010000   ; qtot 123.397564
 3704         hc    124    bbb     H9   3704 0.09515400   1.008000   ; qtot 123.492718
 3705         hc    124    bbb    H10   3705 0.09515400   1.008000   ; qtot 123.587872
 3706         c3    124    bbb     C6   3706 -0.11337700  12.010000   ; qtot 123.474495
 3707         hc    124    bbb    H11   3707 0.09515400   1.008000   ; qtot 123.569649
 3708         hc    124    bbb    H12   3708 0.09515400   1.008000   ; qtot 123.664803
 3709         c3    124    bbb     C7   3709 0.21842400  12.010000   ; qtot 123.883227
 3710         h1    124    bbb    H13   3710 0.04500300   1.008000   ; qtot 123.928230
 3711         h1    124    bbb    H14   3711 0.04500300   1.008000   ; qtot 123.973233
 3712         c3    124    bbb     C8   3712 -0.06455200  12.010000   ; qtot 123.908681
 3713         h1    124    bbb    H15   3713 0.13554100   1.008000   ; qtot 124.044222
 3714         h1    124    bbb    H16   3714 0.13554100   1.008000   ; qtot 124.179763
 3715         c3    124    bbb     C9   3715 -0.06455200  12.010000   ; qtot 124.115211
 3716         h1    124    bbb    H17   3716 0.13554100   1.008000   ; qtot 124.250752
 3717         h1    124    bbb    H18   3717 0.13554100   1.008000   ; qtot 124.386293
 3718         os    124    bbb     O1   3718 -0.62587700  16.000000   ; qtot 123.760416
 3719         hn    124    bbb    H19   3719 0.23982500   1.008000   ; qtot 124.000241
; residue  125 bbb rtp bbb q 1.0
 3720         n4    125    bbb     N1   3720 0.03726400  14.010000   ; qtot 124.037505
 3721         c3    125    bbb     C1   3721 -0.07020100  12.010000   ; qtot 123.967304
 3722         hx    125    bbb     H1   3722 0.12219000   1.008000   ; qtot 124.089494
 3723         hx    125    bbb     H2   3723 0.12219000   1.008000   ; qtot 124.211684
 3724         c3    125    bbb     C2   3724 -0.07020100  12.010000   ; qtot 124.141483
 3725         hx    125    bbb     H3   3725 0.12219000   1.008000   ; qtot 124.263673
 3726         hx    125    bbb     H4   3726 0.12219000   1.008000   ; qtot 124.385863
 3727         c3    125    bbb     C3   3727 -0.39007700  12.010000   ; qtot 123.995786
 3728         hx    125    bbb     H5   3728 0.14940300   1.008000   ; qtot 124.145189
 3729         hx    125    bbb     H6   3729 0.14940300   1.008000   ; qtot 124.294592
 3730         c3    125    bbb     C4   3730 0.18057300  12.010000   ; qtot 124.475165
 3731         hc    125    bbb     H7   3731 0.01788900   1.008000   ; qtot 124.493054
 3732         hc    125    bbb     H8   3732 0.01788900   1.008000   ; qtot 124.510943
 3733         c3    125    bbb     C5   3733 -0.11337700  12.010000   ; qtot 124.397566
 3734         hc    125    bbb     H9   3734 0.09515400   1.008000   ; qtot 124.492720
 3735         hc    125    bbb    H10   3735 0.09515400   1.008000   ; qtot 124.587874
 3736         c3    125    bbb     C6   3736 -0.11337700  12.010000   ; qtot 124.474497
 3737         hc    125    bbb    H11   3737 0.09515400   1.008000   ; qtot 124.569651
 3738         hc    125    bbb    H12   3738 0.09515400   1.008000   ; qtot 124.664805
 3739         c3    125    bbb     C7   3739 0.21842400  12.010000   ; qtot 124.883229
 3740         h1    125    bbb    H13   3740 0.04500300   1.008000   ; qtot 124.928232
 3741         h1    125    bbb    H14   3741 0.04500300   1.008000   ; qtot 124.973235
 3742         c3    125    bbb     C8   3742 -0.06455200  12.010000   ; qtot 124.908683
 3743         h1    125    bbb    H15   3743 0.13554100   1.008000   ; qtot 125.044224
 3744         h1    125    bbb    H16   3744 0.13554100   1.008000   ; qtot 125.179765
 3745         c3    125    bbb     C9   3745 -0.06455200  12.010000   ; qtot 125.115213
 3746         h1    125    bbb    H17   3746 0.13554100   1.008000   ; qtot 125.250754
 3747         h1    125    bbb    H18   3747 0.13554100   1.008000   ; qtot 125.386295
 3748         os    125    bbb     O1   3748 -0.62587700  16.000000   ; qtot 124.760418
 3749         hn    125    bbb    H19   3749 0.23982500   1.008000   ; qtot 125.000243
; residue  126 bbb rtp bbb q 1.0
 3750         n4    126    bbb     N1   3750 0.03726400  14.010000   ; qtot 125.037507
 3751         c3    126    bbb     C1   3751 -0.07020100  12.010000   ; qtot 124.967306
 3752         hx    126    bbb     H1   3752 0.12219000   1.008000   ; qtot 125.089496
 3753         hx    126    bbb     H2   3753 0.12219000   1.008000   ; qtot 125.211686
 3754         c3    126    bbb     C2   3754 -0.07020100  12.010000   ; qtot 125.141485
 3755         hx    126    bbb     H3   3755 0.12219000   1.008000   ; qtot 125.263675
 3756         hx    126    bbb     H4   3756 0.12219000   1.008000   ; qtot 125.385865
 3757         c3    126    bbb     C3   3757 -0.39007700  12.010000   ; qtot 124.995788
 3758         hx    126    bbb     H5   3758 0.14940300   1.008000   ; qtot 125.145191
 3759         hx    126    bbb     H6   3759 0.14940300   1.008000   ; qtot 125.294594
 3760         c3    126    bbb     C4   3760 0.18057300  12.010000   ; qtot 125.475167
 3761         hc    126    bbb     H7   3761 0.01788900   1.008000   ; qtot 125.493056
 3762         hc    126    bbb     H8   3762 0.01788900   1.008000   ; qtot 125.510945
 3763         c3    126    bbb     C5   3763 -0.11337700  12.010000   ; qtot 125.397568
 3764         hc    126    bbb     H9   3764 0.09515400   1.008000   ; qtot 125.492722
 3765         hc    126    bbb    H10   3765 0.09515400   1.008000   ; qtot 125.587876
 3766         c3    126    bbb     C6   3766 -0.11337700  12.010000   ; qtot 125.474499
 3767         hc    126    bbb    H11   3767 0.09515400   1.008000   ; qtot 125.569653
 3768         hc    126    bbb    H12   3768 0.09515400   1.008000   ; qtot 125.664807
 3769         c3    126    bbb     C7   3769 0.21842400  12.010000   ; qtot 125.883231
 3770         h1    126    bbb    H13   3770 0.04500300   1.008000   ; qtot 125.928234
 3771         h1    126    bbb    H14   3771 0.04500300   1.008000   ; qtot 125.973237
 3772         c3    126    bbb     C8   3772 -0.06455200  12.010000   ; qtot 125.908685
 3773         h1    126    bbb    H15   3773 0.13554100   1.008000   ; qtot 126.044226
 3774         h1    126    bbb    H16   3774 0.13554100   1.008000   ; qtot 126.179767
 3775         c3    126    bbb     C9   3775 -0.06455200  12.010000   ; qtot 126.115215
 3776         h1    126    bbb    H17   3776 0.13554100   1.008000   ; qtot 126.250756
 3777         h1    126    bbb    H18   3777 0.13554100   1.008000   ; qtot 126.386297
 3778         os    126    bbb     O1   3778 -0.62587700  16.000000   ; qtot 125.760420
 3779         hn    126    bbb    H19   3779 0.23982500   1.008000   ; qtot 126.000245
; residue  127 bbb rtp bbb q 1.0
 3780         n4    127    bbb     N1   3780 0.03726400  14.010000   ; qtot 126.037509
 3781         c3    127    bbb     C1   3781 -0.07020100  12.010000   ; qtot 125.967308
 3782         hx    127    bbb     H1   3782 0.12219000   1.008000   ; qtot 126.089498
 3783         hx    127    bbb     H2   3783 0.12219000   1.008000   ; qtot 126.211688
 3784         c3    127    bbb     C2   3784 -0.07020100  12.010000   ; qtot 126.141487
 3785         hx    127    bbb     H3   3785 0.12219000   1.008000   ; qtot 126.263677
 3786         hx    127    bbb     H4   3786 0.12219000   1.008000   ; qtot 126.385867
 3787         c3    127    bbb     C3   3787 -0.39007700  12.010000   ; qtot 125.995790
 3788         hx    127    bbb     H5   3788 0.14940300   1.008000   ; qtot 126.145193
 3789         hx    127    bbb     H6   3789 0.14940300   1.008000   ; qtot 126.294596
 3790         c3    127    bbb     C4   3790 0.18057300  12.010000   ; qtot 126.475169
 3791         hc    127    bbb     H7   3791 0.01788900   1.008000   ; qtot 126.493058
 3792         hc    127    bbb     H8   3792 0.01788900   1.008000   ; qtot 126.510947
 3793         c3    127    bbb     C5   3793 -0.11337700  12.010000   ; qtot 126.397570
 3794         hc    127    bbb     H9   3794 0.09515400   1.008000   ; qtot 126.492724
 3795         hc    127    bbb    H10   3795 0.09515400   1.008000   ; qtot 126.587878
 3796         c3    127    bbb     C6   3796 -0.11337700  12.010000   ; qtot 126.474501
 3797         hc    127    bbb    H11   3797 0.09515400   1.008000   ; qtot 126.569655
 3798         hc    127    bbb    H12   3798 0.09515400   1.008000   ; qtot 126.664809
 3799         c3    127    bbb     C7   3799 0.21842400  12.010000   ; qtot 126.883233
 3800         h1    127    bbb    H13   3800 0.04500300   1.008000   ; qtot 126.928236
 3801         h1    127    bbb    H14   3801 0.04500300   1.008000   ; qtot 126.973239
 3802         c3    127    bbb     C8   3802 -0.06455200  12.010000   ; qtot 126.908687
 3803         h1    127    bbb    H15   3803 0.13554100   1.008000   ; qtot 127.044228
 3804         h1    127    bbb    H16   3804 0.13554100   1.008000   ; qtot 127.179769
 3805         c3    127    bbb     C9   3805 -0.06455200  12.010000   ; qtot 127.115217
 3806         h1    127    bbb    H17   3806 0.13554100   1.008000   ; qtot 127.250758
 3807         h1    127    bbb    H18   3807 0.13554100   1.008000   ; qtot 127.386299
 3808         os    127    bbb     O1   3808 -0.62587700  16.000000   ; qtot 126.760422
 3809         hn    127    bbb    H19   3809 0.23982500   1.008000   ; qtot 127.000247
; residue  128 bbb rtp bbb q 1.0
 3810         n4    128    bbb     N1   3810 0.03726400  14.010000   ; qtot 127.037511
 3811         c3    128    bbb     C1   3811 -0.07020100  12.010000   ; qtot 126.967310
 3812         hx    128    bbb     H1   3812 0.12219000   1.008000   ; qtot 127.089500
 3813         hx    128    bbb     H2   3813 0.12219000   1.008000   ; qtot 127.211690
 3814         c3    128    bbb     C2   3814 -0.07020100  12.010000   ; qtot 127.141489
 3815         hx    128    bbb     H3   3815 0.12219000   1.008000   ; qtot 127.263679
 3816         hx    128    bbb     H4   3816 0.12219000   1.008000   ; qtot 127.385869
 3817         c3    128    bbb     C3   3817 -0.39007700  12.010000   ; qtot 126.995792
 3818         hx    128    bbb     H5   3818 0.14940300   1.008000   ; qtot 127.145195
 3819         hx    128    bbb     H6   3819 0.14940300   1.008000   ; qtot 127.294598
 3820         c3    128    bbb     C4   3820 0.18057300  12.010000   ; qtot 127.475171
 3821         hc    128    bbb     H7   3821 0.01788900   1.008000   ; qtot 127.493060
 3822         hc    128    bbb     H8   3822 0.01788900   1.008000   ; qtot 127.510949
 3823         c3    128    bbb     C5   3823 -0.11337700  12.010000   ; qtot 127.397572
 3824         hc    128    bbb     H9   3824 0.09515400   1.008000   ; qtot 127.492726
 3825         hc    128    bbb    H10   3825 0.09515400   1.008000   ; qtot 127.587880
 3826         c3    128    bbb     C6   3826 -0.11337700  12.010000   ; qtot 127.474503
 3827         hc    128    bbb    H11   3827 0.09515400   1.008000   ; qtot 127.569657
 3828         hc    128    bbb    H12   3828 0.09515400   1.008000   ; qtot 127.664811
 3829         c3    128    bbb     C7   3829 0.21842400  12.010000   ; qtot 127.883235
 3830         h1    128    bbb    H13   3830 0.04500300   1.008000   ; qtot 127.928238
 3831         h1    128    bbb    H14   3831 0.04500300   1.008000   ; qtot 127.973241
 3832         c3    128    bbb     C8   3832 -0.06455200  12.010000   ; qtot 127.908689
 3833         h1    128    bbb    H15   3833 0.13554100   1.008000   ; qtot 128.044230
 3834         h1    128    bbb    H16   3834 0.13554100   1.008000   ; qtot 128.179771
 3835         c3    128    bbb     C9   3835 -0.06455200  12.010000   ; qtot 128.115219
 3836         h1    128    bbb    H17   3836 0.13554100   1.008000   ; qtot 128.250760
 3837         h1    128    bbb    H18   3837 0.13554100   1.008000   ; qtot 128.386301
 3838         os    128    bbb     O1   3838 -0.62587700  16.000000   ; qtot 127.760424
 3839         hn    128    bbb    H19   3839 0.23982500   1.008000   ; qtot 128.000249
; residue  129 bbb rtp bbb q 1.0
 3840         n4    129    bbb     N1   3840 0.03726400  14.010000   ; qtot 128.037513
 3841         c3    129    bbb     C1   3841 -0.07020100  12.010000   ; qtot 127.967312
 3842         hx    129    bbb     H1   3842 0.12219000   1.008000   ; qtot 128.089502
 3843         hx    129    bbb     H2   3843 0.12219000   1.008000   ; qtot 128.211692
 3844         c3    129    bbb     C2   3844 -0.07020100  12.010000   ; qtot 128.141491
 3845         hx    129    bbb     H3   3845 0.12219000   1.008000   ; qtot 128.263681
 3846         hx    129    bbb     H4   3846 0.12219000   1.008000   ; qtot 128.385871
 3847         c3    129    bbb     C3   3847 -0.39007700  12.010000   ; qtot 127.995794
 3848         hx    129    bbb     H5   3848 0.14940300   1.008000   ; qtot 128.145197
 3849         hx    129    bbb     H6   3849 0.14940300   1.008000   ; qtot 128.294600
 3850         c3    129    bbb     C4   3850 0.18057300  12.010000   ; qtot 128.475173
 3851         hc    129    bbb     H7   3851 0.01788900   1.008000   ; qtot 128.493062
 3852         hc    129    bbb     H8   3852 0.01788900   1.008000   ; qtot 128.510951
 3853         c3    129    bbb     C5   3853 -0.11337700  12.010000   ; qtot 128.397574
 3854         hc    129    bbb     H9   3854 0.09515400   1.008000   ; qtot 128.492728
 3855         hc    129    bbb    H10   3855 0.09515400   1.008000   ; qtot 128.587882
 3856         c3    129    bbb     C6   3856 -0.11337700  12.010000   ; qtot 128.474505
 3857         hc    129    bbb    H11   3857 0.09515400   1.008000   ; qtot 128.569659
 3858         hc    129    bbb    H12   3858 0.09515400   1.008000   ; qtot 128.664813
 3859         c3    129    bbb     C7   3859 0.21842400  12.010000   ; qtot 128.883237
 3860         h1    129    bbb    H13   3860 0.04500300   1.008000   ; qtot 128.928240
 3861         h1    129    bbb    H14   3861 0.04500300   1.008000   ; qtot 128.973243
 3862         c3    129    bbb     C8   3862 -0.06455200  12.010000   ; qtot 128.908691
 3863         h1    129    bbb    H15   3863 0.13554100   1.008000   ; qtot 129.044232
 3864         h1    129    bbb    H16   3864 0.13554100   1.008000   ; qtot 129.179773
 3865         c3    129    bbb     C9   3865 -0.06455200  12.010000   ; qtot 129.115221
 3866         h1    129    bbb    H17   3866 0.13554100   1.008000   ; qtot 129.250762
 3867         h1    129    bbb    H18   3867 0.13554100   1.008000   ; qtot 129.386303
 3868         os    129    bbb     O1   3868 -0.62587700  16.000000   ; qtot 128.760426
 3869         hn    129    bbb    H19   3869 0.23982500   1.008000   ; qtot 129.000251
; residue  130 bbb rtp bbb q 1.0
 3870         n4    130    bbb     N1   3870 0.03726400  14.010000   ; qtot 129.037515
 3871         c3    130    bbb     C1   3871 -0.07020100  12.010000   ; qtot 128.967314
 3872         hx    130    bbb     H1   3872 0.12219000   1.008000   ; qtot 129.089504
 3873         hx    130    bbb     H2   3873 0.12219000   1.008000   ; qtot 129.211694
 3874         c3    130    bbb     C2   3874 -0.07020100  12.010000   ; qtot 129.141493
 3875         hx    130    bbb     H3   3875 0.12219000   1.008000   ; qtot 129.263683
 3876         hx    130    bbb     H4   3876 0.12219000   1.008000   ; qtot 129.385873
 3877         c3    130    bbb     C3   3877 -0.39007700  12.010000   ; qtot 128.995796
 3878         hx    130    bbb     H5   3878 0.14940300   1.008000   ; qtot 129.145199
 3879         hx    130    bbb     H6   3879 0.14940300   1.008000   ; qtot 129.294602
 3880         c3    130    bbb     C4   3880 0.18057300  12.010000   ; qtot 129.475175
 3881         hc    130    bbb     H7   3881 0.01788900   1.008000   ; qtot 129.493064
 3882         hc    130    bbb     H8   3882 0.01788900   1.008000   ; qtot 129.510953
 3883         c3    130    bbb     C5   3883 -0.11337700  12.010000   ; qtot 129.397576
 3884         hc    130    bbb     H9   3884 0.09515400   1.008000   ; qtot 129.492730
 3885         hc    130    bbb    H10   3885 0.09515400   1.008000   ; qtot 129.587884
 3886         c3    130    bbb     C6   3886 -0.11337700  12.010000   ; qtot 129.474507
 3887         hc    130    bbb    H11   3887 0.09515400   1.008000   ; qtot 129.569661
 3888         hc    130    bbb    H12   3888 0.09515400   1.008000   ; qtot 129.664815
 3889         c3    130    bbb     C7   3889 0.21842400  12.010000   ; qtot 129.883239
 3890         h1    130    bbb    H13   3890 0.04500300   1.008000   ; qtot 129.928242
 3891         h1    130    bbb    H14   3891 0.04500300   1.008000   ; qtot 129.973245
 3892         c3    130    bbb     C8   3892 -0.06455200  12.010000   ; qtot 129.908693
 3893         h1    130    bbb    H15   3893 0.13554100   1.008000   ; qtot 130.044234
 3894         h1    130    bbb    H16   3894 0.13554100   1.008000   ; qtot 130.179775
 3895         c3    130    bbb     C9   3895 -0.06455200  12.010000   ; qtot 130.115223
 3896         h1    130    bbb    H17   3896 0.13554100   1.008000   ; qtot 130.250764
 3897         h1    130    bbb    H18   3897 0.13554100   1.008000   ; qtot 130.386305
 3898         os    130    bbb     O1   3898 -0.62587700  16.000000   ; qtot 129.760428
 3899         hn    130    bbb    H19   3899 0.23982500   1.008000   ; qtot 130.000253
; residue  131 bbb rtp bbb q 1.0
 3900         n4    131    bbb     N1   3900 0.03726400  14.010000   ; qtot 130.037517
 3901         c3    131    bbb     C1   3901 -0.07020100  12.010000   ; qtot 129.967316
 3902         hx    131    bbb     H1   3902 0.12219000   1.008000   ; qtot 130.089506
 3903         hx    131    bbb     H2   3903 0.12219000   1.008000   ; qtot 130.211696
 3904         c3    131    bbb     C2   3904 -0.07020100  12.010000   ; qtot 130.141495
 3905         hx    131    bbb     H3   3905 0.12219000   1.008000   ; qtot 130.263685
 3906         hx    131    bbb     H4   3906 0.12219000   1.008000   ; qtot 130.385875
 3907         c3    131    bbb     C3   3907 -0.39007700  12.010000   ; qtot 129.995798
 3908         hx    131    bbb     H5   3908 0.14940300   1.008000   ; qtot 130.145201
 3909         hx    131    bbb     H6   3909 0.14940300   1.008000   ; qtot 130.294604
 3910         c3    131    bbb     C4   3910 0.18057300  12.010000   ; qtot 130.475177
 3911         hc    131    bbb     H7   3911 0.01788900   1.008000   ; qtot 130.493066
 3912         hc    131    bbb     H8   3912 0.01788900   1.008000   ; qtot 130.510955
 3913         c3    131    bbb     C5   3913 -0.11337700  12.010000   ; qtot 130.397578
 3914         hc    131    bbb     H9   3914 0.09515400   1.008000   ; qtot 130.492732
 3915         hc    131    bbb    H10   3915 0.09515400   1.008000   ; qtot 130.587886
 3916         c3    131    bbb     C6   3916 -0.11337700  12.010000   ; qtot 130.474509
 3917         hc    131    bbb    H11   3917 0.09515400   1.008000   ; qtot 130.569663
 3918         hc    131    bbb    H12   3918 0.09515400   1.008000   ; qtot 130.664817
 3919         c3    131    bbb     C7   3919 0.21842400  12.010000   ; qtot 130.883241
 3920         h1    131    bbb    H13   3920 0.04500300   1.008000   ; qtot 130.928244
 3921         h1    131    bbb    H14   3921 0.04500300   1.008000   ; qtot 130.973247
 3922         c3    131    bbb     C8   3922 -0.06455200  12.010000   ; qtot 130.908695
 3923         h1    131    bbb    H15   3923 0.13554100   1.008000   ; qtot 131.044236
 3924         h1    131    bbb    H16   3924 0.13554100   1.008000   ; qtot 131.179777
 3925         c3    131    bbb     C9   3925 -0.06455200  12.010000   ; qtot 131.115225
 3926         h1    131    bbb    H17   3926 0.13554100   1.008000   ; qtot 131.250766
 3927         h1    131    bbb    H18   3927 0.13554100   1.008000   ; qtot 131.386307
 3928         os    131    bbb     O1   3928 -0.62587700  16.000000   ; qtot 130.760430
 3929         hn    131    bbb    H19   3929 0.23982500   1.008000   ; qtot 131.000255
; residue  132 bbb rtp bbb q 1.0
 3930         n4    132    bbb     N1   3930 0.03726400  14.010000   ; qtot 131.037519
 3931         c3    132    bbb     C1   3931 -0.07020100  12.010000   ; qtot 130.967318
 3932         hx    132    bbb     H1   3932 0.12219000   1.008000   ; qtot 131.089508
 3933         hx    132    bbb     H2   3933 0.12219000   1.008000   ; qtot 131.211698
 3934         c3    132    bbb     C2   3934 -0.07020100  12.010000   ; qtot 131.141497
 3935         hx    132    bbb     H3   3935 0.12219000   1.008000   ; qtot 131.263687
 3936         hx    132    bbb     H4   3936 0.12219000   1.008000   ; qtot 131.385877
 3937         c3    132    bbb     C3   3937 -0.39007700  12.010000   ; qtot 130.995800
 3938         hx    132    bbb     H5   3938 0.14940300   1.008000   ; qtot 131.145203
 3939         hx    132    bbb     H6   3939 0.14940300   1.008000   ; qtot 131.294606
 3940         c3    132    bbb     C4   3940 0.18057300  12.010000   ; qtot 131.475179
 3941         hc    132    bbb     H7   3941 0.01788900   1.008000   ; qtot 131.493068
 3942         hc    132    bbb     H8   3942 0.01788900   1.008000   ; qtot 131.510957
 3943         c3    132    bbb     C5   3943 -0.11337700  12.010000   ; qtot 131.397580
 3944         hc    132    bbb     H9   3944 0.09515400   1.008000   ; qtot 131.492734
 3945         hc    132    bbb    H10   3945 0.09515400   1.008000   ; qtot 131.587888
 3946         c3    132    bbb     C6   3946 -0.11337700  12.010000   ; qtot 131.474511
 3947         hc    132    bbb    H11   3947 0.09515400   1.008000   ; qtot 131.569665
 3948         hc    132    bbb    H12   3948 0.09515400   1.008000   ; qtot 131.664819
 3949         c3    132    bbb     C7   3949 0.21842400  12.010000   ; qtot 131.883243
 3950         h1    132    bbb    H13   3950 0.04500300   1.008000   ; qtot 131.928246
 3951         h1    132    bbb    H14   3951 0.04500300   1.008000   ; qtot 131.973249
 3952         c3    132    bbb     C8   3952 -0.06455200  12.010000   ; qtot 131.908697
 3953         h1    132    bbb    H15   3953 0.13554100   1.008000   ; qtot 132.044238
 3954         h1    132    bbb    H16   3954 0.13554100   1.008000   ; qtot 132.179779
 3955         c3    132    bbb     C9   3955 -0.06455200  12.010000   ; qtot 132.115227
 3956         h1    132    bbb    H17   3956 0.13554100   1.008000   ; qtot 132.250768
 3957         h1    132    bbb    H18   3957 0.13554100   1.008000   ; qtot 132.386309
 3958         os    132    bbb     O1   3958 -0.62587700  16.000000   ; qtot 131.760432
 3959         hn    132    bbb    H19   3959 0.23982500   1.008000   ; qtot 132.000257
; residue  133 bbb rtp bbb q 1.0
 3960         n4    133    bbb     N1   3960 0.03726400  14.010000   ; qtot 132.037521
 3961         c3    133    bbb     C1   3961 -0.07020100  12.010000   ; qtot 131.967320
 3962         hx    133    bbb     H1   3962 0.12219000   1.008000   ; qtot 132.089510
 3963         hx    133    bbb     H2   3963 0.12219000   1.008000   ; qtot 132.211700
 3964         c3    133    bbb     C2   3964 -0.07020100  12.010000   ; qtot 132.141499
 3965         hx    133    bbb     H3   3965 0.12219000   1.008000   ; qtot 132.263689
 3966         hx    133    bbb     H4   3966 0.12219000   1.008000   ; qtot 132.385879
 3967         c3    133    bbb     C3   3967 -0.39007700  12.010000   ; qtot 131.995802
 3968         hx    133    bbb     H5   3968 0.14940300   1.008000   ; qtot 132.145205
 3969         hx    133    bbb     H6   3969 0.14940300   1.008000   ; qtot 132.294608
 3970         c3    133    bbb     C4   3970 0.18057300  12.010000   ; qtot 132.475181
 3971         hc    133    bbb     H7   3971 0.01788900   1.008000   ; qtot 132.493070
 3972         hc    133    bbb     H8   3972 0.01788900   1.008000   ; qtot 132.510959
 3973         c3    133    bbb     C5   3973 -0.11337700  12.010000   ; qtot 132.397582
 3974         hc    133    bbb     H9   3974 0.09515400   1.008000   ; qtot 132.492736
 3975         hc    133    bbb    H10   3975 0.09515400   1.008000   ; qtot 132.587890
 3976         c3    133    bbb     C6   3976 -0.11337700  12.010000   ; qtot 132.474513
 3977         hc    133    bbb    H11   3977 0.09515400   1.008000   ; qtot 132.569667
 3978         hc    133    bbb    H12   3978 0.09515400   1.008000   ; qtot 132.664821
 3979         c3    133    bbb     C7   3979 0.21842400  12.010000   ; qtot 132.883245
 3980         h1    133    bbb    H13   3980 0.04500300   1.008000   ; qtot 132.928248
 3981         h1    133    bbb    H14   3981 0.04500300   1.008000   ; qtot 132.973251
 3982         c3    133    bbb     C8   3982 -0.06455200  12.010000   ; qtot 132.908699
 3983         h1    133    bbb    H15   3983 0.13554100   1.008000   ; qtot 133.044240
 3984         h1    133    bbb    H16   3984 0.13554100   1.008000   ; qtot 133.179781
 3985         c3    133    bbb     C9   3985 -0.06455200  12.010000   ; qtot 133.115229
 3986         h1    133    bbb    H17   3986 0.13554100   1.008000   ; qtot 133.250770
 3987         h1    133    bbb    H18   3987 0.13554100   1.008000   ; qtot 133.386311
 3988         os    133    bbb     O1   3988 -0.62587700  16.000000   ; qtot 132.760434
 3989         hn    133    bbb    H19   3989 0.23982500   1.008000   ; qtot 133.000259
; residue  134 bbb rtp bbb q 1.0
 3990         n4    134    bbb     N1   3990 0.03726400  14.010000   ; qtot 133.037523
 3991         c3    134    bbb     C1   3991 -0.07020100  12.010000   ; qtot 132.967322
 3992         hx    134    bbb     H1   3992 0.12219000   1.008000   ; qtot 133.089512
 3993         hx    134    bbb     H2   3993 0.12219000   1.008000   ; qtot 133.211702
 3994         c3    134    bbb     C2   3994 -0.07020100  12.010000   ; qtot 133.141501
 3995         hx    134    bbb     H3   3995 0.12219000   1.008000   ; qtot 133.263691
 3996         hx    134    bbb     H4   3996 0.12219000   1.008000   ; qtot 133.385881
 3997         c3    134    bbb     C3   3997 -0.39007700  12.010000   ; qtot 132.995804
 3998         hx    134    bbb     H5   3998 0.14940300   1.008000   ; qtot 133.145207
 3999         hx    134    bbb     H6   3999 0.14940300   1.008000   ; qtot 133.294610
 4000         c3    134    bbb     C4   4000 0.18057300  12.010000   ; qtot 133.475183
 4001         hc    134    bbb     H7   4001 0.01788900   1.008000   ; qtot 133.493072
 4002         hc    134    bbb     H8   4002 0.01788900   1.008000   ; qtot 133.510961
 4003         c3    134    bbb     C5   4003 -0.11337700  12.010000   ; qtot 133.397584
 4004         hc    134    bbb     H9   4004 0.09515400   1.008000   ; qtot 133.492738
 4005         hc    134    bbb    H10   4005 0.09515400   1.008000   ; qtot 133.587892
 4006         c3    134    bbb     C6   4006 -0.11337700  12.010000   ; qtot 133.474515
 4007         hc    134    bbb    H11   4007 0.09515400   1.008000   ; qtot 133.569669
 4008         hc    134    bbb    H12   4008 0.09515400   1.008000   ; qtot 133.664823
 4009         c3    134    bbb     C7   4009 0.21842400  12.010000   ; qtot 133.883247
 4010         h1    134    bbb    H13   4010 0.04500300   1.008000   ; qtot 133.928250
 4011         h1    134    bbb    H14   4011 0.04500300   1.008000   ; qtot 133.973253
 4012         c3    134    bbb     C8   4012 -0.06455200  12.010000   ; qtot 133.908701
 4013         h1    134    bbb    H15   4013 0.13554100   1.008000   ; qtot 134.044242
 4014         h1    134    bbb    H16   4014 0.13554100   1.008000   ; qtot 134.179783
 4015         c3    134    bbb     C9   4015 -0.06455200  12.010000   ; qtot 134.115231
 4016         h1    134    bbb    H17   4016 0.13554100   1.008000   ; qtot 134.250772
 4017         h1    134    bbb    H18   4017 0.13554100   1.008000   ; qtot 134.386313
 4018         os    134    bbb     O1   4018 -0.62587700  16.000000   ; qtot 133.760436
 4019         hn    134    bbb    H19   4019 0.23982500   1.008000   ; qtot 134.000261
; residue  135 bbb rtp bbb q 1.0
 4020         n4    135    bbb     N1   4020 0.03726400  14.010000   ; qtot 134.037525
 4021         c3    135    bbb     C1   4021 -0.07020100  12.010000   ; qtot 133.967324
 4022         hx    135    bbb     H1   4022 0.12219000   1.008000   ; qtot 134.089514
 4023         hx    135    bbb     H2   4023 0.12219000   1.008000   ; qtot 134.211704
 4024         c3    135    bbb     C2   4024 -0.07020100  12.010000   ; qtot 134.141503
 4025         hx    135    bbb     H3   4025 0.12219000   1.008000   ; qtot 134.263693
 4026         hx    135    bbb     H4   4026 0.12219000   1.008000   ; qtot 134.385883
 4027         c3    135    bbb     C3   4027 -0.39007700  12.010000   ; qtot 133.995806
 4028         hx    135    bbb     H5   4028 0.14940300   1.008000   ; qtot 134.145209
 4029         hx    135    bbb     H6   4029 0.14940300   1.008000   ; qtot 134.294612
 4030         c3    135    bbb     C4   4030 0.18057300  12.010000   ; qtot 134.475185
 4031         hc    135    bbb     H7   4031 0.01788900   1.008000   ; qtot 134.493074
 4032         hc    135    bbb     H8   4032 0.01788900   1.008000   ; qtot 134.510963
 4033         c3    135    bbb     C5   4033 -0.11337700  12.010000   ; qtot 134.397586
 4034         hc    135    bbb     H9   4034 0.09515400   1.008000   ; qtot 134.492740
 4035         hc    135    bbb    H10   4035 0.09515400   1.008000   ; qtot 134.587894
 4036         c3    135    bbb     C6   4036 -0.11337700  12.010000   ; qtot 134.474517
 4037         hc    135    bbb    H11   4037 0.09515400   1.008000   ; qtot 134.569671
 4038         hc    135    bbb    H12   4038 0.09515400   1.008000   ; qtot 134.664825
 4039         c3    135    bbb     C7   4039 0.21842400  12.010000   ; qtot 134.883249
 4040         h1    135    bbb    H13   4040 0.04500300   1.008000   ; qtot 134.928252
 4041         h1    135    bbb    H14   4041 0.04500300   1.008000   ; qtot 134.973255
 4042         c3    135    bbb     C8   4042 -0.06455200  12.010000   ; qtot 134.908703
 4043         h1    135    bbb    H15   4043 0.13554100   1.008000   ; qtot 135.044244
 4044         h1    135    bbb    H16   4044 0.13554100   1.008000   ; qtot 135.179785
 4045         c3    135    bbb     C9   4045 -0.06455200  12.010000   ; qtot 135.115233
 4046         h1    135    bbb    H17   4046 0.13554100   1.008000   ; qtot 135.250774
 4047         h1    135    bbb    H18   4047 0.13554100   1.008000   ; qtot 135.386315
 4048         os    135    bbb     O1   4048 -0.62587700  16.000000   ; qtot 134.760438
 4049         hn    135    bbb    H19   4049 0.23982500   1.008000   ; qtot 135.000263
; residue  136 bbb rtp bbb q 1.0
 4050         n4    136    bbb     N1   4050 0.03726400  14.010000   ; qtot 135.037527
 4051         c3    136    bbb     C1   4051 -0.07020100  12.010000   ; qtot 134.967326
 4052         hx    136    bbb     H1   4052 0.12219000   1.008000   ; qtot 135.089516
 4053         hx    136    bbb     H2   4053 0.12219000   1.008000   ; qtot 135.211706
 4054         c3    136    bbb     C2   4054 -0.07020100  12.010000   ; qtot 135.141505
 4055         hx    136    bbb     H3   4055 0.12219000   1.008000   ; qtot 135.263695
 4056         hx    136    bbb     H4   4056 0.12219000   1.008000   ; qtot 135.385885
 4057         c3    136    bbb     C3   4057 -0.39007700  12.010000   ; qtot 134.995808
 4058         hx    136    bbb     H5   4058 0.14940300   1.008000   ; qtot 135.145211
 4059         hx    136    bbb     H6   4059 0.14940300   1.008000   ; qtot 135.294614
 4060         c3    136    bbb     C4   4060 0.18057300  12.010000   ; qtot 135.475187
 4061         hc    136    bbb     H7   4061 0.01788900   1.008000   ; qtot 135.493076
 4062         hc    136    bbb     H8   4062 0.01788900   1.008000   ; qtot 135.510965
 4063         c3    136    bbb     C5   4063 -0.11337700  12.010000   ; qtot 135.397588
 4064         hc    136    bbb     H9   4064 0.09515400   1.008000   ; qtot 135.492742
 4065         hc    136    bbb    H10   4065 0.09515400   1.008000   ; qtot 135.587896
 4066         c3    136    bbb     C6   4066 -0.11337700  12.010000   ; qtot 135.474519
 4067         hc    136    bbb    H11   4067 0.09515400   1.008000   ; qtot 135.569673
 4068         hc    136    bbb    H12   4068 0.09515400   1.008000   ; qtot 135.664827
 4069         c3    136    bbb     C7   4069 0.21842400  12.010000   ; qtot 135.883251
 4070         h1    136    bbb    H13   4070 0.04500300   1.008000   ; qtot 135.928254
 4071         h1    136    bbb    H14   4071 0.04500300   1.008000   ; qtot 135.973257
 4072         c3    136    bbb     C8   4072 -0.06455200  12.010000   ; qtot 135.908705
 4073         h1    136    bbb    H15   4073 0.13554100   1.008000   ; qtot 136.044246
 4074         h1    136    bbb    H16   4074 0.13554100   1.008000   ; qtot 136.179787
 4075         c3    136    bbb     C9   4075 -0.06455200  12.010000   ; qtot 136.115235
 4076         h1    136    bbb    H17   4076 0.13554100   1.008000   ; qtot 136.250776
 4077         h1    136    bbb    H18   4077 0.13554100   1.008000   ; qtot 136.386317
 4078         os    136    bbb     O1   4078 -0.62587700  16.000000   ; qtot 135.760440
 4079         hn    136    bbb    H19   4079 0.23982500   1.008000   ; qtot 136.000265
; residue  137 bbb rtp bbb q 1.0
 4080         n4    137    bbb     N1   4080 0.03726400  14.010000   ; qtot 136.037529
 4081         c3    137    bbb     C1   4081 -0.07020100  12.010000   ; qtot 135.967328
 4082         hx    137    bbb     H1   4082 0.12219000   1.008000   ; qtot 136.089518
 4083         hx    137    bbb     H2   4083 0.12219000   1.008000   ; qtot 136.211708
 4084         c3    137    bbb     C2   4084 -0.07020100  12.010000   ; qtot 136.141507
 4085         hx    137    bbb     H3   4085 0.12219000   1.008000   ; qtot 136.263697
 4086         hx    137    bbb     H4   4086 0.12219000   1.008000   ; qtot 136.385887
 4087         c3    137    bbb     C3   4087 -0.39007700  12.010000   ; qtot 135.995810
 4088         hx    137    bbb     H5   4088 0.14940300   1.008000   ; qtot 136.145213
 4089         hx    137    bbb     H6   4089 0.14940300   1.008000   ; qtot 136.294616
 4090         c3    137    bbb     C4   4090 0.18057300  12.010000   ; qtot 136.475189
 4091         hc    137    bbb     H7   4091 0.01788900   1.008000   ; qtot 136.493078
 4092         hc    137    bbb     H8   4092 0.01788900   1.008000   ; qtot 136.510967
 4093         c3    137    bbb     C5   4093 -0.11337700  12.010000   ; qtot 136.397590
 4094         hc    137    bbb     H9   4094 0.09515400   1.008000   ; qtot 136.492744
 4095         hc    137    bbb    H10   4095 0.09515400   1.008000   ; qtot 136.587898
 4096         c3    137    bbb     C6   4096 -0.11337700  12.010000   ; qtot 136.474521
 4097         hc    137    bbb    H11   4097 0.09515400   1.008000   ; qtot 136.569675
 4098         hc    137    bbb    H12   4098 0.09515400   1.008000   ; qtot 136.664829
 4099         c3    137    bbb     C7   4099 0.21842400  12.010000   ; qtot 136.883253
 4100         h1    137    bbb    H13   4100 0.04500300   1.008000   ; qtot 136.928256
 4101         h1    137    bbb    H14   4101 0.04500300   1.008000   ; qtot 136.973259
 4102         c3    137    bbb     C8   4102 -0.06455200  12.010000   ; qtot 136.908707
 4103         h1    137    bbb    H15   4103 0.13554100   1.008000   ; qtot 137.044248
 4104         h1    137    bbb    H16   4104 0.13554100   1.008000   ; qtot 137.179789
 4105         c3    137    bbb     C9   4105 -0.06455200  12.010000   ; qtot 137.115237
 4106         h1    137    bbb    H17   4106 0.13554100   1.008000   ; qtot 137.250778
 4107         h1    137    bbb    H18   4107 0.13554100   1.008000   ; qtot 137.386319
 4108         os    137    bbb     O1   4108 -0.62587700  16.000000   ; qtot 136.760442
 4109         hn    137    bbb    H19   4109 0.23982500   1.008000   ; qtot 137.000267
; residue  138 bbb rtp bbb q 1.0
 4110         n4    138    bbb     N1   4110 0.03726400  14.010000   ; qtot 137.037531
 4111         c3    138    bbb     C1   4111 -0.07020100  12.010000   ; qtot 136.967330
 4112         hx    138    bbb     H1   4112 0.12219000   1.008000   ; qtot 137.089520
 4113         hx    138    bbb     H2   4113 0.12219000   1.008000   ; qtot 137.211710
 4114         c3    138    bbb     C2   4114 -0.07020100  12.010000   ; qtot 137.141509
 4115         hx    138    bbb     H3   4115 0.12219000   1.008000   ; qtot 137.263699
 4116         hx    138    bbb     H4   4116 0.12219000   1.008000   ; qtot 137.385889
 4117         c3    138    bbb     C3   4117 -0.39007700  12.010000   ; qtot 136.995812
 4118         hx    138    bbb     H5   4118 0.14940300   1.008000   ; qtot 137.145215
 4119         hx    138    bbb     H6   4119 0.14940300   1.008000   ; qtot 137.294618
 4120         c3    138    bbb     C4   4120 0.18057300  12.010000   ; qtot 137.475191
 4121         hc    138    bbb     H7   4121 0.01788900   1.008000   ; qtot 137.493080
 4122         hc    138    bbb     H8   4122 0.01788900   1.008000   ; qtot 137.510969
 4123         c3    138    bbb     C5   4123 -0.11337700  12.010000   ; qtot 137.397592
 4124         hc    138    bbb     H9   4124 0.09515400   1.008000   ; qtot 137.492746
 4125         hc    138    bbb    H10   4125 0.09515400   1.008000   ; qtot 137.587900
 4126         c3    138    bbb     C6   4126 -0.11337700  12.010000   ; qtot 137.474523
 4127         hc    138    bbb    H11   4127 0.09515400   1.008000   ; qtot 137.569677
 4128         hc    138    bbb    H12   4128 0.09515400   1.008000   ; qtot 137.664831
 4129         c3    138    bbb     C7   4129 0.21842400  12.010000   ; qtot 137.883255
 4130         h1    138    bbb    H13   4130 0.04500300   1.008000   ; qtot 137.928258
 4131         h1    138    bbb    H14   4131 0.04500300   1.008000   ; qtot 137.973261
 4132         c3    138    bbb     C8   4132 -0.06455200  12.010000   ; qtot 137.908709
 4133         h1    138    bbb    H15   4133 0.13554100   1.008000   ; qtot 138.044250
 4134         h1    138    bbb    H16   4134 0.13554100   1.008000   ; qtot 138.179791
 4135         c3    138    bbb     C9   4135 -0.06455200  12.010000   ; qtot 138.115239
 4136         h1    138    bbb    H17   4136 0.13554100   1.008000   ; qtot 138.250780
 4137         h1    138    bbb    H18   4137 0.13554100   1.008000   ; qtot 138.386321
 4138         os    138    bbb     O1   4138 -0.62587700  16.000000   ; qtot 137.760444
 4139         hn    138    bbb    H19   4139 0.23982500   1.008000   ; qtot 138.000269
; residue  139 bbb rtp bbb q 1.0
 4140         n4    139    bbb     N1   4140 0.03726400  14.010000   ; qtot 138.037533
 4141         c3    139    bbb     C1   4141 -0.07020100  12.010000   ; qtot 137.967332
 4142         hx    139    bbb     H1   4142 0.12219000   1.008000   ; qtot 138.089522
 4143         hx    139    bbb     H2   4143 0.12219000   1.008000   ; qtot 138.211712
 4144         c3    139    bbb     C2   4144 -0.07020100  12.010000   ; qtot 138.141511
 4145         hx    139    bbb     H3   4145 0.12219000   1.008000   ; qtot 138.263701
 4146         hx    139    bbb     H4   4146 0.12219000   1.008000   ; qtot 138.385891
 4147         c3    139    bbb     C3   4147 -0.39007700  12.010000   ; qtot 137.995814
 4148         hx    139    bbb     H5   4148 0.14940300   1.008000   ; qtot 138.145217
 4149         hx    139    bbb     H6   4149 0.14940300   1.008000   ; qtot 138.294620
 4150         c3    139    bbb     C4   4150 0.18057300  12.010000   ; qtot 138.475193
 4151         hc    139    bbb     H7   4151 0.01788900   1.008000   ; qtot 138.493082
 4152         hc    139    bbb     H8   4152 0.01788900   1.008000   ; qtot 138.510971
 4153         c3    139    bbb     C5   4153 -0.11337700  12.010000   ; qtot 138.397594
 4154         hc    139    bbb     H9   4154 0.09515400   1.008000   ; qtot 138.492748
 4155         hc    139    bbb    H10   4155 0.09515400   1.008000   ; qtot 138.587902
 4156         c3    139    bbb     C6   4156 -0.11337700  12.010000   ; qtot 138.474525
 4157         hc    139    bbb    H11   4157 0.09515400   1.008000   ; qtot 138.569679
 4158         hc    139    bbb    H12   4158 0.09515400   1.008000   ; qtot 138.664833
 4159         c3    139    bbb     C7   4159 0.21842400  12.010000   ; qtot 138.883257
 4160         h1    139    bbb    H13   4160 0.04500300   1.008000   ; qtot 138.928260
 4161         h1    139    bbb    H14   4161 0.04500300   1.008000   ; qtot 138.973263
 4162         c3    139    bbb     C8   4162 -0.06455200  12.010000   ; qtot 138.908711
 4163         h1    139    bbb    H15   4163 0.13554100   1.008000   ; qtot 139.044252
 4164         h1    139    bbb    H16   4164 0.13554100   1.008000   ; qtot 139.179793
 4165         c3    139    bbb     C9   4165 -0.06455200  12.010000   ; qtot 139.115241
 4166         h1    139    bbb    H17   4166 0.13554100   1.008000   ; qtot 139.250782
 4167         h1    139    bbb    H18   4167 0.13554100   1.008000   ; qtot 139.386323
 4168         os    139    bbb     O1   4168 -0.62587700  16.000000   ; qtot 138.760446
 4169         hn    139    bbb    H19   4169 0.23982500   1.008000   ; qtot 139.000271
; residue  140 bbb rtp bbb q 1.0
 4170         n4    140    bbb     N1   4170 0.03726400  14.010000   ; qtot 139.037535
 4171         c3    140    bbb     C1   4171 -0.07020100  12.010000   ; qtot 138.967334
 4172         hx    140    bbb     H1   4172 0.12219000   1.008000   ; qtot 139.089524
 4173         hx    140    bbb     H2   4173 0.12219000   1.008000   ; qtot 139.211714
 4174         c3    140    bbb     C2   4174 -0.07020100  12.010000   ; qtot 139.141513
 4175         hx    140    bbb     H3   4175 0.12219000   1.008000   ; qtot 139.263703
 4176         hx    140    bbb     H4   4176 0.12219000   1.008000   ; qtot 139.385893
 4177         c3    140    bbb     C3   4177 -0.39007700  12.010000   ; qtot 138.995816
 4178         hx    140    bbb     H5   4178 0.14940300   1.008000   ; qtot 139.145219
 4179         hx    140    bbb     H6   4179 0.14940300   1.008000   ; qtot 139.294622
 4180         c3    140    bbb     C4   4180 0.18057300  12.010000   ; qtot 139.475195
 4181         hc    140    bbb     H7   4181 0.01788900   1.008000   ; qtot 139.493084
 4182         hc    140    bbb     H8   4182 0.01788900   1.008000   ; qtot 139.510973
 4183         c3    140    bbb     C5   4183 -0.11337700  12.010000   ; qtot 139.397596
 4184         hc    140    bbb     H9   4184 0.09515400   1.008000   ; qtot 139.492750
 4185         hc    140    bbb    H10   4185 0.09515400   1.008000   ; qtot 139.587904
 4186         c3    140    bbb     C6   4186 -0.11337700  12.010000   ; qtot 139.474527
 4187         hc    140    bbb    H11   4187 0.09515400   1.008000   ; qtot 139.569681
 4188         hc    140    bbb    H12   4188 0.09515400   1.008000   ; qtot 139.664835
 4189         c3    140    bbb     C7   4189 0.21842400  12.010000   ; qtot 139.883259
 4190         h1    140    bbb    H13   4190 0.04500300   1.008000   ; qtot 139.928262
 4191         h1    140    bbb    H14   4191 0.04500300   1.008000   ; qtot 139.973265
 4192         c3    140    bbb     C8   4192 -0.06455200  12.010000   ; qtot 139.908713
 4193         h1    140    bbb    H15   4193 0.13554100   1.008000   ; qtot 140.044254
 4194         h1    140    bbb    H16   4194 0.13554100   1.008000   ; qtot 140.179795
 4195         c3    140    bbb     C9   4195 -0.06455200  12.010000   ; qtot 140.115243
 4196         h1    140    bbb    H17   4196 0.13554100   1.008000   ; qtot 140.250784
 4197         h1    140    bbb    H18   4197 0.13554100   1.008000   ; qtot 140.386325
 4198         os    140    bbb     O1   4198 -0.62587700  16.000000   ; qtot 139.760448
 4199         hn    140    bbb    H19   4199 0.23982500   1.008000   ; qtot 140.000273
; residue  141 bbb rtp bbb q 1.0
 4200         n4    141    bbb     N1   4200 0.03726400  14.010000   ; qtot 140.037537
 4201         c3    141    bbb     C1   4201 -0.07020100  12.010000   ; qtot 139.967336
 4202         hx    141    bbb     H1   4202 0.12219000   1.008000   ; qtot 140.089526
 4203         hx    141    bbb     H2   4203 0.12219000   1.008000   ; qtot 140.211716
 4204         c3    141    bbb     C2   4204 -0.07020100  12.010000   ; qtot 140.141515
 4205         hx    141    bbb     H3   4205 0.12219000   1.008000   ; qtot 140.263705
 4206         hx    141    bbb     H4   4206 0.12219000   1.008000   ; qtot 140.385895
 4207         c3    141    bbb     C3   4207 -0.39007700  12.010000   ; qtot 139.995818
 4208         hx    141    bbb     H5   4208 0.14940300   1.008000   ; qtot 140.145221
 4209         hx    141    bbb     H6   4209 0.14940300   1.008000   ; qtot 140.294624
 4210         c3    141    bbb     C4   4210 0.18057300  12.010000   ; qtot 140.475197
 4211         hc    141    bbb     H7   4211 0.01788900   1.008000   ; qtot 140.493086
 4212         hc    141    bbb     H8   4212 0.01788900   1.008000   ; qtot 140.510975
 4213         c3    141    bbb     C5   4213 -0.11337700  12.010000   ; qtot 140.397598
 4214         hc    141    bbb     H9   4214 0.09515400   1.008000   ; qtot 140.492752
 4215         hc    141    bbb    H10   4215 0.09515400   1.008000   ; qtot 140.587906
 4216         c3    141    bbb     C6   4216 -0.11337700  12.010000   ; qtot 140.474529
 4217         hc    141    bbb    H11   4217 0.09515400   1.008000   ; qtot 140.569683
 4218         hc    141    bbb    H12   4218 0.09515400   1.008000   ; qtot 140.664837
 4219         c3    141    bbb     C7   4219 0.21842400  12.010000   ; qtot 140.883261
 4220         h1    141    bbb    H13   4220 0.04500300   1.008000   ; qtot 140.928264
 4221         h1    141    bbb    H14   4221 0.04500300   1.008000   ; qtot 140.973267
 4222         c3    141    bbb     C8   4222 -0.06455200  12.010000   ; qtot 140.908715
 4223         h1    141    bbb    H15   4223 0.13554100   1.008000   ; qtot 141.044256
 4224         h1    141    bbb    H16   4224 0.13554100   1.008000   ; qtot 141.179797
 4225         c3    141    bbb     C9   4225 -0.06455200  12.010000   ; qtot 141.115245
 4226         h1    141    bbb    H17   4226 0.13554100   1.008000   ; qtot 141.250786
 4227         h1    141    bbb    H18   4227 0.13554100   1.008000   ; qtot 141.386327
 4228         os    141    bbb     O1   4228 -0.62587700  16.000000   ; qtot 140.760450
 4229         hn    141    bbb    H19   4229 0.23982500   1.008000   ; qtot 141.000275
; residue  142 bbb rtp bbb q 1.0
 4230         n4    142    bbb     N1   4230 0.03726400  14.010000   ; qtot 141.037539
 4231         c3    142    bbb     C1   4231 -0.07020100  12.010000   ; qtot 140.967338
 4232         hx    142    bbb     H1   4232 0.12219000   1.008000   ; qtot 141.089528
 4233         hx    142    bbb     H2   4233 0.12219000   1.008000   ; qtot 141.211718
 4234         c3    142    bbb     C2   4234 -0.07020100  12.010000   ; qtot 141.141517
 4235         hx    142    bbb     H3   4235 0.12219000   1.008000   ; qtot 141.263707
 4236         hx    142    bbb     H4   4236 0.12219000   1.008000   ; qtot 141.385897
 4237         c3    142    bbb     C3   4237 -0.39007700  12.010000   ; qtot 140.995820
 4238         hx    142    bbb     H5   4238 0.14940300   1.008000   ; qtot 141.145223
 4239         hx    142    bbb     H6   4239 0.14940300   1.008000   ; qtot 141.294626
 4240         c3    142    bbb     C4   4240 0.18057300  12.010000   ; qtot 141.475199
 4241         hc    142    bbb     H7   4241 0.01788900   1.008000   ; qtot 141.493088
 4242         hc    142    bbb     H8   4242 0.01788900   1.008000   ; qtot 141.510977
 4243         c3    142    bbb     C5   4243 -0.11337700  12.010000   ; qtot 141.397600
 4244         hc    142    bbb     H9   4244 0.09515400   1.008000   ; qtot 141.492754
 4245         hc    142    bbb    H10   4245 0.09515400   1.008000   ; qtot 141.587908
 4246         c3    142    bbb     C6   4246 -0.11337700  12.010000   ; qtot 141.474531
 4247         hc    142    bbb    H11   4247 0.09515400   1.008000   ; qtot 141.569685
 4248         hc    142    bbb    H12   4248 0.09515400   1.008000   ; qtot 141.664839
 4249         c3    142    bbb     C7   4249 0.21842400  12.010000   ; qtot 141.883263
 4250         h1    142    bbb    H13   4250 0.04500300   1.008000   ; qtot 141.928266
 4251         h1    142    bbb    H14   4251 0.04500300   1.008000   ; qtot 141.973269
 4252         c3    142    bbb     C8   4252 -0.06455200  12.010000   ; qtot 141.908717
 4253         h1    142    bbb    H15   4253 0.13554100   1.008000   ; qtot 142.044258
 4254         h1    142    bbb    H16   4254 0.13554100   1.008000   ; qtot 142.179799
 4255         c3    142    bbb     C9   4255 -0.06455200  12.010000   ; qtot 142.115247
 4256         h1    142    bbb    H17   4256 0.13554100   1.008000   ; qtot 142.250788
 4257         h1    142    bbb    H18   4257 0.13554100   1.008000   ; qtot 142.386329
 4258         os    142    bbb     O1   4258 -0.62587700  16.000000   ; qtot 141.760452
 4259         hn    142    bbb    H19   4259 0.23982500   1.008000   ; qtot 142.000277
; residue  143 bbb rtp bbb q 1.0
 4260         n4    143    bbb     N1   4260 0.03726400  14.010000   ; qtot 142.037541
 4261         c3    143    bbb     C1   4261 -0.07020100  12.010000   ; qtot 141.967340
 4262         hx    143    bbb     H1   4262 0.12219000   1.008000   ; qtot 142.089530
 4263         hx    143    bbb     H2   4263 0.12219000   1.008000   ; qtot 142.211720
 4264         c3    143    bbb     C2   4264 -0.07020100  12.010000   ; qtot 142.141519
 4265         hx    143    bbb     H3   4265 0.12219000   1.008000   ; qtot 142.263709
 4266         hx    143    bbb     H4   4266 0.12219000   1.008000   ; qtot 142.385899
 4267         c3    143    bbb     C3   4267 -0.39007700  12.010000   ; qtot 141.995822
 4268         hx    143    bbb     H5   4268 0.14940300   1.008000   ; qtot 142.145225
 4269         hx    143    bbb     H6   4269 0.14940300   1.008000   ; qtot 142.294628
 4270         c3    143    bbb     C4   4270 0.18057300  12.010000   ; qtot 142.475201
 4271         hc    143    bbb     H7   4271 0.01788900   1.008000   ; qtot 142.493090
 4272         hc    143    bbb     H8   4272 0.01788900   1.008000   ; qtot 142.510979
 4273         c3    143    bbb     C5   4273 -0.11337700  12.010000   ; qtot 142.397602
 4274         hc    143    bbb     H9   4274 0.09515400   1.008000   ; qtot 142.492756
 4275         hc    143    bbb    H10   4275 0.09515400   1.008000   ; qtot 142.587910
 4276         c3    143    bbb     C6   4276 -0.11337700  12.010000   ; qtot 142.474533
 4277         hc    143    bbb    H11   4277 0.09515400   1.008000   ; qtot 142.569687
 4278         hc    143    bbb    H12   4278 0.09515400   1.008000   ; qtot 142.664841
 4279         c3    143    bbb     C7   4279 0.21842400  12.010000   ; qtot 142.883265
 4280         h1    143    bbb    H13   4280 0.04500300   1.008000   ; qtot 142.928268
 4281         h1    143    bbb    H14   4281 0.04500300   1.008000   ; qtot 142.973271
 4282         c3    143    bbb     C8   4282 -0.06455200  12.010000   ; qtot 142.908719
 4283         h1    143    bbb    H15   4283 0.13554100   1.008000   ; qtot 143.044260
 4284         h1    143    bbb    H16   4284 0.13554100   1.008000   ; qtot 143.179801
 4285         c3    143    bbb     C9   4285 -0.06455200  12.010000   ; qtot 143.115249
 4286         h1    143    bbb    H17   4286 0.13554100   1.008000   ; qtot 143.250790
 4287         h1    143    bbb    H18   4287 0.13554100   1.008000   ; qtot 143.386331
 4288         os    143    bbb     O1   4288 -0.62587700  16.000000   ; qtot 142.760454
 4289         hn    143    bbb    H19   4289 0.23982500   1.008000   ; qtot 143.000279
; residue  144 bbb rtp bbb q 1.0
 4290         n4    144    bbb     N1   4290 0.03726400  14.010000   ; qtot 143.037543
 4291         c3    144    bbb     C1   4291 -0.07020100  12.010000   ; qtot 142.967342
 4292         hx    144    bbb     H1   4292 0.12219000   1.008000   ; qtot 143.089532
 4293         hx    144    bbb     H2   4293 0.12219000   1.008000   ; qtot 143.211722
 4294         c3    144    bbb     C2   4294 -0.07020100  12.010000   ; qtot 143.141521
 4295         hx    144    bbb     H3   4295 0.12219000   1.008000   ; qtot 143.263711
 4296         hx    144    bbb     H4   4296 0.12219000   1.008000   ; qtot 143.385901
 4297         c3    144    bbb     C3   4297 -0.39007700  12.010000   ; qtot 142.995824
 4298         hx    144    bbb     H5   4298 0.14940300   1.008000   ; qtot 143.145227
 4299         hx    144    bbb     H6   4299 0.14940300   1.008000   ; qtot 143.294630
 4300         c3    144    bbb     C4   4300 0.18057300  12.010000   ; qtot 143.475203
 4301         hc    144    bbb     H7   4301 0.01788900   1.008000   ; qtot 143.493092
 4302         hc    144    bbb     H8   4302 0.01788900   1.008000   ; qtot 143.510981
 4303         c3    144    bbb     C5   4303 -0.11337700  12.010000   ; qtot 143.397604
 4304         hc    144    bbb     H9   4304 0.09515400   1.008000   ; qtot 143.492758
 4305         hc    144    bbb    H10   4305 0.09515400   1.008000   ; qtot 143.587912
 4306         c3    144    bbb     C6   4306 -0.11337700  12.010000   ; qtot 143.474535
 4307         hc    144    bbb    H11   4307 0.09515400   1.008000   ; qtot 143.569689
 4308         hc    144    bbb    H12   4308 0.09515400   1.008000   ; qtot 143.664843
 4309         c3    144    bbb     C7   4309 0.21842400  12.010000   ; qtot 143.883267
 4310         h1    144    bbb    H13   4310 0.04500300   1.008000   ; qtot 143.928270
 4311         h1    144    bbb    H14   4311 0.04500300   1.008000   ; qtot 143.973273
 4312         c3    144    bbb     C8   4312 -0.06455200  12.010000   ; qtot 143.908721
 4313         h1    144    bbb    H15   4313 0.13554100   1.008000   ; qtot 144.044262
 4314         h1    144    bbb    H16   4314 0.13554100   1.008000   ; qtot 144.179803
 4315         c3    144    bbb     C9   4315 -0.06455200  12.010000   ; qtot 144.115251
 4316         h1    144    bbb    H17   4316 0.13554100   1.008000   ; qtot 144.250792
 4317         h1    144    bbb    H18   4317 0.13554100   1.008000   ; qtot 144.386333
 4318         os    144    bbb     O1   4318 -0.62587700  16.000000   ; qtot 143.760456
 4319         hn    144    bbb    H19   4319 0.23982500   1.008000   ; qtot 144.000281
; residue  145 bbb rtp bbb q 1.0
 4320         n4    145    bbb     N1   4320 0.03726400  14.010000   ; qtot 144.037545
 4321         c3    145    bbb     C1   4321 -0.07020100  12.010000   ; qtot 143.967344
 4322         hx    145    bbb     H1   4322 0.12219000   1.008000   ; qtot 144.089534
 4323         hx    145    bbb     H2   4323 0.12219000   1.008000   ; qtot 144.211724
 4324         c3    145    bbb     C2   4324 -0.07020100  12.010000   ; qtot 144.141523
 4325         hx    145    bbb     H3   4325 0.12219000   1.008000   ; qtot 144.263713
 4326         hx    145    bbb     H4   4326 0.12219000   1.008000   ; qtot 144.385903
 4327         c3    145    bbb     C3   4327 -0.39007700  12.010000   ; qtot 143.995826
 4328         hx    145    bbb     H5   4328 0.14940300   1.008000   ; qtot 144.145229
 4329         hx    145    bbb     H6   4329 0.14940300   1.008000   ; qtot 144.294632
 4330         c3    145    bbb     C4   4330 0.18057300  12.010000   ; qtot 144.475205
 4331         hc    145    bbb     H7   4331 0.01788900   1.008000   ; qtot 144.493094
 4332         hc    145    bbb     H8   4332 0.01788900   1.008000   ; qtot 144.510983
 4333         c3    145    bbb     C5   4333 -0.11337700  12.010000   ; qtot 144.397606
 4334         hc    145    bbb     H9   4334 0.09515400   1.008000   ; qtot 144.492760
 4335         hc    145    bbb    H10   4335 0.09515400   1.008000   ; qtot 144.587914
 4336         c3    145    bbb     C6   4336 -0.11337700  12.010000   ; qtot 144.474537
 4337         hc    145    bbb    H11   4337 0.09515400   1.008000   ; qtot 144.569691
 4338         hc    145    bbb    H12   4338 0.09515400   1.008000   ; qtot 144.664845
 4339         c3    145    bbb     C7   4339 0.21842400  12.010000   ; qtot 144.883269
 4340         h1    145    bbb    H13   4340 0.04500300   1.008000   ; qtot 144.928272
 4341         h1    145    bbb    H14   4341 0.04500300   1.008000   ; qtot 144.973275
 4342         c3    145    bbb     C8   4342 -0.06455200  12.010000   ; qtot 144.908723
 4343         h1    145    bbb    H15   4343 0.13554100   1.008000   ; qtot 145.044264
 4344         h1    145    bbb    H16   4344 0.13554100   1.008000   ; qtot 145.179805
 4345         c3    145    bbb     C9   4345 -0.06455200  12.010000   ; qtot 145.115253
 4346         h1    145    bbb    H17   4346 0.13554100   1.008000   ; qtot 145.250794
 4347         h1    145    bbb    H18   4347 0.13554100   1.008000   ; qtot 145.386335
 4348         os    145    bbb     O1   4348 -0.62587700  16.000000   ; qtot 144.760458
 4349         hn    145    bbb    H19   4349 0.23982500   1.008000   ; qtot 145.000283
; residue  146 bbb rtp bbb q 1.0
 4350         n4    146    bbb     N1   4350 0.03726400  14.010000   ; qtot 145.037547
 4351         c3    146    bbb     C1   4351 -0.07020100  12.010000   ; qtot 144.967346
 4352         hx    146    bbb     H1   4352 0.12219000   1.008000   ; qtot 145.089536
 4353         hx    146    bbb     H2   4353 0.12219000   1.008000   ; qtot 145.211726
 4354         c3    146    bbb     C2   4354 -0.07020100  12.010000   ; qtot 145.141525
 4355         hx    146    bbb     H3   4355 0.12219000   1.008000   ; qtot 145.263715
 4356         hx    146    bbb     H4   4356 0.12219000   1.008000   ; qtot 145.385905
 4357         c3    146    bbb     C3   4357 -0.39007700  12.010000   ; qtot 144.995828
 4358         hx    146    bbb     H5   4358 0.14940300   1.008000   ; qtot 145.145231
 4359         hx    146    bbb     H6   4359 0.14940300   1.008000   ; qtot 145.294634
 4360         c3    146    bbb     C4   4360 0.18057300  12.010000   ; qtot 145.475207
 4361         hc    146    bbb     H7   4361 0.01788900   1.008000   ; qtot 145.493096
 4362         hc    146    bbb     H8   4362 0.01788900   1.008000   ; qtot 145.510985
 4363         c3    146    bbb     C5   4363 -0.11337700  12.010000   ; qtot 145.397608
 4364         hc    146    bbb     H9   4364 0.09515400   1.008000   ; qtot 145.492762
 4365         hc    146    bbb    H10   4365 0.09515400   1.008000   ; qtot 145.587916
 4366         c3    146    bbb     C6   4366 -0.11337700  12.010000   ; qtot 145.474539
 4367         hc    146    bbb    H11   4367 0.09515400   1.008000   ; qtot 145.569693
 4368         hc    146    bbb    H12   4368 0.09515400   1.008000   ; qtot 145.664847
 4369         c3    146    bbb     C7   4369 0.21842400  12.010000   ; qtot 145.883271
 4370         h1    146    bbb    H13   4370 0.04500300   1.008000   ; qtot 145.928274
 4371         h1    146    bbb    H14   4371 0.04500300   1.008000   ; qtot 145.973277
 4372         c3    146    bbb     C8   4372 -0.06455200  12.010000   ; qtot 145.908725
 4373         h1    146    bbb    H15   4373 0.13554100   1.008000   ; qtot 146.044266
 4374         h1    146    bbb    H16   4374 0.13554100   1.008000   ; qtot 146.179807
 4375         c3    146    bbb     C9   4375 -0.06455200  12.010000   ; qtot 146.115255
 4376         h1    146    bbb    H17   4376 0.13554100   1.008000   ; qtot 146.250796
 4377         h1    146    bbb    H18   4377 0.13554100   1.008000   ; qtot 146.386337
 4378         os    146    bbb     O1   4378 -0.62587700  16.000000   ; qtot 145.760460
 4379         hn    146    bbb    H19   4379 0.23982500   1.008000   ; qtot 146.000285
; residue  147 bbb rtp bbb q 1.0
 4380         n4    147    bbb     N1   4380 0.03726400  14.010000   ; qtot 146.037549
 4381         c3    147    bbb     C1   4381 -0.07020100  12.010000   ; qtot 145.967348
 4382         hx    147    bbb     H1   4382 0.12219000   1.008000   ; qtot 146.089538
 4383         hx    147    bbb     H2   4383 0.12219000   1.008000   ; qtot 146.211728
 4384         c3    147    bbb     C2   4384 -0.07020100  12.010000   ; qtot 146.141527
 4385         hx    147    bbb     H3   4385 0.12219000   1.008000   ; qtot 146.263717
 4386         hx    147    bbb     H4   4386 0.12219000   1.008000   ; qtot 146.385907
 4387         c3    147    bbb     C3   4387 -0.39007700  12.010000   ; qtot 145.995830
 4388         hx    147    bbb     H5   4388 0.14940300   1.008000   ; qtot 146.145233
 4389         hx    147    bbb     H6   4389 0.14940300   1.008000   ; qtot 146.294636
 4390         c3    147    bbb     C4   4390 0.18057300  12.010000   ; qtot 146.475209
 4391         hc    147    bbb     H7   4391 0.01788900   1.008000   ; qtot 146.493098
 4392         hc    147    bbb     H8   4392 0.01788900   1.008000   ; qtot 146.510987
 4393         c3    147    bbb     C5   4393 -0.11337700  12.010000   ; qtot 146.397610
 4394         hc    147    bbb     H9   4394 0.09515400   1.008000   ; qtot 146.492764
 4395         hc    147    bbb    H10   4395 0.09515400   1.008000   ; qtot 146.587918
 4396         c3    147    bbb     C6   4396 -0.11337700  12.010000   ; qtot 146.474541
 4397         hc    147    bbb    H11   4397 0.09515400   1.008000   ; qtot 146.569695
 4398         hc    147    bbb    H12   4398 0.09515400   1.008000   ; qtot 146.664849
 4399         c3    147    bbb     C7   4399 0.21842400  12.010000   ; qtot 146.883273
 4400         h1    147    bbb    H13   4400 0.04500300   1.008000   ; qtot 146.928276
 4401         h1    147    bbb    H14   4401 0.04500300   1.008000   ; qtot 146.973279
 4402         c3    147    bbb     C8   4402 -0.06455200  12.010000   ; qtot 146.908727
 4403         h1    147    bbb    H15   4403 0.13554100   1.008000   ; qtot 147.044268
 4404         h1    147    bbb    H16   4404 0.13554100   1.008000   ; qtot 147.179809
 4405         c3    147    bbb     C9   4405 -0.06455200  12.010000   ; qtot 147.115257
 4406         h1    147    bbb    H17   4406 0.13554100   1.008000   ; qtot 147.250798
 4407         h1    147    bbb    H18   4407 0.13554100   1.008000   ; qtot 147.386339
 4408         os    147    bbb     O1   4408 -0.62587700  16.000000   ; qtot 146.760462
 4409         hn    147    bbb    H19   4409 0.23982500   1.008000   ; qtot 147.000287
; residue  148 bbb rtp bbb q 1.0
 4410         n4    148    bbb     N1   4410 0.03726400  14.010000   ; qtot 147.037551
 4411         c3    148    bbb     C1   4411 -0.07020100  12.010000   ; qtot 146.967350
 4412         hx    148    bbb     H1   4412 0.12219000   1.008000   ; qtot 147.089540
 4413         hx    148    bbb     H2   4413 0.12219000   1.008000   ; qtot 147.211730
 4414         c3    148    bbb     C2   4414 -0.07020100  12.010000   ; qtot 147.141529
 4415         hx    148    bbb     H3   4415 0.12219000   1.008000   ; qtot 147.263719
 4416         hx    148    bbb     H4   4416 0.12219000   1.008000   ; qtot 147.385909
 4417         c3    148    bbb     C3   4417 -0.39007700  12.010000   ; qtot 146.995832
 4418         hx    148    bbb     H5   4418 0.14940300   1.008000   ; qtot 147.145235
 4419         hx    148    bbb     H6   4419 0.14940300   1.008000   ; qtot 147.294638
 4420         c3    148    bbb     C4   4420 0.18057300  12.010000   ; qtot 147.475211
 4421         hc    148    bbb     H7   4421 0.01788900   1.008000   ; qtot 147.493100
 4422         hc    148    bbb     H8   4422 0.01788900   1.008000   ; qtot 147.510989
 4423         c3    148    bbb     C5   4423 -0.11337700  12.010000   ; qtot 147.397612
 4424         hc    148    bbb     H9   4424 0.09515400   1.008000   ; qtot 147.492766
 4425         hc    148    bbb    H10   4425 0.09515400   1.008000   ; qtot 147.587920
 4426         c3    148    bbb     C6   4426 -0.11337700  12.010000   ; qtot 147.474543
 4427         hc    148    bbb    H11   4427 0.09515400   1.008000   ; qtot 147.569697
 4428         hc    148    bbb    H12   4428 0.09515400   1.008000   ; qtot 147.664851
 4429         c3    148    bbb     C7   4429 0.21842400  12.010000   ; qtot 147.883275
 4430         h1    148    bbb    H13   4430 0.04500300   1.008000   ; qtot 147.928278
 4431         h1    148    bbb    H14   4431 0.04500300   1.008000   ; qtot 147.973281
 4432         c3    148    bbb     C8   4432 -0.06455200  12.010000   ; qtot 147.908729
 4433         h1    148    bbb    H15   4433 0.13554100   1.008000   ; qtot 148.044270
 4434         h1    148    bbb    H16   4434 0.13554100   1.008000   ; qtot 148.179811
 4435         c3    148    bbb     C9   4435 -0.06455200  12.010000   ; qtot 148.115259
 4436         h1    148    bbb    H17   4436 0.13554100   1.008000   ; qtot 148.250800
 4437         h1    148    bbb    H18   4437 0.13554100   1.008000   ; qtot 148.386341
 4438         os    148    bbb     O1   4438 -0.62587700  16.000000   ; qtot 147.760464
 4439         hn    148    bbb    H19   4439 0.23982500   1.008000   ; qtot 148.000289
; residue  149 bbb rtp bbb q 1.0
 4440         n4    149    bbb     N1   4440 0.03726400  14.010000   ; qtot 148.037553
 4441         c3    149    bbb     C1   4441 -0.07020100  12.010000   ; qtot 147.967352
 4442         hx    149    bbb     H1   4442 0.12219000   1.008000   ; qtot 148.089542
 4443         hx    149    bbb     H2   4443 0.12219000   1.008000   ; qtot 148.211732
 4444         c3    149    bbb     C2   4444 -0.07020100  12.010000   ; qtot 148.141531
 4445         hx    149    bbb     H3   4445 0.12219000   1.008000   ; qtot 148.263721
 4446         hx    149    bbb     H4   4446 0.12219000   1.008000   ; qtot 148.385911
 4447         c3    149    bbb     C3   4447 -0.39007700  12.010000   ; qtot 147.995834
 4448         hx    149    bbb     H5   4448 0.14940300   1.008000   ; qtot 148.145237
 4449         hx    149    bbb     H6   4449 0.14940300   1.008000   ; qtot 148.294640
 4450         c3    149    bbb     C4   4450 0.18057300  12.010000   ; qtot 148.475213
 4451         hc    149    bbb     H7   4451 0.01788900   1.008000   ; qtot 148.493102
 4452         hc    149    bbb     H8   4452 0.01788900   1.008000   ; qtot 148.510991
 4453         c3    149    bbb     C5   4453 -0.11337700  12.010000   ; qtot 148.397614
 4454         hc    149    bbb     H9   4454 0.09515400   1.008000   ; qtot 148.492768
 4455         hc    149    bbb    H10   4455 0.09515400   1.008000   ; qtot 148.587922
 4456         c3    149    bbb     C6   4456 -0.11337700  12.010000   ; qtot 148.474545
 4457         hc    149    bbb    H11   4457 0.09515400   1.008000   ; qtot 148.569699
 4458         hc    149    bbb    H12   4458 0.09515400   1.008000   ; qtot 148.664853
 4459         c3    149    bbb     C7   4459 0.21842400  12.010000   ; qtot 148.883277
 4460         h1    149    bbb    H13   4460 0.04500300   1.008000   ; qtot 148.928280
 4461         h1    149    bbb    H14   4461 0.04500300   1.008000   ; qtot 148.973283
 4462         c3    149    bbb     C8   4462 -0.06455200  12.010000   ; qtot 148.908731
 4463         h1    149    bbb    H15   4463 0.13554100   1.008000   ; qtot 149.044272
 4464         h1    149    bbb    H16   4464 0.13554100   1.008000   ; qtot 149.179813
 4465         c3    149    bbb     C9   4465 -0.06455200  12.010000   ; qtot 149.115261
 4466         h1    149    bbb    H17   4466 0.13554100   1.008000   ; qtot 149.250802
 4467         h1    149    bbb    H18   4467 0.13554100   1.008000   ; qtot 149.386343
 4468         os    149    bbb     O1   4468 -0.62587700  16.000000   ; qtot 148.760466
 4469         hn    149    bbb    H19   4469 0.23982500   1.008000   ; qtot 149.000291
; residue  150 bbb rtp bbb q 1.0
 4470         n4    150    bbb     N1   4470 0.03726400  14.010000   ; qtot 149.037555
 4471         c3    150    bbb     C1   4471 -0.07020100  12.010000   ; qtot 148.967354
 4472         hx    150    bbb     H1   4472 0.12219000   1.008000   ; qtot 149.089544
 4473         hx    150    bbb     H2   4473 0.12219000   1.008000   ; qtot 149.211734
 4474         c3    150    bbb     C2   4474 -0.07020100  12.010000   ; qtot 149.141533
 4475         hx    150    bbb     H3   4475 0.12219000   1.008000   ; qtot 149.263723
 4476         hx    150    bbb     H4   4476 0.12219000   1.008000   ; qtot 149.385913
 4477         c3    150    bbb     C3   4477 -0.39007700  12.010000   ; qtot 148.995836
 4478         hx    150    bbb     H5   4478 0.14940300   1.008000   ; qtot 149.145239
 4479         hx    150    bbb     H6   4479 0.14940300   1.008000   ; qtot 149.294642
 4480         c3    150    bbb     C4   4480 0.18057300  12.010000   ; qtot 149.475215
 4481         hc    150    bbb     H7   4481 0.01788900   1.008000   ; qtot 149.493104
 4482         hc    150    bbb     H8   4482 0.01788900   1.008000   ; qtot 149.510993
 4483         c3    150    bbb     C5   4483 -0.11337700  12.010000   ; qtot 149.397616
 4484         hc    150    bbb     H9   4484 0.09515400   1.008000   ; qtot 149.492770
 4485         hc    150    bbb    H10   4485 0.09515400   1.008000   ; qtot 149.587924
 4486         c3    150    bbb     C6   4486 -0.11337700  12.010000   ; qtot 149.474547
 4487         hc    150    bbb    H11   4487 0.09515400   1.008000   ; qtot 149.569701
 4488         hc    150    bbb    H12   4488 0.09515400   1.008000   ; qtot 149.664855
 4489         c3    150    bbb     C7   4489 0.21842400  12.010000   ; qtot 149.883279
 4490         h1    150    bbb    H13   4490 0.04500300   1.008000   ; qtot 149.928282
 4491         h1    150    bbb    H14   4491 0.04500300   1.008000   ; qtot 149.973285
 4492         c3    150    bbb     C8   4492 -0.06455200  12.010000   ; qtot 149.908733
 4493         h1    150    bbb    H15   4493 0.13554100   1.008000   ; qtot 150.044274
 4494         h1    150    bbb    H16   4494 0.13554100   1.008000   ; qtot 150.179815
 4495         c3    150    bbb     C9   4495 -0.06455200  12.010000   ; qtot 150.115263
 4496         h1    150    bbb    H17   4496 0.13554100   1.008000   ; qtot 150.250804
 4497         h1    150    bbb    H18   4497 0.13554100   1.008000   ; qtot 150.386345
 4498         os    150    bbb     O1   4498 -0.62587700  16.000000   ; qtot 149.760468
 4499         hn    150    bbb    H19   4499 0.23982500   1.008000   ; qtot 150.000293
; residue  151 bbb rtp bbb q 1.0
 4500         n4    151    bbb     N1   4500 0.03726400  14.010000   ; qtot 150.037557
 4501         c3    151    bbb     C1   4501 -0.07020100  12.010000   ; qtot 149.967356
 4502         hx    151    bbb     H1   4502 0.12219000   1.008000   ; qtot 150.089546
 4503         hx    151    bbb     H2   4503 0.12219000   1.008000   ; qtot 150.211736
 4504         c3    151    bbb     C2   4504 -0.07020100  12.010000   ; qtot 150.141535
 4505         hx    151    bbb     H3   4505 0.12219000   1.008000   ; qtot 150.263725
 4506         hx    151    bbb     H4   4506 0.12219000   1.008000   ; qtot 150.385915
 4507         c3    151    bbb     C3   4507 -0.39007700  12.010000   ; qtot 149.995838
 4508         hx    151    bbb     H5   4508 0.14940300   1.008000   ; qtot 150.145241
 4509         hx    151    bbb     H6   4509 0.14940300   1.008000   ; qtot 150.294644
 4510         c3    151    bbb     C4   4510 0.18057300  12.010000   ; qtot 150.475217
 4511         hc    151    bbb     H7   4511 0.01788900   1.008000   ; qtot 150.493106
 4512         hc    151    bbb     H8   4512 0.01788900   1.008000   ; qtot 150.510995
 4513         c3    151    bbb     C5   4513 -0.11337700  12.010000   ; qtot 150.397618
 4514         hc    151    bbb     H9   4514 0.09515400   1.008000   ; qtot 150.492772
 4515         hc    151    bbb    H10   4515 0.09515400   1.008000   ; qtot 150.587926
 4516         c3    151    bbb     C6   4516 -0.11337700  12.010000   ; qtot 150.474549
 4517         hc    151    bbb    H11   4517 0.09515400   1.008000   ; qtot 150.569703
 4518         hc    151    bbb    H12   4518 0.09515400   1.008000   ; qtot 150.664857
 4519         c3    151    bbb     C7   4519 0.21842400  12.010000   ; qtot 150.883281
 4520         h1    151    bbb    H13   4520 0.04500300   1.008000   ; qtot 150.928284
 4521         h1    151    bbb    H14   4521 0.04500300   1.008000   ; qtot 150.973287
 4522         c3    151    bbb     C8   4522 -0.06455200  12.010000   ; qtot 150.908735
 4523         h1    151    bbb    H15   4523 0.13554100   1.008000   ; qtot 151.044276
 4524         h1    151    bbb    H16   4524 0.13554100   1.008000   ; qtot 151.179817
 4525         c3    151    bbb     C9   4525 -0.06455200  12.010000   ; qtot 151.115265
 4526         h1    151    bbb    H17   4526 0.13554100   1.008000   ; qtot 151.250806
 4527         h1    151    bbb    H18   4527 0.13554100   1.008000   ; qtot 151.386347
 4528         os    151    bbb     O1   4528 -0.62587700  16.000000   ; qtot 150.760470
 4529         hn    151    bbb    H19   4529 0.23982500   1.008000   ; qtot 151.000295
; residue  152 bbb rtp bbb q 1.0
 4530         n4    152    bbb     N1   4530 0.03726400  14.010000   ; qtot 151.037559
 4531         c3    152    bbb     C1   4531 -0.07020100  12.010000   ; qtot 150.967358
 4532         hx    152    bbb     H1   4532 0.12219000   1.008000   ; qtot 151.089548
 4533         hx    152    bbb     H2   4533 0.12219000   1.008000   ; qtot 151.211738
 4534         c3    152    bbb     C2   4534 -0.07020100  12.010000   ; qtot 151.141537
 4535         hx    152    bbb     H3   4535 0.12219000   1.008000   ; qtot 151.263727
 4536         hx    152    bbb     H4   4536 0.12219000   1.008000   ; qtot 151.385917
 4537         c3    152    bbb     C3   4537 -0.39007700  12.010000   ; qtot 150.995840
 4538         hx    152    bbb     H5   4538 0.14940300   1.008000   ; qtot 151.145243
 4539         hx    152    bbb     H6   4539 0.14940300   1.008000   ; qtot 151.294646
 4540         c3    152    bbb     C4   4540 0.18057300  12.010000   ; qtot 151.475219
 4541         hc    152    bbb     H7   4541 0.01788900   1.008000   ; qtot 151.493108
 4542         hc    152    bbb     H8   4542 0.01788900   1.008000   ; qtot 151.510997
 4543         c3    152    bbb     C5   4543 -0.11337700  12.010000   ; qtot 151.397620
 4544         hc    152    bbb     H9   4544 0.09515400   1.008000   ; qtot 151.492774
 4545         hc    152    bbb    H10   4545 0.09515400   1.008000   ; qtot 151.587928
 4546         c3    152    bbb     C6   4546 -0.11337700  12.010000   ; qtot 151.474551
 4547         hc    152    bbb    H11   4547 0.09515400   1.008000   ; qtot 151.569705
 4548         hc    152    bbb    H12   4548 0.09515400   1.008000   ; qtot 151.664859
 4549         c3    152    bbb     C7   4549 0.21842400  12.010000   ; qtot 151.883283
 4550         h1    152    bbb    H13   4550 0.04500300   1.008000   ; qtot 151.928286
 4551         h1    152    bbb    H14   4551 0.04500300   1.008000   ; qtot 151.973289
 4552         c3    152    bbb     C8   4552 -0.06455200  12.010000   ; qtot 151.908737
 4553         h1    152    bbb    H15   4553 0.13554100   1.008000   ; qtot 152.044278
 4554         h1    152    bbb    H16   4554 0.13554100   1.008000   ; qtot 152.179819
 4555         c3    152    bbb     C9   4555 -0.06455200  12.010000   ; qtot 152.115267
 4556         h1    152    bbb    H17   4556 0.13554100   1.008000   ; qtot 152.250808
 4557         h1    152    bbb    H18   4557 0.13554100   1.008000   ; qtot 152.386349
 4558         os    152    bbb     O1   4558 -0.62587700  16.000000   ; qtot 151.760472
 4559         hn    152    bbb    H19   4559 0.23982500   1.008000   ; qtot 152.000297
; residue  153 bbb rtp bbb q 1.0
 4560         n4    153    bbb     N1   4560 0.03726400  14.010000   ; qtot 152.037561
 4561         c3    153    bbb     C1   4561 -0.07020100  12.010000   ; qtot 151.967360
 4562         hx    153    bbb     H1   4562 0.12219000   1.008000   ; qtot 152.089550
 4563         hx    153    bbb     H2   4563 0.12219000   1.008000   ; qtot 152.211740
 4564         c3    153    bbb     C2   4564 -0.07020100  12.010000   ; qtot 152.141539
 4565         hx    153    bbb     H3   4565 0.12219000   1.008000   ; qtot 152.263729
 4566         hx    153    bbb     H4   4566 0.12219000   1.008000   ; qtot 152.385919
 4567         c3    153    bbb     C3   4567 -0.39007700  12.010000   ; qtot 151.995842
 4568         hx    153    bbb     H5   4568 0.14940300   1.008000   ; qtot 152.145245
 4569         hx    153    bbb     H6   4569 0.14940300   1.008000   ; qtot 152.294648
 4570         c3    153    bbb     C4   4570 0.18057300  12.010000   ; qtot 152.475221
 4571         hc    153    bbb     H7   4571 0.01788900   1.008000   ; qtot 152.493110
 4572         hc    153    bbb     H8   4572 0.01788900   1.008000   ; qtot 152.510999
 4573         c3    153    bbb     C5   4573 -0.11337700  12.010000   ; qtot 152.397622
 4574         hc    153    bbb     H9   4574 0.09515400   1.008000   ; qtot 152.492776
 4575         hc    153    bbb    H10   4575 0.09515400   1.008000   ; qtot 152.587930
 4576         c3    153    bbb     C6   4576 -0.11337700  12.010000   ; qtot 152.474553
 4577         hc    153    bbb    H11   4577 0.09515400   1.008000   ; qtot 152.569707
 4578         hc    153    bbb    H12   4578 0.09515400   1.008000   ; qtot 152.664861
 4579         c3    153    bbb     C7   4579 0.21842400  12.010000   ; qtot 152.883285
 4580         h1    153    bbb    H13   4580 0.04500300   1.008000   ; qtot 152.928288
 4581         h1    153    bbb    H14   4581 0.04500300   1.008000   ; qtot 152.973291
 4582         c3    153    bbb     C8   4582 -0.06455200  12.010000   ; qtot 152.908739
 4583         h1    153    bbb    H15   4583 0.13554100   1.008000   ; qtot 153.044280
 4584         h1    153    bbb    H16   4584 0.13554100   1.008000   ; qtot 153.179821
 4585         c3    153    bbb     C9   4585 -0.06455200  12.010000   ; qtot 153.115269
 4586         h1    153    bbb    H17   4586 0.13554100   1.008000   ; qtot 153.250810
 4587         h1    153    bbb    H18   4587 0.13554100   1.008000   ; qtot 153.386351
 4588         os    153    bbb     O1   4588 -0.62587700  16.000000   ; qtot 152.760474
 4589         hn    153    bbb    H19   4589 0.23982500   1.008000   ; qtot 153.000299
; residue  154 bbb rtp bbb q 1.0
 4590         n4    154    bbb     N1   4590 0.03726400  14.010000   ; qtot 153.037563
 4591         c3    154    bbb     C1   4591 -0.07020100  12.010000   ; qtot 152.967362
 4592         hx    154    bbb     H1   4592 0.12219000   1.008000   ; qtot 153.089552
 4593         hx    154    bbb     H2   4593 0.12219000   1.008000   ; qtot 153.211742
 4594         c3    154    bbb     C2   4594 -0.07020100  12.010000   ; qtot 153.141541
 4595         hx    154    bbb     H3   4595 0.12219000   1.008000   ; qtot 153.263731
 4596         hx    154    bbb     H4   4596 0.12219000   1.008000   ; qtot 153.385921
 4597         c3    154    bbb     C3   4597 -0.39007700  12.010000   ; qtot 152.995844
 4598         hx    154    bbb     H5   4598 0.14940300   1.008000   ; qtot 153.145247
 4599         hx    154    bbb     H6   4599 0.14940300   1.008000   ; qtot 153.294650
 4600         c3    154    bbb     C4   4600 0.18057300  12.010000   ; qtot 153.475223
 4601         hc    154    bbb     H7   4601 0.01788900   1.008000   ; qtot 153.493112
 4602         hc    154    bbb     H8   4602 0.01788900   1.008000   ; qtot 153.511001
 4603         c3    154    bbb     C5   4603 -0.11337700  12.010000   ; qtot 153.397624
 4604         hc    154    bbb     H9   4604 0.09515400   1.008000   ; qtot 153.492778
 4605         hc    154    bbb    H10   4605 0.09515400   1.008000   ; qtot 153.587932
 4606         c3    154    bbb     C6   4606 -0.11337700  12.010000   ; qtot 153.474555
 4607         hc    154    bbb    H11   4607 0.09515400   1.008000   ; qtot 153.569709
 4608         hc    154    bbb    H12   4608 0.09515400   1.008000   ; qtot 153.664863
 4609         c3    154    bbb     C7   4609 0.21842400  12.010000   ; qtot 153.883287
 4610         h1    154    bbb    H13   4610 0.04500300   1.008000   ; qtot 153.928290
 4611         h1    154    bbb    H14   4611 0.04500300   1.008000   ; qtot 153.973293
 4612         c3    154    bbb     C8   4612 -0.06455200  12.010000   ; qtot 153.908741
 4613         h1    154    bbb    H15   4613 0.13554100   1.008000   ; qtot 154.044282
 4614         h1    154    bbb    H16   4614 0.13554100   1.008000   ; qtot 154.179823
 4615         c3    154    bbb     C9   4615 -0.06455200  12.010000   ; qtot 154.115271
 4616         h1    154    bbb    H17   4616 0.13554100   1.008000   ; qtot 154.250812
 4617         h1    154    bbb    H18   4617 0.13554100   1.008000   ; qtot 154.386353
 4618         os    154    bbb     O1   4618 -0.62587700  16.000000   ; qtot 153.760476
 4619         hn    154    bbb    H19   4619 0.23982500   1.008000   ; qtot 154.000301
; residue  155 bbb rtp bbb q 1.0
 4620         n4    155    bbb     N1   4620 0.03726400  14.010000   ; qtot 154.037565
 4621         c3    155    bbb     C1   4621 -0.07020100  12.010000   ; qtot 153.967364
 4622         hx    155    bbb     H1   4622 0.12219000   1.008000   ; qtot 154.089554
 4623         hx    155    bbb     H2   4623 0.12219000   1.008000   ; qtot 154.211744
 4624         c3    155    bbb     C2   4624 -0.07020100  12.010000   ; qtot 154.141543
 4625         hx    155    bbb     H3   4625 0.12219000   1.008000   ; qtot 154.263733
 4626         hx    155    bbb     H4   4626 0.12219000   1.008000   ; qtot 154.385923
 4627         c3    155    bbb     C3   4627 -0.39007700  12.010000   ; qtot 153.995846
 4628         hx    155    bbb     H5   4628 0.14940300   1.008000   ; qtot 154.145249
 4629         hx    155    bbb     H6   4629 0.14940300   1.008000   ; qtot 154.294652
 4630         c3    155    bbb     C4   4630 0.18057300  12.010000   ; qtot 154.475225
 4631         hc    155    bbb     H7   4631 0.01788900   1.008000   ; qtot 154.493114
 4632         hc    155    bbb     H8   4632 0.01788900   1.008000   ; qtot 154.511003
 4633         c3    155    bbb     C5   4633 -0.11337700  12.010000   ; qtot 154.397626
 4634         hc    155    bbb     H9   4634 0.09515400   1.008000   ; qtot 154.492780
 4635         hc    155    bbb    H10   4635 0.09515400   1.008000   ; qtot 154.587934
 4636         c3    155    bbb     C6   4636 -0.11337700  12.010000   ; qtot 154.474557
 4637         hc    155    bbb    H11   4637 0.09515400   1.008000   ; qtot 154.569711
 4638         hc    155    bbb    H12   4638 0.09515400   1.008000   ; qtot 154.664865
 4639         c3    155    bbb     C7   4639 0.21842400  12.010000   ; qtot 154.883289
 4640         h1    155    bbb    H13   4640 0.04500300   1.008000   ; qtot 154.928292
 4641         h1    155    bbb    H14   4641 0.04500300   1.008000   ; qtot 154.973295
 4642         c3    155    bbb     C8   4642 -0.06455200  12.010000   ; qtot 154.908743
 4643         h1    155    bbb    H15   4643 0.13554100   1.008000   ; qtot 155.044284
 4644         h1    155    bbb    H16   4644 0.13554100   1.008000   ; qtot 155.179825
 4645         c3    155    bbb     C9   4645 -0.06455200  12.010000   ; qtot 155.115273
 4646         h1    155    bbb    H17   4646 0.13554100   1.008000   ; qtot 155.250814
 4647         h1    155    bbb    H18   4647 0.13554100   1.008000   ; qtot 155.386355
 4648         os    155    bbb     O1   4648 -0.62587700  16.000000   ; qtot 154.760478
 4649         hn    155    bbb    H19   4649 0.23982500   1.008000   ; qtot 155.000303
; residue  156 bbb rtp bbb q 1.0
 4650         n4    156    bbb     N1   4650 0.03726400  14.010000   ; qtot 155.037567
 4651         c3    156    bbb     C1   4651 -0.07020100  12.010000   ; qtot 154.967366
 4652         hx    156    bbb     H1   4652 0.12219000   1.008000   ; qtot 155.089556
 4653         hx    156    bbb     H2   4653 0.12219000   1.008000   ; qtot 155.211746
 4654         c3    156    bbb     C2   4654 -0.07020100  12.010000   ; qtot 155.141545
 4655         hx    156    bbb     H3   4655 0.12219000   1.008000   ; qtot 155.263735
 4656         hx    156    bbb     H4   4656 0.12219000   1.008000   ; qtot 155.385925
 4657         c3    156    bbb     C3   4657 -0.39007700  12.010000   ; qtot 154.995848
 4658         hx    156    bbb     H5   4658 0.14940300   1.008000   ; qtot 155.145251
 4659         hx    156    bbb     H6   4659 0.14940300   1.008000   ; qtot 155.294654
 4660         c3    156    bbb     C4   4660 0.18057300  12.010000   ; qtot 155.475227
 4661         hc    156    bbb     H7   4661 0.01788900   1.008000   ; qtot 155.493116
 4662         hc    156    bbb     H8   4662 0.01788900   1.008000   ; qtot 155.511005
 4663         c3    156    bbb     C5   4663 -0.11337700  12.010000   ; qtot 155.397628
 4664         hc    156    bbb     H9   4664 0.09515400   1.008000   ; qtot 155.492782
 4665         hc    156    bbb    H10   4665 0.09515400   1.008000   ; qtot 155.587936
 4666         c3    156    bbb     C6   4666 -0.11337700  12.010000   ; qtot 155.474559
 4667         hc    156    bbb    H11   4667 0.09515400   1.008000   ; qtot 155.569713
 4668         hc    156    bbb    H12   4668 0.09515400   1.008000   ; qtot 155.664867
 4669         c3    156    bbb     C7   4669 0.21842400  12.010000   ; qtot 155.883291
 4670         h1    156    bbb    H13   4670 0.04500300   1.008000   ; qtot 155.928294
 4671         h1    156    bbb    H14   4671 0.04500300   1.008000   ; qtot 155.973297
 4672         c3    156    bbb     C8   4672 -0.06455200  12.010000   ; qtot 155.908745
 4673         h1    156    bbb    H15   4673 0.13554100   1.008000   ; qtot 156.044286
 4674         h1    156    bbb    H16   4674 0.13554100   1.008000   ; qtot 156.179827
 4675         c3    156    bbb     C9   4675 -0.06455200  12.010000   ; qtot 156.115275
 4676         h1    156    bbb    H17   4676 0.13554100   1.008000   ; qtot 156.250816
 4677         h1    156    bbb    H18   4677 0.13554100   1.008000   ; qtot 156.386357
 4678         os    156    bbb     O1   4678 -0.62587700  16.000000   ; qtot 155.760480
 4679         hn    156    bbb    H19   4679 0.23982500   1.008000   ; qtot 156.000305
; residue  157 bbb rtp bbb q 1.0
 4680         n4    157    bbb     N1   4680 0.03726400  14.010000   ; qtot 156.037569
 4681         c3    157    bbb     C1   4681 -0.07020100  12.010000   ; qtot 155.967368
 4682         hx    157    bbb     H1   4682 0.12219000   1.008000   ; qtot 156.089558
 4683         hx    157    bbb     H2   4683 0.12219000   1.008000   ; qtot 156.211748
 4684         c3    157    bbb     C2   4684 -0.07020100  12.010000   ; qtot 156.141547
 4685         hx    157    bbb     H3   4685 0.12219000   1.008000   ; qtot 156.263737
 4686         hx    157    bbb     H4   4686 0.12219000   1.008000   ; qtot 156.385927
 4687         c3    157    bbb     C3   4687 -0.39007700  12.010000   ; qtot 155.995850
 4688         hx    157    bbb     H5   4688 0.14940300   1.008000   ; qtot 156.145253
 4689         hx    157    bbb     H6   4689 0.14940300   1.008000   ; qtot 156.294656
 4690         c3    157    bbb     C4   4690 0.18057300  12.010000   ; qtot 156.475229
 4691         hc    157    bbb     H7   4691 0.01788900   1.008000   ; qtot 156.493118
 4692         hc    157    bbb     H8   4692 0.01788900   1.008000   ; qtot 156.511007
 4693         c3    157    bbb     C5   4693 -0.11337700  12.010000   ; qtot 156.397630
 4694         hc    157    bbb     H9   4694 0.09515400   1.008000   ; qtot 156.492784
 4695         hc    157    bbb    H10   4695 0.09515400   1.008000   ; qtot 156.587938
 4696         c3    157    bbb     C6   4696 -0.11337700  12.010000   ; qtot 156.474561
 4697         hc    157    bbb    H11   4697 0.09515400   1.008000   ; qtot 156.569715
 4698         hc    157    bbb    H12   4698 0.09515400   1.008000   ; qtot 156.664869
 4699         c3    157    bbb     C7   4699 0.21842400  12.010000   ; qtot 156.883293
 4700         h1    157    bbb    H13   4700 0.04500300   1.008000   ; qtot 156.928296
 4701         h1    157    bbb    H14   4701 0.04500300   1.008000   ; qtot 156.973299
 4702         c3    157    bbb     C8   4702 -0.06455200  12.010000   ; qtot 156.908747
 4703         h1    157    bbb    H15   4703 0.13554100   1.008000   ; qtot 157.044288
 4704         h1    157    bbb    H16   4704 0.13554100   1.008000   ; qtot 157.179829
 4705         c3    157    bbb     C9   4705 -0.06455200  12.010000   ; qtot 157.115277
 4706         h1    157    bbb    H17   4706 0.13554100   1.008000   ; qtot 157.250818
 4707         h1    157    bbb    H18   4707 0.13554100   1.008000   ; qtot 157.386359
 4708         os    157    bbb     O1   4708 -0.62587700  16.000000   ; qtot 156.760482
 4709         hn    157    bbb    H19   4709 0.23982500   1.008000   ; qtot 157.000307
; residue  158 bbb rtp bbb q 1.0
 4710         n4    158    bbb     N1   4710 0.03726400  14.010000   ; qtot 157.037571
 4711         c3    158    bbb     C1   4711 -0.07020100  12.010000   ; qtot 156.967370
 4712         hx    158    bbb     H1   4712 0.12219000   1.008000   ; qtot 157.089560
 4713         hx    158    bbb     H2   4713 0.12219000   1.008000   ; qtot 157.211750
 4714         c3    158    bbb     C2   4714 -0.07020100  12.010000   ; qtot 157.141549
 4715         hx    158    bbb     H3   4715 0.12219000   1.008000   ; qtot 157.263739
 4716         hx    158    bbb     H4   4716 0.12219000   1.008000   ; qtot 157.385929
 4717         c3    158    bbb     C3   4717 -0.39007700  12.010000   ; qtot 156.995852
 4718         hx    158    bbb     H5   4718 0.14940300   1.008000   ; qtot 157.145255
 4719         hx    158    bbb     H6   4719 0.14940300   1.008000   ; qtot 157.294658
 4720         c3    158    bbb     C4   4720 0.18057300  12.010000   ; qtot 157.475231
 4721         hc    158    bbb     H7   4721 0.01788900   1.008000   ; qtot 157.493120
 4722         hc    158    bbb     H8   4722 0.01788900   1.008000   ; qtot 157.511009
 4723         c3    158    bbb     C5   4723 -0.11337700  12.010000   ; qtot 157.397632
 4724         hc    158    bbb     H9   4724 0.09515400   1.008000   ; qtot 157.492786
 4725         hc    158    bbb    H10   4725 0.09515400   1.008000   ; qtot 157.587940
 4726         c3    158    bbb     C6   4726 -0.11337700  12.010000   ; qtot 157.474563
 4727         hc    158    bbb    H11   4727 0.09515400   1.008000   ; qtot 157.569717
 4728         hc    158    bbb    H12   4728 0.09515400   1.008000   ; qtot 157.664871
 4729         c3    158    bbb     C7   4729 0.21842400  12.010000   ; qtot 157.883295
 4730         h1    158    bbb    H13   4730 0.04500300   1.008000   ; qtot 157.928298
 4731         h1    158    bbb    H14   4731 0.04500300   1.008000   ; qtot 157.973301
 4732         c3    158    bbb     C8   4732 -0.06455200  12.010000   ; qtot 157.908749
 4733         h1    158    bbb    H15   4733 0.13554100   1.008000   ; qtot 158.044290
 4734         h1    158    bbb    H16   4734 0.13554100   1.008000   ; qtot 158.179831
 4735         c3    158    bbb     C9   4735 -0.06455200  12.010000   ; qtot 158.115279
 4736         h1    158    bbb    H17   4736 0.13554100   1.008000   ; qtot 158.250820
 4737         h1    158    bbb    H18   4737 0.13554100   1.008000   ; qtot 158.386361
 4738         os    158    bbb     O1   4738 -0.62587700  16.000000   ; qtot 157.760484
 4739         hn    158    bbb    H19   4739 0.23982500   1.008000   ; qtot 158.000309
; residue  159 bbb rtp bbb q 1.0
 4740         n4    159    bbb     N1   4740 0.03726400  14.010000   ; qtot 158.037573
 4741         c3    159    bbb     C1   4741 -0.07020100  12.010000   ; qtot 157.967372
 4742         hx    159    bbb     H1   4742 0.12219000   1.008000   ; qtot 158.089562
 4743         hx    159    bbb     H2   4743 0.12219000   1.008000   ; qtot 158.211752
 4744         c3    159    bbb     C2   4744 -0.07020100  12.010000   ; qtot 158.141551
 4745         hx    159    bbb     H3   4745 0.12219000   1.008000   ; qtot 158.263741
 4746         hx    159    bbb     H4   4746 0.12219000   1.008000   ; qtot 158.385931
 4747         c3    159    bbb     C3   4747 -0.39007700  12.010000   ; qtot 157.995854
 4748         hx    159    bbb     H5   4748 0.14940300   1.008000   ; qtot 158.145257
 4749         hx    159    bbb     H6   4749 0.14940300   1.008000   ; qtot 158.294660
 4750         c3    159    bbb     C4   4750 0.18057300  12.010000   ; qtot 158.475233
 4751         hc    159    bbb     H7   4751 0.01788900   1.008000   ; qtot 158.493122
 4752         hc    159    bbb     H8   4752 0.01788900   1.008000   ; qtot 158.511011
 4753         c3    159    bbb     C5   4753 -0.11337700  12.010000   ; qtot 158.397634
 4754         hc    159    bbb     H9   4754 0.09515400   1.008000   ; qtot 158.492788
 4755         hc    159    bbb    H10   4755 0.09515400   1.008000   ; qtot 158.587942
 4756         c3    159    bbb     C6   4756 -0.11337700  12.010000   ; qtot 158.474565
 4757         hc    159    bbb    H11   4757 0.09515400   1.008000   ; qtot 158.569719
 4758         hc    159    bbb    H12   4758 0.09515400   1.008000   ; qtot 158.664873
 4759         c3    159    bbb     C7   4759 0.21842400  12.010000   ; qtot 158.883297
 4760         h1    159    bbb    H13   4760 0.04500300   1.008000   ; qtot 158.928300
 4761         h1    159    bbb    H14   4761 0.04500300   1.008000   ; qtot 158.973303
 4762         c3    159    bbb     C8   4762 -0.06455200  12.010000   ; qtot 158.908751
 4763         h1    159    bbb    H15   4763 0.13554100   1.008000   ; qtot 159.044292
 4764         h1    159    bbb    H16   4764 0.13554100   1.008000   ; qtot 159.179833
 4765         c3    159    bbb     C9   4765 -0.06455200  12.010000   ; qtot 159.115281
 4766         h1    159    bbb    H17   4766 0.13554100   1.008000   ; qtot 159.250822
 4767         h1    159    bbb    H18   4767 0.13554100   1.008000   ; qtot 159.386363
 4768         os    159    bbb     O1   4768 -0.62587700  16.000000   ; qtot 158.760486
 4769         hn    159    bbb    H19   4769 0.23982500   1.008000   ; qtot 159.000311
; residue  160 bbb rtp bbb q 1.0
 4770         n4    160    bbb     N1   4770 0.03726400  14.010000   ; qtot 159.037575
 4771         c3    160    bbb     C1   4771 -0.07020100  12.010000   ; qtot 158.967374
 4772         hx    160    bbb     H1   4772 0.12219000   1.008000   ; qtot 159.089564
 4773         hx    160    bbb     H2   4773 0.12219000   1.008000   ; qtot 159.211754
 4774         c3    160    bbb     C2   4774 -0.07020100  12.010000   ; qtot 159.141553
 4775         hx    160    bbb     H3   4775 0.12219000   1.008000   ; qtot 159.263743
 4776         hx    160    bbb     H4   4776 0.12219000   1.008000   ; qtot 159.385933
 4777         c3    160    bbb     C3   4777 -0.39007700  12.010000   ; qtot 158.995856
 4778         hx    160    bbb     H5   4778 0.14940300   1.008000   ; qtot 159.145259
 4779         hx    160    bbb     H6   4779 0.14940300   1.008000   ; qtot 159.294662
 4780         c3    160    bbb     C4   4780 0.18057300  12.010000   ; qtot 159.475235
 4781         hc    160    bbb     H7   4781 0.01788900   1.008000   ; qtot 159.493124
 4782         hc    160    bbb     H8   4782 0.01788900   1.008000   ; qtot 159.511013
 4783         c3    160    bbb     C5   4783 -0.11337700  12.010000   ; qtot 159.397636
 4784         hc    160    bbb     H9   4784 0.09515400   1.008000   ; qtot 159.492790
 4785         hc    160    bbb    H10   4785 0.09515400   1.008000   ; qtot 159.587944
 4786         c3    160    bbb     C6   4786 -0.11337700  12.010000   ; qtot 159.474567
 4787         hc    160    bbb    H11   4787 0.09515400   1.008000   ; qtot 159.569721
 4788         hc    160    bbb    H12   4788 0.09515400   1.008000   ; qtot 159.664875
 4789         c3    160    bbb     C7   4789 0.21842400  12.010000   ; qtot 159.883299
 4790         h1    160    bbb    H13   4790 0.04500300   1.008000   ; qtot 159.928302
 4791         h1    160    bbb    H14   4791 0.04500300   1.008000   ; qtot 159.973305
 4792         c3    160    bbb     C8   4792 -0.06455200  12.010000   ; qtot 159.908753
 4793         h1    160    bbb    H15   4793 0.13554100   1.008000   ; qtot 160.044294
 4794         h1    160    bbb    H16   4794 0.13554100   1.008000   ; qtot 160.179835
 4795         c3    160    bbb     C9   4795 -0.06455200  12.010000   ; qtot 160.115283
 4796         h1    160    bbb    H17   4796 0.13554100   1.008000   ; qtot 160.250824
 4797         h1    160    bbb    H18   4797 0.13554100   1.008000   ; qtot 160.386365
 4798         os    160    bbb     O1   4798 -0.62587700  16.000000   ; qtot 159.760488
 4799         hn    160    bbb    H19   4799 0.23982500   1.008000   ; qtot 160.000313
; residue  161 bbb rtp bbb q 1.0
 4800         n4    161    bbb     N1   4800 0.03726400  14.010000   ; qtot 160.037577
 4801         c3    161    bbb     C1   4801 -0.07020100  12.010000   ; qtot 159.967376
 4802         hx    161    bbb     H1   4802 0.12219000   1.008000   ; qtot 160.089566
 4803         hx    161    bbb     H2   4803 0.12219000   1.008000   ; qtot 160.211756
 4804         c3    161    bbb     C2   4804 -0.07020100  12.010000   ; qtot 160.141555
 4805         hx    161    bbb     H3   4805 0.12219000   1.008000   ; qtot 160.263745
 4806         hx    161    bbb     H4   4806 0.12219000   1.008000   ; qtot 160.385935
 4807         c3    161    bbb     C3   4807 -0.39007700  12.010000   ; qtot 159.995858
 4808         hx    161    bbb     H5   4808 0.14940300   1.008000   ; qtot 160.145261
 4809         hx    161    bbb     H6   4809 0.14940300   1.008000   ; qtot 160.294664
 4810         c3    161    bbb     C4   4810 0.18057300  12.010000   ; qtot 160.475237
 4811         hc    161    bbb     H7   4811 0.01788900   1.008000   ; qtot 160.493126
 4812         hc    161    bbb     H8   4812 0.01788900   1.008000   ; qtot 160.511015
 4813         c3    161    bbb     C5   4813 -0.11337700  12.010000   ; qtot 160.397638
 4814         hc    161    bbb     H9   4814 0.09515400   1.008000   ; qtot 160.492792
 4815         hc    161    bbb    H10   4815 0.09515400   1.008000   ; qtot 160.587946
 4816         c3    161    bbb     C6   4816 -0.11337700  12.010000   ; qtot 160.474569
 4817         hc    161    bbb    H11   4817 0.09515400   1.008000   ; qtot 160.569723
 4818         hc    161    bbb    H12   4818 0.09515400   1.008000   ; qtot 160.664877
 4819         c3    161    bbb     C7   4819 0.21842400  12.010000   ; qtot 160.883301
 4820         h1    161    bbb    H13   4820 0.04500300   1.008000   ; qtot 160.928304
 4821         h1    161    bbb    H14   4821 0.04500300   1.008000   ; qtot 160.973307
 4822         c3    161    bbb     C8   4822 -0.06455200  12.010000   ; qtot 160.908755
 4823         h1    161    bbb    H15   4823 0.13554100   1.008000   ; qtot 161.044296
 4824         h1    161    bbb    H16   4824 0.13554100   1.008000   ; qtot 161.179837
 4825         c3    161    bbb     C9   4825 -0.06455200  12.010000   ; qtot 161.115285
 4826         h1    161    bbb    H17   4826 0.13554100   1.008000   ; qtot 161.250826
 4827         h1    161    bbb    H18   4827 0.13554100   1.008000   ; qtot 161.386367
 4828         os    161    bbb     O1   4828 -0.62587700  16.000000   ; qtot 160.760490
 4829         hn    161    bbb    H19   4829 0.23982500   1.008000   ; qtot 161.000315
; residue  162 bbb rtp bbb q 1.0
 4830         n4    162    bbb     N1   4830 0.03726400  14.010000   ; qtot 161.037579
 4831         c3    162    bbb     C1   4831 -0.07020100  12.010000   ; qtot 160.967378
 4832         hx    162    bbb     H1   4832 0.12219000   1.008000   ; qtot 161.089568
 4833         hx    162    bbb     H2   4833 0.12219000   1.008000   ; qtot 161.211758
 4834         c3    162    bbb     C2   4834 -0.07020100  12.010000   ; qtot 161.141557
 4835         hx    162    bbb     H3   4835 0.12219000   1.008000   ; qtot 161.263747
 4836         hx    162    bbb     H4   4836 0.12219000   1.008000   ; qtot 161.385937
 4837         c3    162    bbb     C3   4837 -0.39007700  12.010000   ; qtot 160.995860
 4838         hx    162    bbb     H5   4838 0.14940300   1.008000   ; qtot 161.145263
 4839         hx    162    bbb     H6   4839 0.14940300   1.008000   ; qtot 161.294666
 4840         c3    162    bbb     C4   4840 0.18057300  12.010000   ; qtot 161.475239
 4841         hc    162    bbb     H7   4841 0.01788900   1.008000   ; qtot 161.493128
 4842         hc    162    bbb     H8   4842 0.01788900   1.008000   ; qtot 161.511017
 4843         c3    162    bbb     C5   4843 -0.11337700  12.010000   ; qtot 161.397640
 4844         hc    162    bbb     H9   4844 0.09515400   1.008000   ; qtot 161.492794
 4845         hc    162    bbb    H10   4845 0.09515400   1.008000   ; qtot 161.587948
 4846         c3    162    bbb     C6   4846 -0.11337700  12.010000   ; qtot 161.474571
 4847         hc    162    bbb    H11   4847 0.09515400   1.008000   ; qtot 161.569725
 4848         hc    162    bbb    H12   4848 0.09515400   1.008000   ; qtot 161.664879
 4849         c3    162    bbb     C7   4849 0.21842400  12.010000   ; qtot 161.883303
 4850         h1    162    bbb    H13   4850 0.04500300   1.008000   ; qtot 161.928306
 4851         h1    162    bbb    H14   4851 0.04500300   1.008000   ; qtot 161.973309
 4852         c3    162    bbb     C8   4852 -0.06455200  12.010000   ; qtot 161.908757
 4853         h1    162    bbb    H15   4853 0.13554100   1.008000   ; qtot 162.044298
 4854         h1    162    bbb    H16   4854 0.13554100   1.008000   ; qtot 162.179839
 4855         c3    162    bbb     C9   4855 -0.06455200  12.010000   ; qtot 162.115287
 4856         h1    162    bbb    H17   4856 0.13554100   1.008000   ; qtot 162.250828
 4857         h1    162    bbb    H18   4857 0.13554100   1.008000   ; qtot 162.386369
 4858         os    162    bbb     O1   4858 -0.62587700  16.000000   ; qtot 161.760492
 4859         hn    162    bbb    H19   4859 0.23982500   1.008000   ; qtot 162.000317
; residue  163 bbb rtp bbb q 1.0
 4860         n4    163    bbb     N1   4860 0.03726400  14.010000   ; qtot 162.037581
 4861         c3    163    bbb     C1   4861 -0.07020100  12.010000   ; qtot 161.967380
 4862         hx    163    bbb     H1   4862 0.12219000   1.008000   ; qtot 162.089570
 4863         hx    163    bbb     H2   4863 0.12219000   1.008000   ; qtot 162.211760
 4864         c3    163    bbb     C2   4864 -0.07020100  12.010000   ; qtot 162.141559
 4865         hx    163    bbb     H3   4865 0.12219000   1.008000   ; qtot 162.263749
 4866         hx    163    bbb     H4   4866 0.12219000   1.008000   ; qtot 162.385939
 4867         c3    163    bbb     C3   4867 -0.39007700  12.010000   ; qtot 161.995862
 4868         hx    163    bbb     H5   4868 0.14940300   1.008000   ; qtot 162.145265
 4869         hx    163    bbb     H6   4869 0.14940300   1.008000   ; qtot 162.294668
 4870         c3    163    bbb     C4   4870 0.18057300  12.010000   ; qtot 162.475241
 4871         hc    163    bbb     H7   4871 0.01788900   1.008000   ; qtot 162.493130
 4872         hc    163    bbb     H8   4872 0.01788900   1.008000   ; qtot 162.511019
 4873         c3    163    bbb     C5   4873 -0.11337700  12.010000   ; qtot 162.397642
 4874         hc    163    bbb     H9   4874 0.09515400   1.008000   ; qtot 162.492796
 4875         hc    163    bbb    H10   4875 0.09515400   1.008000   ; qtot 162.587950
 4876         c3    163    bbb     C6   4876 -0.11337700  12.010000   ; qtot 162.474573
 4877         hc    163    bbb    H11   4877 0.09515400   1.008000   ; qtot 162.569727
 4878         hc    163    bbb    H12   4878 0.09515400   1.008000   ; qtot 162.664881
 4879         c3    163    bbb     C7   4879 0.21842400  12.010000   ; qtot 162.883305
 4880         h1    163    bbb    H13   4880 0.04500300   1.008000   ; qtot 162.928308
 4881         h1    163    bbb    H14   4881 0.04500300   1.008000   ; qtot 162.973311
 4882         c3    163    bbb     C8   4882 -0.06455200  12.010000   ; qtot 162.908759
 4883         h1    163    bbb    H15   4883 0.13554100   1.008000   ; qtot 163.044300
 4884         h1    163    bbb    H16   4884 0.13554100   1.008000   ; qtot 163.179841
 4885         c3    163    bbb     C9   4885 -0.06455200  12.010000   ; qtot 163.115289
 4886         h1    163    bbb    H17   4886 0.13554100   1.008000   ; qtot 163.250830
 4887         h1    163    bbb    H18   4887 0.13554100   1.008000   ; qtot 163.386371
 4888         os    163    bbb     O1   4888 -0.62587700  16.000000   ; qtot 162.760494
 4889         hn    163    bbb    H19   4889 0.23982500   1.008000   ; qtot 163.000319
; residue  164 bbb rtp bbb q 1.0
 4890         n4    164    bbb     N1   4890 0.03726400  14.010000   ; qtot 163.037583
 4891         c3    164    bbb     C1   4891 -0.07020100  12.010000   ; qtot 162.967382
 4892         hx    164    bbb     H1   4892 0.12219000   1.008000   ; qtot 163.089572
 4893         hx    164    bbb     H2   4893 0.12219000   1.008000   ; qtot 163.211762
 4894         c3    164    bbb     C2   4894 -0.07020100  12.010000   ; qtot 163.141561
 4895         hx    164    bbb     H3   4895 0.12219000   1.008000   ; qtot 163.263751
 4896         hx    164    bbb     H4   4896 0.12219000   1.008000   ; qtot 163.385941
 4897         c3    164    bbb     C3   4897 -0.39007700  12.010000   ; qtot 162.995864
 4898         hx    164    bbb     H5   4898 0.14940300   1.008000   ; qtot 163.145267
 4899         hx    164    bbb     H6   4899 0.14940300   1.008000   ; qtot 163.294670
 4900         c3    164    bbb     C4   4900 0.18057300  12.010000   ; qtot 163.475243
 4901         hc    164    bbb     H7   4901 0.01788900   1.008000   ; qtot 163.493132
 4902         hc    164    bbb     H8   4902 0.01788900   1.008000   ; qtot 163.511021
 4903         c3    164    bbb     C5   4903 -0.11337700  12.010000   ; qtot 163.397644
 4904         hc    164    bbb     H9   4904 0.09515400   1.008000   ; qtot 163.492798
 4905         hc    164    bbb    H10   4905 0.09515400   1.008000   ; qtot 163.587952
 4906         c3    164    bbb     C6   4906 -0.11337700  12.010000   ; qtot 163.474575
 4907         hc    164    bbb    H11   4907 0.09515400   1.008000   ; qtot 163.569729
 4908         hc    164    bbb    H12   4908 0.09515400   1.008000   ; qtot 163.664883
 4909         c3    164    bbb     C7   4909 0.21842400  12.010000   ; qtot 163.883307
 4910         h1    164    bbb    H13   4910 0.04500300   1.008000   ; qtot 163.928310
 4911         h1    164    bbb    H14   4911 0.04500300   1.008000   ; qtot 163.973313
 4912         c3    164    bbb     C8   4912 -0.06455200  12.010000   ; qtot 163.908761
 4913         h1    164    bbb    H15   4913 0.13554100   1.008000   ; qtot 164.044302
 4914         h1    164    bbb    H16   4914 0.13554100   1.008000   ; qtot 164.179843
 4915         c3    164    bbb     C9   4915 -0.06455200  12.010000   ; qtot 164.115291
 4916         h1    164    bbb    H17   4916 0.13554100   1.008000   ; qtot 164.250832
 4917         h1    164    bbb    H18   4917 0.13554100   1.008000   ; qtot 164.386373
 4918         os    164    bbb     O1   4918 -0.62587700  16.000000   ; qtot 163.760496
 4919         hn    164    bbb    H19   4919 0.23982500   1.008000   ; qtot 164.000321
; residue  165 bbb rtp bbb q 1.0
 4920         n4    165    bbb     N1   4920 0.03726400  14.010000   ; qtot 164.037585
 4921         c3    165    bbb     C1   4921 -0.07020100  12.010000   ; qtot 163.967384
 4922         hx    165    bbb     H1   4922 0.12219000   1.008000   ; qtot 164.089574
 4923         hx    165    bbb     H2   4923 0.12219000   1.008000   ; qtot 164.211764
 4924         c3    165    bbb     C2   4924 -0.07020100  12.010000   ; qtot 164.141563
 4925         hx    165    bbb     H3   4925 0.12219000   1.008000   ; qtot 164.263753
 4926         hx    165    bbb     H4   4926 0.12219000   1.008000   ; qtot 164.385943
 4927         c3    165    bbb     C3   4927 -0.39007700  12.010000   ; qtot 163.995866
 4928         hx    165    bbb     H5   4928 0.14940300   1.008000   ; qtot 164.145269
 4929         hx    165    bbb     H6   4929 0.14940300   1.008000   ; qtot 164.294672
 4930         c3    165    bbb     C4   4930 0.18057300  12.010000   ; qtot 164.475245
 4931         hc    165    bbb     H7   4931 0.01788900   1.008000   ; qtot 164.493134
 4932         hc    165    bbb     H8   4932 0.01788900   1.008000   ; qtot 164.511023
 4933         c3    165    bbb     C5   4933 -0.11337700  12.010000   ; qtot 164.397646
 4934         hc    165    bbb     H9   4934 0.09515400   1.008000   ; qtot 164.492800
 4935         hc    165    bbb    H10   4935 0.09515400   1.008000   ; qtot 164.587954
 4936         c3    165    bbb     C6   4936 -0.11337700  12.010000   ; qtot 164.474577
 4937         hc    165    bbb    H11   4937 0.09515400   1.008000   ; qtot 164.569731
 4938         hc    165    bbb    H12   4938 0.09515400   1.008000   ; qtot 164.664885
 4939         c3    165    bbb     C7   4939 0.21842400  12.010000   ; qtot 164.883309
 4940         h1    165    bbb    H13   4940 0.04500300   1.008000   ; qtot 164.928312
 4941         h1    165    bbb    H14   4941 0.04500300   1.008000   ; qtot 164.973315
 4942         c3    165    bbb     C8   4942 -0.06455200  12.010000   ; qtot 164.908763
 4943         h1    165    bbb    H15   4943 0.13554100   1.008000   ; qtot 165.044304
 4944         h1    165    bbb    H16   4944 0.13554100   1.008000   ; qtot 165.179845
 4945         c3    165    bbb     C9   4945 -0.06455200  12.010000   ; qtot 165.115293
 4946         h1    165    bbb    H17   4946 0.13554100   1.008000   ; qtot 165.250834
 4947         h1    165    bbb    H18   4947 0.13554100   1.008000   ; qtot 165.386375
 4948         os    165    bbb     O1   4948 -0.62587700  16.000000   ; qtot 164.760498
 4949         hn    165    bbb    H19   4949 0.23982500   1.008000   ; qtot 165.000323
; residue  166 bbb rtp bbb q 1.0
 4950         n4    166    bbb     N1   4950 0.03726400  14.010000   ; qtot 165.037587
 4951         c3    166    bbb     C1   4951 -0.07020100  12.010000   ; qtot 164.967386
 4952         hx    166    bbb     H1   4952 0.12219000   1.008000   ; qtot 165.089576
 4953         hx    166    bbb     H2   4953 0.12219000   1.008000   ; qtot 165.211766
 4954         c3    166    bbb     C2   4954 -0.07020100  12.010000   ; qtot 165.141565
 4955         hx    166    bbb     H3   4955 0.12219000   1.008000   ; qtot 165.263755
 4956         hx    166    bbb     H4   4956 0.12219000   1.008000   ; qtot 165.385945
 4957         c3    166    bbb     C3   4957 -0.39007700  12.010000   ; qtot 164.995868
 4958         hx    166    bbb     H5   4958 0.14940300   1.008000   ; qtot 165.145271
 4959         hx    166    bbb     H6   4959 0.14940300   1.008000   ; qtot 165.294674
 4960         c3    166    bbb     C4   4960 0.18057300  12.010000   ; qtot 165.475247
 4961         hc    166    bbb     H7   4961 0.01788900   1.008000   ; qtot 165.493136
 4962         hc    166    bbb     H8   4962 0.01788900   1.008000   ; qtot 165.511025
 4963         c3    166    bbb     C5   4963 -0.11337700  12.010000   ; qtot 165.397648
 4964         hc    166    bbb     H9   4964 0.09515400   1.008000   ; qtot 165.492802
 4965         hc    166    bbb    H10   4965 0.09515400   1.008000   ; qtot 165.587956
 4966         c3    166    bbb     C6   4966 -0.11337700  12.010000   ; qtot 165.474579
 4967         hc    166    bbb    H11   4967 0.09515400   1.008000   ; qtot 165.569733
 4968         hc    166    bbb    H12   4968 0.09515400   1.008000   ; qtot 165.664887
 4969         c3    166    bbb     C7   4969 0.21842400  12.010000   ; qtot 165.883311
 4970         h1    166    bbb    H13   4970 0.04500300   1.008000   ; qtot 165.928314
 4971         h1    166    bbb    H14   4971 0.04500300   1.008000   ; qtot 165.973317
 4972         c3    166    bbb     C8   4972 -0.06455200  12.010000   ; qtot 165.908765
 4973         h1    166    bbb    H15   4973 0.13554100   1.008000   ; qtot 166.044306
 4974         h1    166    bbb    H16   4974 0.13554100   1.008000   ; qtot 166.179847
 4975         c3    166    bbb     C9   4975 -0.06455200  12.010000   ; qtot 166.115295
 4976         h1    166    bbb    H17   4976 0.13554100   1.008000   ; qtot 166.250836
 4977         h1    166    bbb    H18   4977 0.13554100   1.008000   ; qtot 166.386377
 4978         os    166    bbb     O1   4978 -0.62587700  16.000000   ; qtot 165.760500
 4979         hn    166    bbb    H19   4979 0.23982500   1.008000   ; qtot 166.000325
; residue  167 bbb rtp bbb q 1.0
 4980         n4    167    bbb     N1   4980 0.03726400  14.010000   ; qtot 166.037589
 4981         c3    167    bbb     C1   4981 -0.07020100  12.010000   ; qtot 165.967388
 4982         hx    167    bbb     H1   4982 0.12219000   1.008000   ; qtot 166.089578
 4983         hx    167    bbb     H2   4983 0.12219000   1.008000   ; qtot 166.211768
 4984         c3    167    bbb     C2   4984 -0.07020100  12.010000   ; qtot 166.141567
 4985         hx    167    bbb     H3   4985 0.12219000   1.008000   ; qtot 166.263757
 4986         hx    167    bbb     H4   4986 0.12219000   1.008000   ; qtot 166.385947
 4987         c3    167    bbb     C3   4987 -0.39007700  12.010000   ; qtot 165.995870
 4988         hx    167    bbb     H5   4988 0.14940300   1.008000   ; qtot 166.145273
 4989         hx    167    bbb     H6   4989 0.14940300   1.008000   ; qtot 166.294676
 4990         c3    167    bbb     C4   4990 0.18057300  12.010000   ; qtot 166.475249
 4991         hc    167    bbb     H7   4991 0.01788900   1.008000   ; qtot 166.493138
 4992         hc    167    bbb     H8   4992 0.01788900   1.008000   ; qtot 166.511027
 4993         c3    167    bbb     C5   4993 -0.11337700  12.010000   ; qtot 166.397650
 4994         hc    167    bbb     H9   4994 0.09515400   1.008000   ; qtot 166.492804
 4995         hc    167    bbb    H10   4995 0.09515400   1.008000   ; qtot 166.587958
 4996         c3    167    bbb     C6   4996 -0.11337700  12.010000   ; qtot 166.474581
 4997         hc    167    bbb    H11   4997 0.09515400   1.008000   ; qtot 166.569735
 4998         hc    167    bbb    H12   4998 0.09515400   1.008000   ; qtot 166.664889
 4999         c3    167    bbb     C7   4999 0.21842400  12.010000   ; qtot 166.883313
 5000         h1    167    bbb    H13   5000 0.04500300   1.008000   ; qtot 166.928316
 5001         h1    167    bbb    H14   5001 0.04500300   1.008000   ; qtot 166.973319
 5002         c3    167    bbb     C8   5002 -0.06455200  12.010000   ; qtot 166.908767
 5003         h1    167    bbb    H15   5003 0.13554100   1.008000   ; qtot 167.044308
 5004         h1    167    bbb    H16   5004 0.13554100   1.008000   ; qtot 167.179849
 5005         c3    167    bbb     C9   5005 -0.06455200  12.010000   ; qtot 167.115297
 5006         h1    167    bbb    H17   5006 0.13554100   1.008000   ; qtot 167.250838
 5007         h1    167    bbb    H18   5007 0.13554100   1.008000   ; qtot 167.386379
 5008         os    167    bbb     O1   5008 -0.62587700  16.000000   ; qtot 166.760502
 5009         hn    167    bbb    H19   5009 0.23982500   1.008000   ; qtot 167.000327
; residue  168 bbb rtp bbb q 1.0
 5010         n4    168    bbb     N1   5010 0.03726400  14.010000   ; qtot 167.037591
 5011         c3    168    bbb     C1   5011 -0.07020100  12.010000   ; qtot 166.967390
 5012         hx    168    bbb     H1   5012 0.12219000   1.008000   ; qtot 167.089580
 5013         hx    168    bbb     H2   5013 0.12219000   1.008000   ; qtot 167.211770
 5014         c3    168    bbb     C2   5014 -0.07020100  12.010000   ; qtot 167.141569
 5015         hx    168    bbb     H3   5015 0.12219000   1.008000   ; qtot 167.263759
 5016         hx    168    bbb     H4   5016 0.12219000   1.008000   ; qtot 167.385949
 5017         c3    168    bbb     C3   5017 -0.39007700  12.010000   ; qtot 166.995872
 5018         hx    168    bbb     H5   5018 0.14940300   1.008000   ; qtot 167.145275
 5019         hx    168    bbb     H6   5019 0.14940300   1.008000   ; qtot 167.294678
 5020         c3    168    bbb     C4   5020 0.18057300  12.010000   ; qtot 167.475251
 5021         hc    168    bbb     H7   5021 0.01788900   1.008000   ; qtot 167.493140
 5022         hc    168    bbb     H8   5022 0.01788900   1.008000   ; qtot 167.511029
 5023         c3    168    bbb     C5   5023 -0.11337700  12.010000   ; qtot 167.397652
 5024         hc    168    bbb     H9   5024 0.09515400   1.008000   ; qtot 167.492806
 5025         hc    168    bbb    H10   5025 0.09515400   1.008000   ; qtot 167.587960
 5026         c3    168    bbb     C6   5026 -0.11337700  12.010000   ; qtot 167.474583
 5027         hc    168    bbb    H11   5027 0.09515400   1.008000   ; qtot 167.569737
 5028         hc    168    bbb    H12   5028 0.09515400   1.008000   ; qtot 167.664891
 5029         c3    168    bbb     C7   5029 0.21842400  12.010000   ; qtot 167.883315
 5030         h1    168    bbb    H13   5030 0.04500300   1.008000   ; qtot 167.928318
 5031         h1    168    bbb    H14   5031 0.04500300   1.008000   ; qtot 167.973321
 5032         c3    168    bbb     C8   5032 -0.06455200  12.010000   ; qtot 167.908769
 5033         h1    168    bbb    H15   5033 0.13554100   1.008000   ; qtot 168.044310
 5034         h1    168    bbb    H16   5034 0.13554100   1.008000   ; qtot 168.179851
 5035         c3    168    bbb     C9   5035 -0.06455200  12.010000   ; qtot 168.115299
 5036         h1    168    bbb    H17   5036 0.13554100   1.008000   ; qtot 168.250840
 5037         h1    168    bbb    H18   5037 0.13554100   1.008000   ; qtot 168.386381
 5038         os    168    bbb     O1   5038 -0.62587700  16.000000   ; qtot 167.760504
 5039         hn    168    bbb    H19   5039 0.23982500   1.008000   ; qtot 168.000329
; residue  169 bbb rtp bbb q 1.0
 5040         n4    169    bbb     N1   5040 0.03726400  14.010000   ; qtot 168.037593
 5041         c3    169    bbb     C1   5041 -0.07020100  12.010000   ; qtot 167.967392
 5042         hx    169    bbb     H1   5042 0.12219000   1.008000   ; qtot 168.089582
 5043         hx    169    bbb     H2   5043 0.12219000   1.008000   ; qtot 168.211772
 5044         c3    169    bbb     C2   5044 -0.07020100  12.010000   ; qtot 168.141571
 5045         hx    169    bbb     H3   5045 0.12219000   1.008000   ; qtot 168.263761
 5046         hx    169    bbb     H4   5046 0.12219000   1.008000   ; qtot 168.385951
 5047         c3    169    bbb     C3   5047 -0.39007700  12.010000   ; qtot 167.995874
 5048         hx    169    bbb     H5   5048 0.14940300   1.008000   ; qtot 168.145277
 5049         hx    169    bbb     H6   5049 0.14940300   1.008000   ; qtot 168.294680
 5050         c3    169    bbb     C4   5050 0.18057300  12.010000   ; qtot 168.475253
 5051         hc    169    bbb     H7   5051 0.01788900   1.008000   ; qtot 168.493142
 5052         hc    169    bbb     H8   5052 0.01788900   1.008000   ; qtot 168.511031
 5053         c3    169    bbb     C5   5053 -0.11337700  12.010000   ; qtot 168.397654
 5054         hc    169    bbb     H9   5054 0.09515400   1.008000   ; qtot 168.492808
 5055         hc    169    bbb    H10   5055 0.09515400   1.008000   ; qtot 168.587962
 5056         c3    169    bbb     C6   5056 -0.11337700  12.010000   ; qtot 168.474585
 5057         hc    169    bbb    H11   5057 0.09515400   1.008000   ; qtot 168.569739
 5058         hc    169    bbb    H12   5058 0.09515400   1.008000   ; qtot 168.664893
 5059         c3    169    bbb     C7   5059 0.21842400  12.010000   ; qtot 168.883317
 5060         h1    169    bbb    H13   5060 0.04500300   1.008000   ; qtot 168.928320
 5061         h1    169    bbb    H14   5061 0.04500300   1.008000   ; qtot 168.973323
 5062         c3    169    bbb     C8   5062 -0.06455200  12.010000   ; qtot 168.908771
 5063         h1    169    bbb    H15   5063 0.13554100   1.008000   ; qtot 169.044312
 5064         h1    169    bbb    H16   5064 0.13554100   1.008000   ; qtot 169.179853
 5065         c3    169    bbb     C9   5065 -0.06455200  12.010000   ; qtot 169.115301
 5066         h1    169    bbb    H17   5066 0.13554100   1.008000   ; qtot 169.250842
 5067         h1    169    bbb    H18   5067 0.13554100   1.008000   ; qtot 169.386383
 5068         os    169    bbb     O1   5068 -0.62587700  16.000000   ; qtot 168.760506
 5069         hn    169    bbb    H19   5069 0.23982500   1.008000   ; qtot 169.000331
; residue  170 bbb rtp bbb q 1.0
 5070         n4    170    bbb     N1   5070 0.03726400  14.010000   ; qtot 169.037595
 5071         c3    170    bbb     C1   5071 -0.07020100  12.010000   ; qtot 168.967394
 5072         hx    170    bbb     H1   5072 0.12219000   1.008000   ; qtot 169.089584
 5073         hx    170    bbb     H2   5073 0.12219000   1.008000   ; qtot 169.211774
 5074         c3    170    bbb     C2   5074 -0.07020100  12.010000   ; qtot 169.141573
 5075         hx    170    bbb     H3   5075 0.12219000   1.008000   ; qtot 169.263763
 5076         hx    170    bbb     H4   5076 0.12219000   1.008000   ; qtot 169.385953
 5077         c3    170    bbb     C3   5077 -0.39007700  12.010000   ; qtot 168.995876
 5078         hx    170    bbb     H5   5078 0.14940300   1.008000   ; qtot 169.145279
 5079         hx    170    bbb     H6   5079 0.14940300   1.008000   ; qtot 169.294682
 5080         c3    170    bbb     C4   5080 0.18057300  12.010000   ; qtot 169.475255
 5081         hc    170    bbb     H7   5081 0.01788900   1.008000   ; qtot 169.493144
 5082         hc    170    bbb     H8   5082 0.01788900   1.008000   ; qtot 169.511033
 5083         c3    170    bbb     C5   5083 -0.11337700  12.010000   ; qtot 169.397656
 5084         hc    170    bbb     H9   5084 0.09515400   1.008000   ; qtot 169.492810
 5085         hc    170    bbb    H10   5085 0.09515400   1.008000   ; qtot 169.587964
 5086         c3    170    bbb     C6   5086 -0.11337700  12.010000   ; qtot 169.474587
 5087         hc    170    bbb    H11   5087 0.09515400   1.008000   ; qtot 169.569741
 5088         hc    170    bbb    H12   5088 0.09515400   1.008000   ; qtot 169.664895
 5089         c3    170    bbb     C7   5089 0.21842400  12.010000   ; qtot 169.883319
 5090         h1    170    bbb    H13   5090 0.04500300   1.008000   ; qtot 169.928322
 5091         h1    170    bbb    H14   5091 0.04500300   1.008000   ; qtot 169.973325
 5092         c3    170    bbb     C8   5092 -0.06455200  12.010000   ; qtot 169.908773
 5093         h1    170    bbb    H15   5093 0.13554100   1.008000   ; qtot 170.044314
 5094         h1    170    bbb    H16   5094 0.13554100   1.008000   ; qtot 170.179855
 5095         c3    170    bbb     C9   5095 -0.06455200  12.010000   ; qtot 170.115303
 5096         h1    170    bbb    H17   5096 0.13554100   1.008000   ; qtot 170.250844
 5097         h1    170    bbb    H18   5097 0.13554100   1.008000   ; qtot 170.386385
 5098         os    170    bbb     O1   5098 -0.62587700  16.000000   ; qtot 169.760507
 5099         hn    170    bbb    H19   5099 0.23982500   1.008000   ; qtot 170.000332
; residue  171 bbb rtp bbb q 1.0
 5100         n4    171    bbb     N1   5100 0.03726400  14.010000   ; qtot 170.037596
 5101         c3    171    bbb     C1   5101 -0.07020100  12.010000   ; qtot 169.967395
 5102         hx    171    bbb     H1   5102 0.12219000   1.008000   ; qtot 170.089585
 5103         hx    171    bbb     H2   5103 0.12219000   1.008000   ; qtot 170.211775
 5104         c3    171    bbb     C2   5104 -0.07020100  12.010000   ; qtot 170.141574
 5105         hx    171    bbb     H3   5105 0.12219000   1.008000   ; qtot 170.263764
 5106         hx    171    bbb     H4   5106 0.12219000   1.008000   ; qtot 170.385954
 5107         c3    171    bbb     C3   5107 -0.39007700  12.010000   ; qtot 169.995877
 5108         hx    171    bbb     H5   5108 0.14940300   1.008000   ; qtot 170.145280
 5109         hx    171    bbb     H6   5109 0.14940300   1.008000   ; qtot 170.294683
 5110         c3    171    bbb     C4   5110 0.18057300  12.010000   ; qtot 170.475256
 5111         hc    171    bbb     H7   5111 0.01788900   1.008000   ; qtot 170.493145
 5112         hc    171    bbb     H8   5112 0.01788900   1.008000   ; qtot 170.511034
 5113         c3    171    bbb     C5   5113 -0.11337700  12.010000   ; qtot 170.397657
 5114         hc    171    bbb     H9   5114 0.09515400   1.008000   ; qtot 170.492811
 5115         hc    171    bbb    H10   5115 0.09515400   1.008000   ; qtot 170.587965
 5116         c3    171    bbb     C6   5116 -0.11337700  12.010000   ; qtot 170.474588
 5117         hc    171    bbb    H11   5117 0.09515400   1.008000   ; qtot 170.569742
 5118         hc    171    bbb    H12   5118 0.09515400   1.008000   ; qtot 170.664896
 5119         c3    171    bbb     C7   5119 0.21842400  12.010000   ; qtot 170.883320
 5120         h1    171    bbb    H13   5120 0.04500300   1.008000   ; qtot 170.928323
 5121         h1    171    bbb    H14   5121 0.04500300   1.008000   ; qtot 170.973326
 5122         c3    171    bbb     C8   5122 -0.06455200  12.010000   ; qtot 170.908774
 5123         h1    171    bbb    H15   5123 0.13554100   1.008000   ; qtot 171.044315
 5124         h1    171    bbb    H16   5124 0.13554100   1.008000   ; qtot 171.179856
 5125         c3    171    bbb     C9   5125 -0.06455200  12.010000   ; qtot 171.115304
 5126         h1    171    bbb    H17   5126 0.13554100   1.008000   ; qtot 171.250845
 5127         h1    171    bbb    H18   5127 0.13554100   1.008000   ; qtot 171.386386
 5128         os    171    bbb     O1   5128 -0.62587700  16.000000   ; qtot 170.760509
 5129         hn    171    bbb    H19   5129 0.23982500   1.008000   ; qtot 171.000334
; residue  172 bbb rtp bbb q 1.0
 5130         n4    172    bbb     N1   5130 0.03726400  14.010000   ; qtot 171.037598
 5131         c3    172    bbb     C1   5131 -0.07020100  12.010000   ; qtot 170.967397
 5132         hx    172    bbb     H1   5132 0.12219000   1.008000   ; qtot 171.089587
 5133         hx    172    bbb     H2   5133 0.12219000   1.008000   ; qtot 171.211777
 5134         c3    172    bbb     C2   5134 -0.07020100  12.010000   ; qtot 171.141576
 5135         hx    172    bbb     H3   5135 0.12219000   1.008000   ; qtot 171.263766
 5136         hx    172    bbb     H4   5136 0.12219000   1.008000   ; qtot 171.385956
 5137         c3    172    bbb     C3   5137 -0.39007700  12.010000   ; qtot 170.995879
 5138         hx    172    bbb     H5   5138 0.14940300   1.008000   ; qtot 171.145282
 5139         hx    172    bbb     H6   5139 0.14940300   1.008000   ; qtot 171.294685
 5140         c3    172    bbb     C4   5140 0.18057300  12.010000   ; qtot 171.475258
 5141         hc    172    bbb     H7   5141 0.01788900   1.008000   ; qtot 171.493147
 5142         hc    172    bbb     H8   5142 0.01788900   1.008000   ; qtot 171.511036
 5143         c3    172    bbb     C5   5143 -0.11337700  12.010000   ; qtot 171.397659
 5144         hc    172    bbb     H9   5144 0.09515400   1.008000   ; qtot 171.492813
 5145         hc    172    bbb    H10   5145 0.09515400   1.008000   ; qtot 171.587967
 5146         c3    172    bbb     C6   5146 -0.11337700  12.010000   ; qtot 171.474590
 5147         hc    172    bbb    H11   5147 0.09515400   1.008000   ; qtot 171.569744
 5148         hc    172    bbb    H12   5148 0.09515400   1.008000   ; qtot 171.664898
 5149         c3    172    bbb     C7   5149 0.21842400  12.010000   ; qtot 171.883322
 5150         h1    172    bbb    H13   5150 0.04500300   1.008000   ; qtot 171.928325
 5151         h1    172    bbb    H14   5151 0.04500300   1.008000   ; qtot 171.973328
 5152         c3    172    bbb     C8   5152 -0.06455200  12.010000   ; qtot 171.908776
 5153         h1    172    bbb    H15   5153 0.13554100   1.008000   ; qtot 172.044317
 5154         h1    172    bbb    H16   5154 0.13554100   1.008000   ; qtot 172.179858
 5155         c3    172    bbb     C9   5155 -0.06455200  12.010000   ; qtot 172.115306
 5156         h1    172    bbb    H17   5156 0.13554100   1.008000   ; qtot 172.250847
 5157         h1    172    bbb    H18   5157 0.13554100   1.008000   ; qtot 172.386388
 5158         os    172    bbb     O1   5158 -0.62587700  16.000000   ; qtot 171.760511
 5159         hn    172    bbb    H19   5159 0.23982500   1.008000   ; qtot 172.000336
; residue  173 bbb rtp bbb q 1.0
 5160         n4    173    bbb     N1   5160 0.03726400  14.010000   ; qtot 172.037600
 5161         c3    173    bbb     C1   5161 -0.07020100  12.010000   ; qtot 171.967399
 5162         hx    173    bbb     H1   5162 0.12219000   1.008000   ; qtot 172.089589
 5163         hx    173    bbb     H2   5163 0.12219000   1.008000   ; qtot 172.211779
 5164         c3    173    bbb     C2   5164 -0.07020100  12.010000   ; qtot 172.141578
 5165         hx    173    bbb     H3   5165 0.12219000   1.008000   ; qtot 172.263768
 5166         hx    173    bbb     H4   5166 0.12219000   1.008000   ; qtot 172.385958
 5167         c3    173    bbb     C3   5167 -0.39007700  12.010000   ; qtot 171.995881
 5168         hx    173    bbb     H5   5168 0.14940300   1.008000   ; qtot 172.145284
 5169         hx    173    bbb     H6   5169 0.14940300   1.008000   ; qtot 172.294687
 5170         c3    173    bbb     C4   5170 0.18057300  12.010000   ; qtot 172.475260
 5171         hc    173    bbb     H7   5171 0.01788900   1.008000   ; qtot 172.493149
 5172         hc    173    bbb     H8   5172 0.01788900   1.008000   ; qtot 172.511038
 5173         c3    173    bbb     C5   5173 -0.11337700  12.010000   ; qtot 172.397661
 5174         hc    173    bbb     H9   5174 0.09515400   1.008000   ; qtot 172.492815
 5175         hc    173    bbb    H10   5175 0.09515400   1.008000   ; qtot 172.587969
 5176         c3    173    bbb     C6   5176 -0.11337700  12.010000   ; qtot 172.474592
 5177         hc    173    bbb    H11   5177 0.09515400   1.008000   ; qtot 172.569746
 5178         hc    173    bbb    H12   5178 0.09515400   1.008000   ; qtot 172.664900
 5179         c3    173    bbb     C7   5179 0.21842400  12.010000   ; qtot 172.883324
 5180         h1    173    bbb    H13   5180 0.04500300   1.008000   ; qtot 172.928327
 5181         h1    173    bbb    H14   5181 0.04500300   1.008000   ; qtot 172.973330
 5182         c3    173    bbb     C8   5182 -0.06455200  12.010000   ; qtot 172.908778
 5183         h1    173    bbb    H15   5183 0.13554100   1.008000   ; qtot 173.044319
 5184         h1    173    bbb    H16   5184 0.13554100   1.008000   ; qtot 173.179860
 5185         c3    173    bbb     C9   5185 -0.06455200  12.010000   ; qtot 173.115308
 5186         h1    173    bbb    H17   5186 0.13554100   1.008000   ; qtot 173.250849
 5187         h1    173    bbb    H18   5187 0.13554100   1.008000   ; qtot 173.386390
 5188         os    173    bbb     O1   5188 -0.62587700  16.000000   ; qtot 172.760513
 5189         hn    173    bbb    H19   5189 0.23982500   1.008000   ; qtot 173.000338
; residue  174 bbb rtp bbb q 1.0
 5190         n4    174    bbb     N1   5190 0.03726400  14.010000   ; qtot 173.037602
 5191         c3    174    bbb     C1   5191 -0.07020100  12.010000   ; qtot 172.967401
 5192         hx    174    bbb     H1   5192 0.12219000   1.008000   ; qtot 173.089591
 5193         hx    174    bbb     H2   5193 0.12219000   1.008000   ; qtot 173.211781
 5194         c3    174    bbb     C2   5194 -0.07020100  12.010000   ; qtot 173.141580
 5195         hx    174    bbb     H3   5195 0.12219000   1.008000   ; qtot 173.263770
 5196         hx    174    bbb     H4   5196 0.12219000   1.008000   ; qtot 173.385960
 5197         c3    174    bbb     C3   5197 -0.39007700  12.010000   ; qtot 172.995883
 5198         hx    174    bbb     H5   5198 0.14940300   1.008000   ; qtot 173.145286
 5199         hx    174    bbb     H6   5199 0.14940300   1.008000   ; qtot 173.294689
 5200         c3    174    bbb     C4   5200 0.18057300  12.010000   ; qtot 173.475262
 5201         hc    174    bbb     H7   5201 0.01788900   1.008000   ; qtot 173.493151
 5202         hc    174    bbb     H8   5202 0.01788900   1.008000   ; qtot 173.511040
 5203         c3    174    bbb     C5   5203 -0.11337700  12.010000   ; qtot 173.397663
 5204         hc    174    bbb     H9   5204 0.09515400   1.008000   ; qtot 173.492817
 5205         hc    174    bbb    H10   5205 0.09515400   1.008000   ; qtot 173.587971
 5206         c3    174    bbb     C6   5206 -0.11337700  12.010000   ; qtot 173.474594
 5207         hc    174    bbb    H11   5207 0.09515400   1.008000   ; qtot 173.569748
 5208         hc    174    bbb    H12   5208 0.09515400   1.008000   ; qtot 173.664902
 5209         c3    174    bbb     C7   5209 0.21842400  12.010000   ; qtot 173.883326
 5210         h1    174    bbb    H13   5210 0.04500300   1.008000   ; qtot 173.928329
 5211         h1    174    bbb    H14   5211 0.04500300   1.008000   ; qtot 173.973332
 5212         c3    174    bbb     C8   5212 -0.06455200  12.010000   ; qtot 173.908780
 5213         h1    174    bbb    H15   5213 0.13554100   1.008000   ; qtot 174.044321
 5214         h1    174    bbb    H16   5214 0.13554100   1.008000   ; qtot 174.179862
 5215         c3    174    bbb     C9   5215 -0.06455200  12.010000   ; qtot 174.115310
 5216         h1    174    bbb    H17   5216 0.13554100   1.008000   ; qtot 174.250851
 5217         h1    174    bbb    H18   5217 0.13554100   1.008000   ; qtot 174.386392
 5218         os    174    bbb     O1   5218 -0.62587700  16.000000   ; qtot 173.760515
 5219         hn    174    bbb    H19   5219 0.23982500   1.008000   ; qtot 174.000340
; residue  175 bbb rtp bbb q 1.0
 5220         n4    175    bbb     N1   5220 0.03726400  14.010000   ; qtot 174.037604
 5221         c3    175    bbb     C1   5221 -0.07020100  12.010000   ; qtot 173.967403
 5222         hx    175    bbb     H1   5222 0.12219000   1.008000   ; qtot 174.089593
 5223         hx    175    bbb     H2   5223 0.12219000   1.008000   ; qtot 174.211783
 5224         c3    175    bbb     C2   5224 -0.07020100  12.010000   ; qtot 174.141582
 5225         hx    175    bbb     H3   5225 0.12219000   1.008000   ; qtot 174.263772
 5226         hx    175    bbb     H4   5226 0.12219000   1.008000   ; qtot 174.385962
 5227         c3    175    bbb     C3   5227 -0.39007700  12.010000   ; qtot 173.995885
 5228         hx    175    bbb     H5   5228 0.14940300   1.008000   ; qtot 174.145288
 5229         hx    175    bbb     H6   5229 0.14940300   1.008000   ; qtot 174.294691
 5230         c3    175    bbb     C4   5230 0.18057300  12.010000   ; qtot 174.475264
 5231         hc    175    bbb     H7   5231 0.01788900   1.008000   ; qtot 174.493153
 5232         hc    175    bbb     H8   5232 0.01788900   1.008000   ; qtot 174.511042
 5233         c3    175    bbb     C5   5233 -0.11337700  12.010000   ; qtot 174.397665
 5234         hc    175    bbb     H9   5234 0.09515400   1.008000   ; qtot 174.492819
 5235         hc    175    bbb    H10   5235 0.09515400   1.008000   ; qtot 174.587973
 5236         c3    175    bbb     C6   5236 -0.11337700  12.010000   ; qtot 174.474596
 5237         hc    175    bbb    H11   5237 0.09515400   1.008000   ; qtot 174.569750
 5238         hc    175    bbb    H12   5238 0.09515400   1.008000   ; qtot 174.664904
 5239         c3    175    bbb     C7   5239 0.21842400  12.010000   ; qtot 174.883328
 5240         h1    175    bbb    H13   5240 0.04500300   1.008000   ; qtot 174.928331
 5241         h1    175    bbb    H14   5241 0.04500300   1.008000   ; qtot 174.973334
 5242         c3    175    bbb     C8   5242 -0.06455200  12.010000   ; qtot 174.908782
 5243         h1    175    bbb    H15   5243 0.13554100   1.008000   ; qtot 175.044323
 5244         h1    175    bbb    H16   5244 0.13554100   1.008000   ; qtot 175.179864
 5245         c3    175    bbb     C9   5245 -0.06455200  12.010000   ; qtot 175.115312
 5246         h1    175    bbb    H17   5246 0.13554100   1.008000   ; qtot 175.250853
 5247         h1    175    bbb    H18   5247 0.13554100   1.008000   ; qtot 175.386394
 5248         os    175    bbb     O1   5248 -0.62587700  16.000000   ; qtot 174.760517
 5249         hn    175    bbb    H19   5249 0.23982500   1.008000   ; qtot 175.000342
; residue  176 bbb rtp bbb q 1.0
 5250         n4    176    bbb     N1   5250 0.03726400  14.010000   ; qtot 175.037606
 5251         c3    176    bbb     C1   5251 -0.07020100  12.010000   ; qtot 174.967405
 5252         hx    176    bbb     H1   5252 0.12219000   1.008000   ; qtot 175.089595
 5253         hx    176    bbb     H2   5253 0.12219000   1.008000   ; qtot 175.211785
 5254         c3    176    bbb     C2   5254 -0.07020100  12.010000   ; qtot 175.141584
 5255         hx    176    bbb     H3   5255 0.12219000   1.008000   ; qtot 175.263774
 5256         hx    176    bbb     H4   5256 0.12219000   1.008000   ; qtot 175.385964
 5257         c3    176    bbb     C3   5257 -0.39007700  12.010000   ; qtot 174.995887
 5258         hx    176    bbb     H5   5258 0.14940300   1.008000   ; qtot 175.145290
 5259         hx    176    bbb     H6   5259 0.14940300   1.008000   ; qtot 175.294693
 5260         c3    176    bbb     C4   5260 0.18057300  12.010000   ; qtot 175.475266
 5261         hc    176    bbb     H7   5261 0.01788900   1.008000   ; qtot 175.493155
 5262         hc    176    bbb     H8   5262 0.01788900   1.008000   ; qtot 175.511044
 5263         c3    176    bbb     C5   5263 -0.11337700  12.010000   ; qtot 175.397667
 5264         hc    176    bbb     H9   5264 0.09515400   1.008000   ; qtot 175.492821
 5265         hc    176    bbb    H10   5265 0.09515400   1.008000   ; qtot 175.587975
 5266         c3    176    bbb     C6   5266 -0.11337700  12.010000   ; qtot 175.474598
 5267         hc    176    bbb    H11   5267 0.09515400   1.008000   ; qtot 175.569752
 5268         hc    176    bbb    H12   5268 0.09515400   1.008000   ; qtot 175.664906
 5269         c3    176    bbb     C7   5269 0.21842400  12.010000   ; qtot 175.883330
 5270         h1    176    bbb    H13   5270 0.04500300   1.008000   ; qtot 175.928333
 5271         h1    176    bbb    H14   5271 0.04500300   1.008000   ; qtot 175.973336
 5272         c3    176    bbb     C8   5272 -0.06455200  12.010000   ; qtot 175.908784
 5273         h1    176    bbb    H15   5273 0.13554100   1.008000   ; qtot 176.044325
 5274         h1    176    bbb    H16   5274 0.13554100   1.008000   ; qtot 176.179866
 5275         c3    176    bbb     C9   5275 -0.06455200  12.010000   ; qtot 176.115314
 5276         h1    176    bbb    H17   5276 0.13554100   1.008000   ; qtot 176.250855
 5277         h1    176    bbb    H18   5277 0.13554100   1.008000   ; qtot 176.386396
 5278         os    176    bbb     O1   5278 -0.62587700  16.000000   ; qtot 175.760519
 5279         hn    176    bbb    H19   5279 0.23982500   1.008000   ; qtot 176.000344
; residue  177 bbb rtp bbb q 1.0
 5280         n4    177    bbb     N1   5280 0.03726400  14.010000   ; qtot 176.037608
 5281         c3    177    bbb     C1   5281 -0.07020100  12.010000   ; qtot 175.967407
 5282         hx    177    bbb     H1   5282 0.12219000   1.008000   ; qtot 176.089597
 5283         hx    177    bbb     H2   5283 0.12219000   1.008000   ; qtot 176.211787
 5284         c3    177    bbb     C2   5284 -0.07020100  12.010000   ; qtot 176.141586
 5285         hx    177    bbb     H3   5285 0.12219000   1.008000   ; qtot 176.263776
 5286         hx    177    bbb     H4   5286 0.12219000   1.008000   ; qtot 176.385966
 5287         c3    177    bbb     C3   5287 -0.39007700  12.010000   ; qtot 175.995889
 5288         hx    177    bbb     H5   5288 0.14940300   1.008000   ; qtot 176.145292
 5289         hx    177    bbb     H6   5289 0.14940300   1.008000   ; qtot 176.294695
 5290         c3    177    bbb     C4   5290 0.18057300  12.010000   ; qtot 176.475268
 5291         hc    177    bbb     H7   5291 0.01788900   1.008000   ; qtot 176.493157
 5292         hc    177    bbb     H8   5292 0.01788900   1.008000   ; qtot 176.511046
 5293         c3    177    bbb     C5   5293 -0.11337700  12.010000   ; qtot 176.397669
 5294         hc    177    bbb     H9   5294 0.09515400   1.008000   ; qtot 176.492823
 5295         hc    177    bbb    H10   5295 0.09515400   1.008000   ; qtot 176.587977
 5296         c3    177    bbb     C6   5296 -0.11337700  12.010000   ; qtot 176.474600
 5297         hc    177    bbb    H11   5297 0.09515400   1.008000   ; qtot 176.569754
 5298         hc    177    bbb    H12   5298 0.09515400   1.008000   ; qtot 176.664908
 5299         c3    177    bbb     C7   5299 0.21842400  12.010000   ; qtot 176.883332
 5300         h1    177    bbb    H13   5300 0.04500300   1.008000   ; qtot 176.928335
 5301         h1    177    bbb    H14   5301 0.04500300   1.008000   ; qtot 176.973338
 5302         c3    177    bbb     C8   5302 -0.06455200  12.010000   ; qtot 176.908786
 5303         h1    177    bbb    H15   5303 0.13554100   1.008000   ; qtot 177.044327
 5304         h1    177    bbb    H16   5304 0.13554100   1.008000   ; qtot 177.179868
 5305         c3    177    bbb     C9   5305 -0.06455200  12.010000   ; qtot 177.115316
 5306         h1    177    bbb    H17   5306 0.13554100   1.008000   ; qtot 177.250857
 5307         h1    177    bbb    H18   5307 0.13554100   1.008000   ; qtot 177.386398
 5308         os    177    bbb     O1   5308 -0.62587700  16.000000   ; qtot 176.760521
 5309         hn    177    bbb    H19   5309 0.23982500   1.008000   ; qtot 177.000346
; residue  178 bbb rtp bbb q 1.0
 5310         n4    178    bbb     N1   5310 0.03726400  14.010000   ; qtot 177.037610
 5311         c3    178    bbb     C1   5311 -0.07020100  12.010000   ; qtot 176.967409
 5312         hx    178    bbb     H1   5312 0.12219000   1.008000   ; qtot 177.089599
 5313         hx    178    bbb     H2   5313 0.12219000   1.008000   ; qtot 177.211789
 5314         c3    178    bbb     C2   5314 -0.07020100  12.010000   ; qtot 177.141588
 5315         hx    178    bbb     H3   5315 0.12219000   1.008000   ; qtot 177.263778
 5316         hx    178    bbb     H4   5316 0.12219000   1.008000   ; qtot 177.385968
 5317         c3    178    bbb     C3   5317 -0.39007700  12.010000   ; qtot 176.995891
 5318         hx    178    bbb     H5   5318 0.14940300   1.008000   ; qtot 177.145294
 5319         hx    178    bbb     H6   5319 0.14940300   1.008000   ; qtot 177.294697
 5320         c3    178    bbb     C4   5320 0.18057300  12.010000   ; qtot 177.475270
 5321         hc    178    bbb     H7   5321 0.01788900   1.008000   ; qtot 177.493159
 5322         hc    178    bbb     H8   5322 0.01788900   1.008000   ; qtot 177.511048
 5323         c3    178    bbb     C5   5323 -0.11337700  12.010000   ; qtot 177.397671
 5324         hc    178    bbb     H9   5324 0.09515400   1.008000   ; qtot 177.492825
 5325         hc    178    bbb    H10   5325 0.09515400   1.008000   ; qtot 177.587979
 5326         c3    178    bbb     C6   5326 -0.11337700  12.010000   ; qtot 177.474602
 5327         hc    178    bbb    H11   5327 0.09515400   1.008000   ; qtot 177.569756
 5328         hc    178    bbb    H12   5328 0.09515400   1.008000   ; qtot 177.664910
 5329         c3    178    bbb     C7   5329 0.21842400  12.010000   ; qtot 177.883334
 5330         h1    178    bbb    H13   5330 0.04500300   1.008000   ; qtot 177.928337
 5331         h1    178    bbb    H14   5331 0.04500300   1.008000   ; qtot 177.973340
 5332         c3    178    bbb     C8   5332 -0.06455200  12.010000   ; qtot 177.908788
 5333         h1    178    bbb    H15   5333 0.13554100   1.008000   ; qtot 178.044329
 5334         h1    178    bbb    H16   5334 0.13554100   1.008000   ; qtot 178.179870
 5335         c3    178    bbb     C9   5335 -0.06455200  12.010000   ; qtot 178.115318
 5336         h1    178    bbb    H17   5336 0.13554100   1.008000   ; qtot 178.250859
 5337         h1    178    bbb    H18   5337 0.13554100   1.008000   ; qtot 178.386400
 5338         os    178    bbb     O1   5338 -0.62587700  16.000000   ; qtot 177.760523
 5339         hn    178    bbb    H19   5339 0.23982500   1.008000   ; qtot 178.000348
; residue  179 bbb rtp bbb q 1.0
 5340         n4    179    bbb     N1   5340 0.03726400  14.010000   ; qtot 178.037612
 5341         c3    179    bbb     C1   5341 -0.07020100  12.010000   ; qtot 177.967411
 5342         hx    179    bbb     H1   5342 0.12219000   1.008000   ; qtot 178.089601
 5343         hx    179    bbb     H2   5343 0.12219000   1.008000   ; qtot 178.211791
 5344         c3    179    bbb     C2   5344 -0.07020100  12.010000   ; qtot 178.141590
 5345         hx    179    bbb     H3   5345 0.12219000   1.008000   ; qtot 178.263780
 5346         hx    179    bbb     H4   5346 0.12219000   1.008000   ; qtot 178.385970
 5347         c3    179    bbb     C3   5347 -0.39007700  12.010000   ; qtot 177.995893
 5348         hx    179    bbb     H5   5348 0.14940300   1.008000   ; qtot 178.145296
 5349         hx    179    bbb     H6   5349 0.14940300   1.008000   ; qtot 178.294699
 5350         c3    179    bbb     C4   5350 0.18057300  12.010000   ; qtot 178.475272
 5351         hc    179    bbb     H7   5351 0.01788900   1.008000   ; qtot 178.493161
 5352         hc    179    bbb     H8   5352 0.01788900   1.008000   ; qtot 178.511050
 5353         c3    179    bbb     C5   5353 -0.11337700  12.010000   ; qtot 178.397673
 5354         hc    179    bbb     H9   5354 0.09515400   1.008000   ; qtot 178.492827
 5355         hc    179    bbb    H10   5355 0.09515400   1.008000   ; qtot 178.587981
 5356         c3    179    bbb     C6   5356 -0.11337700  12.010000   ; qtot 178.474604
 5357         hc    179    bbb    H11   5357 0.09515400   1.008000   ; qtot 178.569758
 5358         hc    179    bbb    H12   5358 0.09515400   1.008000   ; qtot 178.664912
 5359         c3    179    bbb     C7   5359 0.21842400  12.010000   ; qtot 178.883336
 5360         h1    179    bbb    H13   5360 0.04500300   1.008000   ; qtot 178.928339
 5361         h1    179    bbb    H14   5361 0.04500300   1.008000   ; qtot 178.973342
 5362         c3    179    bbb     C8   5362 -0.06455200  12.010000   ; qtot 178.908790
 5363         h1    179    bbb    H15   5363 0.13554100   1.008000   ; qtot 179.044331
 5364         h1    179    bbb    H16   5364 0.13554100   1.008000   ; qtot 179.179872
 5365         c3    179    bbb     C9   5365 -0.06455200  12.010000   ; qtot 179.115320
 5366         h1    179    bbb    H17   5366 0.13554100   1.008000   ; qtot 179.250861
 5367         h1    179    bbb    H18   5367 0.13554100   1.008000   ; qtot 179.386402
 5368         os    179    bbb     O1   5368 -0.62587700  16.000000   ; qtot 178.760525
 5369         hn    179    bbb    H19   5369 0.23982500   1.008000   ; qtot 179.000350
; residue  180 bbb rtp bbb q 1.0
 5370         n4    180    bbb     N1   5370 0.03726400  14.010000   ; qtot 179.037614
 5371         c3    180    bbb     C1   5371 -0.07020100  12.010000   ; qtot 178.967413
 5372         hx    180    bbb     H1   5372 0.12219000   1.008000   ; qtot 179.089603
 5373         hx    180    bbb     H2   5373 0.12219000   1.008000   ; qtot 179.211793
 5374         c3    180    bbb     C2   5374 -0.07020100  12.010000   ; qtot 179.141592
 5375         hx    180    bbb     H3   5375 0.12219000   1.008000   ; qtot 179.263782
 5376         hx    180    bbb     H4   5376 0.12219000   1.008000   ; qtot 179.385972
 5377         c3    180    bbb     C3   5377 -0.39007700  12.010000   ; qtot 178.995895
 5378         hx    180    bbb     H5   5378 0.14940300   1.008000   ; qtot 179.145298
 5379         hx    180    bbb     H6   5379 0.14940300   1.008000   ; qtot 179.294701
 5380         c3    180    bbb     C4   5380 0.18057300  12.010000   ; qtot 179.475274
 5381         hc    180    bbb     H7   5381 0.01788900   1.008000   ; qtot 179.493163
 5382         hc    180    bbb     H8   5382 0.01788900   1.008000   ; qtot 179.511052
 5383         c3    180    bbb     C5   5383 -0.11337700  12.010000   ; qtot 179.397675
 5384         hc    180    bbb     H9   5384 0.09515400   1.008000   ; qtot 179.492829
 5385         hc    180    bbb    H10   5385 0.09515400   1.008000   ; qtot 179.587983
 5386         c3    180    bbb     C6   5386 -0.11337700  12.010000   ; qtot 179.474606
 5387         hc    180    bbb    H11   5387 0.09515400   1.008000   ; qtot 179.569760
 5388         hc    180    bbb    H12   5388 0.09515400   1.008000   ; qtot 179.664914
 5389         c3    180    bbb     C7   5389 0.21842400  12.010000   ; qtot 179.883338
 5390         h1    180    bbb    H13   5390 0.04500300   1.008000   ; qtot 179.928341
 5391         h1    180    bbb    H14   5391 0.04500300   1.008000   ; qtot 179.973344
 5392         c3    180    bbb     C8   5392 -0.06455200  12.010000   ; qtot 179.908792
 5393         h1    180    bbb    H15   5393 0.13554100   1.008000   ; qtot 180.044333
 5394         h1    180    bbb    H16   5394 0.13554100   1.008000   ; qtot 180.179874
 5395         c3    180    bbb     C9   5395 -0.06455200  12.010000   ; qtot 180.115322
 5396         h1    180    bbb    H17   5396 0.13554100   1.008000   ; qtot 180.250863
 5397         h1    180    bbb    H18   5397 0.13554100   1.008000   ; qtot 180.386404
 5398         os    180    bbb     O1   5398 -0.62587700  16.000000   ; qtot 179.760527
 5399         hn    180    bbb    H19   5399 0.23982500   1.008000   ; qtot 180.000352
; residue  181 bbb rtp bbb q 1.0
 5400         n4    181    bbb     N1   5400 0.03726400  14.010000   ; qtot 180.037616
 5401         c3    181    bbb     C1   5401 -0.07020100  12.010000   ; qtot 179.967415
 5402         hx    181    bbb     H1   5402 0.12219000   1.008000   ; qtot 180.089605
 5403         hx    181    bbb     H2   5403 0.12219000   1.008000   ; qtot 180.211795
 5404         c3    181    bbb     C2   5404 -0.07020100  12.010000   ; qtot 180.141594
 5405         hx    181    bbb     H3   5405 0.12219000   1.008000   ; qtot 180.263784
 5406         hx    181    bbb     H4   5406 0.12219000   1.008000   ; qtot 180.385974
 5407         c3    181    bbb     C3   5407 -0.39007700  12.010000   ; qtot 179.995897
 5408         hx    181    bbb     H5   5408 0.14940300   1.008000   ; qtot 180.145300
 5409         hx    181    bbb     H6   5409 0.14940300   1.008000   ; qtot 180.294703
 5410         c3    181    bbb     C4   5410 0.18057300  12.010000   ; qtot 180.475276
 5411         hc    181    bbb     H7   5411 0.01788900   1.008000   ; qtot 180.493165
 5412         hc    181    bbb     H8   5412 0.01788900   1.008000   ; qtot 180.511054
 5413         c3    181    bbb     C5   5413 -0.11337700  12.010000   ; qtot 180.397677
 5414         hc    181    bbb     H9   5414 0.09515400   1.008000   ; qtot 180.492831
 5415         hc    181    bbb    H10   5415 0.09515400   1.008000   ; qtot 180.587985
 5416         c3    181    bbb     C6   5416 -0.11337700  12.010000   ; qtot 180.474608
 5417         hc    181    bbb    H11   5417 0.09515400   1.008000   ; qtot 180.569762
 5418         hc    181    bbb    H12   5418 0.09515400   1.008000   ; qtot 180.664916
 5419         c3    181    bbb     C7   5419 0.21842400  12.010000   ; qtot 180.883340
 5420         h1    181    bbb    H13   5420 0.04500300   1.008000   ; qtot 180.928343
 5421         h1    181    bbb    H14   5421 0.04500300   1.008000   ; qtot 180.973346
 5422         c3    181    bbb     C8   5422 -0.06455200  12.010000   ; qtot 180.908794
 5423         h1    181    bbb    H15   5423 0.13554100   1.008000   ; qtot 181.044335
 5424         h1    181    bbb    H16   5424 0.13554100   1.008000   ; qtot 181.179876
 5425         c3    181    bbb     C9   5425 -0.06455200  12.010000   ; qtot 181.115324
 5426         h1    181    bbb    H17   5426 0.13554100   1.008000   ; qtot 181.250865
 5427         h1    181    bbb    H18   5427 0.13554100   1.008000   ; qtot 181.386406
 5428         os    181    bbb     O1   5428 -0.62587700  16.000000   ; qtot 180.760529
 5429         hn    181    bbb    H19   5429 0.23982500   1.008000   ; qtot 181.000354
; residue  182 bbb rtp bbb q 1.0
 5430         n4    182    bbb     N1   5430 0.03726400  14.010000   ; qtot 181.037618
 5431         c3    182    bbb     C1   5431 -0.07020100  12.010000   ; qtot 180.967417
 5432         hx    182    bbb     H1   5432 0.12219000   1.008000   ; qtot 181.089607
 5433         hx    182    bbb     H2   5433 0.12219000   1.008000   ; qtot 181.211797
 5434         c3    182    bbb     C2   5434 -0.07020100  12.010000   ; qtot 181.141596
 5435         hx    182    bbb     H3   5435 0.12219000   1.008000   ; qtot 181.263786
 5436         hx    182    bbb     H4   5436 0.12219000   1.008000   ; qtot 181.385976
 5437         c3    182    bbb     C3   5437 -0.39007700  12.010000   ; qtot 180.995899
 5438         hx    182    bbb     H5   5438 0.14940300   1.008000   ; qtot 181.145302
 5439         hx    182    bbb     H6   5439 0.14940300   1.008000   ; qtot 181.294705
 5440         c3    182    bbb     C4   5440 0.18057300  12.010000   ; qtot 181.475278
 5441         hc    182    bbb     H7   5441 0.01788900   1.008000   ; qtot 181.493167
 5442         hc    182    bbb     H8   5442 0.01788900   1.008000   ; qtot 181.511056
 5443         c3    182    bbb     C5   5443 -0.11337700  12.010000   ; qtot 181.397679
 5444         hc    182    bbb     H9   5444 0.09515400   1.008000   ; qtot 181.492833
 5445         hc    182    bbb    H10   5445 0.09515400   1.008000   ; qtot 181.587987
 5446         c3    182    bbb     C6   5446 -0.11337700  12.010000   ; qtot 181.474610
 5447         hc    182    bbb    H11   5447 0.09515400   1.008000   ; qtot 181.569764
 5448         hc    182    bbb    H12   5448 0.09515400   1.008000   ; qtot 181.664918
 5449         c3    182    bbb     C7   5449 0.21842400  12.010000   ; qtot 181.883342
 5450         h1    182    bbb    H13   5450 0.04500300   1.008000   ; qtot 181.928345
 5451         h1    182    bbb    H14   5451 0.04500300   1.008000   ; qtot 181.973348
 5452         c3    182    bbb     C8   5452 -0.06455200  12.010000   ; qtot 181.908796
 5453         h1    182    bbb    H15   5453 0.13554100   1.008000   ; qtot 182.044337
 5454         h1    182    bbb    H16   5454 0.13554100   1.008000   ; qtot 182.179878
 5455         c3    182    bbb     C9   5455 -0.06455200  12.010000   ; qtot 182.115326
 5456         h1    182    bbb    H17   5456 0.13554100   1.008000   ; qtot 182.250867
 5457         h1    182    bbb    H18   5457 0.13554100   1.008000   ; qtot 182.386408
 5458         os    182    bbb     O1   5458 -0.62587700  16.000000   ; qtot 181.760531
 5459         hn    182    bbb    H19   5459 0.23982500   1.008000   ; qtot 182.000356
; residue  183 bbb rtp bbb q 1.0
 5460         n4    183    bbb     N1   5460 0.03726400  14.010000   ; qtot 182.037620
 5461         c3    183    bbb     C1   5461 -0.07020100  12.010000   ; qtot 181.967419
 5462         hx    183    bbb     H1   5462 0.12219000   1.008000   ; qtot 182.089609
 5463         hx    183    bbb     H2   5463 0.12219000   1.008000   ; qtot 182.211799
 5464         c3    183    bbb     C2   5464 -0.07020100  12.010000   ; qtot 182.141598
 5465         hx    183    bbb     H3   5465 0.12219000   1.008000   ; qtot 182.263788
 5466         hx    183    bbb     H4   5466 0.12219000   1.008000   ; qtot 182.385978
 5467         c3    183    bbb     C3   5467 -0.39007700  12.010000   ; qtot 181.995901
 5468         hx    183    bbb     H5   5468 0.14940300   1.008000   ; qtot 182.145304
 5469         hx    183    bbb     H6   5469 0.14940300   1.008000   ; qtot 182.294707
 5470         c3    183    bbb     C4   5470 0.18057300  12.010000   ; qtot 182.475280
 5471         hc    183    bbb     H7   5471 0.01788900   1.008000   ; qtot 182.493169
 5472         hc    183    bbb     H8   5472 0.01788900   1.008000   ; qtot 182.511058
 5473         c3    183    bbb     C5   5473 -0.11337700  12.010000   ; qtot 182.397681
 5474         hc    183    bbb     H9   5474 0.09515400   1.008000   ; qtot 182.492835
 5475         hc    183    bbb    H10   5475 0.09515400   1.008000   ; qtot 182.587989
 5476         c3    183    bbb     C6   5476 -0.11337700  12.010000   ; qtot 182.474612
 5477         hc    183    bbb    H11   5477 0.09515400   1.008000   ; qtot 182.569766
 5478         hc    183    bbb    H12   5478 0.09515400   1.008000   ; qtot 182.664920
 5479         c3    183    bbb     C7   5479 0.21842400  12.010000   ; qtot 182.883344
 5480         h1    183    bbb    H13   5480 0.04500300   1.008000   ; qtot 182.928347
 5481         h1    183    bbb    H14   5481 0.04500300   1.008000   ; qtot 182.973350
 5482         c3    183    bbb     C8   5482 -0.06455200  12.010000   ; qtot 182.908798
 5483         h1    183    bbb    H15   5483 0.13554100   1.008000   ; qtot 183.044339
 5484         h1    183    bbb    H16   5484 0.13554100   1.008000   ; qtot 183.179880
 5485         c3    183    bbb     C9   5485 -0.06455200  12.010000   ; qtot 183.115328
 5486         h1    183    bbb    H17   5486 0.13554100   1.008000   ; qtot 183.250869
 5487         h1    183    bbb    H18   5487 0.13554100   1.008000   ; qtot 183.386410
 5488         os    183    bbb     O1   5488 -0.62587700  16.000000   ; qtot 182.760533
 5489         hn    183    bbb    H19   5489 0.23982500   1.008000   ; qtot 183.000358
; residue  184 bbb rtp bbb q 1.0
 5490         n4    184    bbb     N1   5490 0.03726400  14.010000   ; qtot 183.037622
 5491         c3    184    bbb     C1   5491 -0.07020100  12.010000   ; qtot 182.967421
 5492         hx    184    bbb     H1   5492 0.12219000   1.008000   ; qtot 183.089611
 5493         hx    184    bbb     H2   5493 0.12219000   1.008000   ; qtot 183.211801
 5494         c3    184    bbb     C2   5494 -0.07020100  12.010000   ; qtot 183.141600
 5495         hx    184    bbb     H3   5495 0.12219000   1.008000   ; qtot 183.263790
 5496         hx    184    bbb     H4   5496 0.12219000   1.008000   ; qtot 183.385980
 5497         c3    184    bbb     C3   5497 -0.39007700  12.010000   ; qtot 182.995903
 5498         hx    184    bbb     H5   5498 0.14940300   1.008000   ; qtot 183.145306
 5499         hx    184    bbb     H6   5499 0.14940300   1.008000   ; qtot 183.294709
 5500         c3    184    bbb     C4   5500 0.18057300  12.010000   ; qtot 183.475282
 5501         hc    184    bbb     H7   5501 0.01788900   1.008000   ; qtot 183.493171
 5502         hc    184    bbb     H8   5502 0.01788900   1.008000   ; qtot 183.511060
 5503         c3    184    bbb     C5   5503 -0.11337700  12.010000   ; qtot 183.397683
 5504         hc    184    bbb     H9   5504 0.09515400   1.008000   ; qtot 183.492837
 5505         hc    184    bbb    H10   5505 0.09515400   1.008000   ; qtot 183.587991
 5506         c3    184    bbb     C6   5506 -0.11337700  12.010000   ; qtot 183.474614
 5507         hc    184    bbb    H11   5507 0.09515400   1.008000   ; qtot 183.569768
 5508         hc    184    bbb    H12   5508 0.09515400   1.008000   ; qtot 183.664922
 5509         c3    184    bbb     C7   5509 0.21842400  12.010000   ; qtot 183.883346
 5510         h1    184    bbb    H13   5510 0.04500300   1.008000   ; qtot 183.928349
 5511         h1    184    bbb    H14   5511 0.04500300   1.008000   ; qtot 183.973352
 5512         c3    184    bbb     C8   5512 -0.06455200  12.010000   ; qtot 183.908800
 5513         h1    184    bbb    H15   5513 0.13554100   1.008000   ; qtot 184.044341
 5514         h1    184    bbb    H16   5514 0.13554100   1.008000   ; qtot 184.179882
 5515         c3    184    bbb     C9   5515 -0.06455200  12.010000   ; qtot 184.115330
 5516         h1    184    bbb    H17   5516 0.13554100   1.008000   ; qtot 184.250871
 5517         h1    184    bbb    H18   5517 0.13554100   1.008000   ; qtot 184.386412
 5518         os    184    bbb     O1   5518 -0.62587700  16.000000   ; qtot 183.760535
 5519         hn    184    bbb    H19   5519 0.23982500   1.008000   ; qtot 184.000360
; residue  185 bbb rtp bbb q 1.0
 5520         n4    185    bbb     N1   5520 0.03726400  14.010000   ; qtot 184.037624
 5521         c3    185    bbb     C1   5521 -0.07020100  12.010000   ; qtot 183.967423
 5522         hx    185    bbb     H1   5522 0.12219000   1.008000   ; qtot 184.089613
 5523         hx    185    bbb     H2   5523 0.12219000   1.008000   ; qtot 184.211803
 5524         c3    185    bbb     C2   5524 -0.07020100  12.010000   ; qtot 184.141602
 5525         hx    185    bbb     H3   5525 0.12219000   1.008000   ; qtot 184.263792
 5526         hx    185    bbb     H4   5526 0.12219000   1.008000   ; qtot 184.385982
 5527         c3    185    bbb     C3   5527 -0.39007700  12.010000   ; qtot 183.995905
 5528         hx    185    bbb     H5   5528 0.14940300   1.008000   ; qtot 184.145308
 5529         hx    185    bbb     H6   5529 0.14940300   1.008000   ; qtot 184.294711
 5530         c3    185    bbb     C4   5530 0.18057300  12.010000   ; qtot 184.475284
 5531         hc    185    bbb     H7   5531 0.01788900   1.008000   ; qtot 184.493173
 5532         hc    185    bbb     H8   5532 0.01788900   1.008000   ; qtot 184.511062
 5533         c3    185    bbb     C5   5533 -0.11337700  12.010000   ; qtot 184.397685
 5534         hc    185    bbb     H9   5534 0.09515400   1.008000   ; qtot 184.492839
 5535         hc    185    bbb    H10   5535 0.09515400   1.008000   ; qtot 184.587993
 5536         c3    185    bbb     C6   5536 -0.11337700  12.010000   ; qtot 184.474616
 5537         hc    185    bbb    H11   5537 0.09515400   1.008000   ; qtot 184.569770
 5538         hc    185    bbb    H12   5538 0.09515400   1.008000   ; qtot 184.664924
 5539         c3    185    bbb     C7   5539 0.21842400  12.010000   ; qtot 184.883348
 5540         h1    185    bbb    H13   5540 0.04500300   1.008000   ; qtot 184.928351
 5541         h1    185    bbb    H14   5541 0.04500300   1.008000   ; qtot 184.973354
 5542         c3    185    bbb     C8   5542 -0.06455200  12.010000   ; qtot 184.908802
 5543         h1    185    bbb    H15   5543 0.13554100   1.008000   ; qtot 185.044343
 5544         h1    185    bbb    H16   5544 0.13554100   1.008000   ; qtot 185.179884
 5545         c3    185    bbb     C9   5545 -0.06455200  12.010000   ; qtot 185.115332
 5546         h1    185    bbb    H17   5546 0.13554100   1.008000   ; qtot 185.250873
 5547         h1    185    bbb    H18   5547 0.13554100   1.008000   ; qtot 185.386414
 5548         os    185    bbb     O1   5548 -0.62587700  16.000000   ; qtot 184.760537
 5549         hn    185    bbb    H19   5549 0.23982500   1.008000   ; qtot 185.000362
; residue  186 bbb rtp bbb q 1.0
 5550         n4    186    bbb     N1   5550 0.03726400  14.010000   ; qtot 185.037626
 5551         c3    186    bbb     C1   5551 -0.07020100  12.010000   ; qtot 184.967425
 5552         hx    186    bbb     H1   5552 0.12219000   1.008000   ; qtot 185.089615
 5553         hx    186    bbb     H2   5553 0.12219000   1.008000   ; qtot 185.211805
 5554         c3    186    bbb     C2   5554 -0.07020100  12.010000   ; qtot 185.141604
 5555         hx    186    bbb     H3   5555 0.12219000   1.008000   ; qtot 185.263794
 5556         hx    186    bbb     H4   5556 0.12219000   1.008000   ; qtot 185.385984
 5557         c3    186    bbb     C3   5557 -0.39007700  12.010000   ; qtot 184.995907
 5558         hx    186    bbb     H5   5558 0.14940300   1.008000   ; qtot 185.145310
 5559         hx    186    bbb     H6   5559 0.14940300   1.008000   ; qtot 185.294713
 5560         c3    186    bbb     C4   5560 0.18057300  12.010000   ; qtot 185.475286
 5561         hc    186    bbb     H7   5561 0.01788900   1.008000   ; qtot 185.493175
 5562         hc    186    bbb     H8   5562 0.01788900   1.008000   ; qtot 185.511064
 5563         c3    186    bbb     C5   5563 -0.11337700  12.010000   ; qtot 185.397687
 5564         hc    186    bbb     H9   5564 0.09515400   1.008000   ; qtot 185.492841
 5565         hc    186    bbb    H10   5565 0.09515400   1.008000   ; qtot 185.587995
 5566         c3    186    bbb     C6   5566 -0.11337700  12.010000   ; qtot 185.474618
 5567         hc    186    bbb    H11   5567 0.09515400   1.008000   ; qtot 185.569772
 5568         hc    186    bbb    H12   5568 0.09515400   1.008000   ; qtot 185.664926
 5569         c3    186    bbb     C7   5569 0.21842400  12.010000   ; qtot 185.883350
 5570         h1    186    bbb    H13   5570 0.04500300   1.008000   ; qtot 185.928353
 5571         h1    186    bbb    H14   5571 0.04500300   1.008000   ; qtot 185.973356
 5572         c3    186    bbb     C8   5572 -0.06455200  12.010000   ; qtot 185.908804
 5573         h1    186    bbb    H15   5573 0.13554100   1.008000   ; qtot 186.044345
 5574         h1    186    bbb    H16   5574 0.13554100   1.008000   ; qtot 186.179886
 5575         c3    186    bbb     C9   5575 -0.06455200  12.010000   ; qtot 186.115334
 5576         h1    186    bbb    H17   5576 0.13554100   1.008000   ; qtot 186.250875
 5577         h1    186    bbb    H18   5577 0.13554100   1.008000   ; qtot 186.386416
 5578         os    186    bbb     O1   5578 -0.62587700  16.000000   ; qtot 185.760539
 5579         hn    186    bbb    H19   5579 0.23982500   1.008000   ; qtot 186.000364
; residue  187 bbb rtp bbb q 1.0
 5580         n4    187    bbb     N1   5580 0.03726400  14.010000   ; qtot 186.037628
 5581         c3    187    bbb     C1   5581 -0.07020100  12.010000   ; qtot 185.967427
 5582         hx    187    bbb     H1   5582 0.12219000   1.008000   ; qtot 186.089617
 5583         hx    187    bbb     H2   5583 0.12219000   1.008000   ; qtot 186.211807
 5584         c3    187    bbb     C2   5584 -0.07020100  12.010000   ; qtot 186.141606
 5585         hx    187    bbb     H3   5585 0.12219000   1.008000   ; qtot 186.263796
 5586         hx    187    bbb     H4   5586 0.12219000   1.008000   ; qtot 186.385986
 5587         c3    187    bbb     C3   5587 -0.39007700  12.010000   ; qtot 185.995909
 5588         hx    187    bbb     H5   5588 0.14940300   1.008000   ; qtot 186.145312
 5589         hx    187    bbb     H6   5589 0.14940300   1.008000   ; qtot 186.294715
 5590         c3    187    bbb     C4   5590 0.18057300  12.010000   ; qtot 186.475288
 5591         hc    187    bbb     H7   5591 0.01788900   1.008000   ; qtot 186.493177
 5592         hc    187    bbb     H8   5592 0.01788900   1.008000   ; qtot 186.511066
 5593         c3    187    bbb     C5   5593 -0.11337700  12.010000   ; qtot 186.397689
 5594         hc    187    bbb     H9   5594 0.09515400   1.008000   ; qtot 186.492843
 5595         hc    187    bbb    H10   5595 0.09515400   1.008000   ; qtot 186.587997
 5596         c3    187    bbb     C6   5596 -0.11337700  12.010000   ; qtot 186.474620
 5597         hc    187    bbb    H11   5597 0.09515400   1.008000   ; qtot 186.569774
 5598         hc    187    bbb    H12   5598 0.09515400   1.008000   ; qtot 186.664928
 5599         c3    187    bbb     C7   5599 0.21842400  12.010000   ; qtot 186.883352
 5600         h1    187    bbb    H13   5600 0.04500300   1.008000   ; qtot 186.928355
 5601         h1    187    bbb    H14   5601 0.04500300   1.008000   ; qtot 186.973358
 5602         c3    187    bbb     C8   5602 -0.06455200  12.010000   ; qtot 186.908806
 5603         h1    187    bbb    H15   5603 0.13554100   1.008000   ; qtot 187.044347
 5604         h1    187    bbb    H16   5604 0.13554100   1.008000   ; qtot 187.179888
 5605         c3    187    bbb     C9   5605 -0.06455200  12.010000   ; qtot 187.115336
 5606         h1    187    bbb    H17   5606 0.13554100   1.008000   ; qtot 187.250877
 5607         h1    187    bbb    H18   5607 0.13554100   1.008000   ; qtot 187.386418
 5608         os    187    bbb     O1   5608 -0.62587700  16.000000   ; qtot 186.760541
 5609         hn    187    bbb    H19   5609 0.23982500   1.008000   ; qtot 187.000366
; residue  188 bbb rtp bbb q 1.0
 5610         n4    188    bbb     N1   5610 0.03726400  14.010000   ; qtot 187.037630
 5611         c3    188    bbb     C1   5611 -0.07020100  12.010000   ; qtot 186.967429
 5612         hx    188    bbb     H1   5612 0.12219000   1.008000   ; qtot 187.089619
 5613         hx    188    bbb     H2   5613 0.12219000   1.008000   ; qtot 187.211809
 5614         c3    188    bbb     C2   5614 -0.07020100  12.010000   ; qtot 187.141608
 5615         hx    188    bbb     H3   5615 0.12219000   1.008000   ; qtot 187.263798
 5616         hx    188    bbb     H4   5616 0.12219000   1.008000   ; qtot 187.385988
 5617         c3    188    bbb     C3   5617 -0.39007700  12.010000   ; qtot 186.995911
 5618         hx    188    bbb     H5   5618 0.14940300   1.008000   ; qtot 187.145314
 5619         hx    188    bbb     H6   5619 0.14940300   1.008000   ; qtot 187.294717
 5620         c3    188    bbb     C4   5620 0.18057300  12.010000   ; qtot 187.475290
 5621         hc    188    bbb     H7   5621 0.01788900   1.008000   ; qtot 187.493179
 5622         hc    188    bbb     H8   5622 0.01788900   1.008000   ; qtot 187.511068
 5623         c3    188    bbb     C5   5623 -0.11337700  12.010000   ; qtot 187.397691
 5624         hc    188    bbb     H9   5624 0.09515400   1.008000   ; qtot 187.492845
 5625         hc    188    bbb    H10   5625 0.09515400   1.008000   ; qtot 187.587999
 5626         c3    188    bbb     C6   5626 -0.11337700  12.010000   ; qtot 187.474622
 5627         hc    188    bbb    H11   5627 0.09515400   1.008000   ; qtot 187.569776
 5628         hc    188    bbb    H12   5628 0.09515400   1.008000   ; qtot 187.664930
 5629         c3    188    bbb     C7   5629 0.21842400  12.010000   ; qtot 187.883354
 5630         h1    188    bbb    H13   5630 0.04500300   1.008000   ; qtot 187.928357
 5631         h1    188    bbb    H14   5631 0.04500300   1.008000   ; qtot 187.973360
 5632         c3    188    bbb     C8   5632 -0.06455200  12.010000   ; qtot 187.908808
 5633         h1    188    bbb    H15   5633 0.13554100   1.008000   ; qtot 188.044349
 5634         h1    188    bbb    H16   5634 0.13554100   1.008000   ; qtot 188.179890
 5635         c3    188    bbb     C9   5635 -0.06455200  12.010000   ; qtot 188.115338
 5636         h1    188    bbb    H17   5636 0.13554100   1.008000   ; qtot 188.250879
 5637         h1    188    bbb    H18   5637 0.13554100   1.008000   ; qtot 188.386420
 5638         os    188    bbb     O1   5638 -0.62587700  16.000000   ; qtot 187.760543
 5639         hn    188    bbb    H19   5639 0.23982500   1.008000   ; qtot 188.000368
; residue  189 bbb rtp bbb q 1.0
 5640         n4    189    bbb     N1   5640 0.03726400  14.010000   ; qtot 188.037632
 5641         c3    189    bbb     C1   5641 -0.07020100  12.010000   ; qtot 187.967431
 5642         hx    189    bbb     H1   5642 0.12219000   1.008000   ; qtot 188.089621
 5643         hx    189    bbb     H2   5643 0.12219000   1.008000   ; qtot 188.211811
 5644         c3    189    bbb     C2   5644 -0.07020100  12.010000   ; qtot 188.141610
 5645         hx    189    bbb     H3   5645 0.12219000   1.008000   ; qtot 188.263800
 5646         hx    189    bbb     H4   5646 0.12219000   1.008000   ; qtot 188.385990
 5647         c3    189    bbb     C3   5647 -0.39007700  12.010000   ; qtot 187.995913
 5648         hx    189    bbb     H5   5648 0.14940300   1.008000   ; qtot 188.145316
 5649         hx    189    bbb     H6   5649 0.14940300   1.008000   ; qtot 188.294719
 5650         c3    189    bbb     C4   5650 0.18057300  12.010000   ; qtot 188.475292
 5651         hc    189    bbb     H7   5651 0.01788900   1.008000   ; qtot 188.493181
 5652         hc    189    bbb     H8   5652 0.01788900   1.008000   ; qtot 188.511070
 5653         c3    189    bbb     C5   5653 -0.11337700  12.010000   ; qtot 188.397693
 5654         hc    189    bbb     H9   5654 0.09515400   1.008000   ; qtot 188.492847
 5655         hc    189    bbb    H10   5655 0.09515400   1.008000   ; qtot 188.588001
 5656         c3    189    bbb     C6   5656 -0.11337700  12.010000   ; qtot 188.474624
 5657         hc    189    bbb    H11   5657 0.09515400   1.008000   ; qtot 188.569778
 5658         hc    189    bbb    H12   5658 0.09515400   1.008000   ; qtot 188.664932
 5659         c3    189    bbb     C7   5659 0.21842400  12.010000   ; qtot 188.883356
 5660         h1    189    bbb    H13   5660 0.04500300   1.008000   ; qtot 188.928359
 5661         h1    189    bbb    H14   5661 0.04500300   1.008000   ; qtot 188.973362
 5662         c3    189    bbb     C8   5662 -0.06455200  12.010000   ; qtot 188.908810
 5663         h1    189    bbb    H15   5663 0.13554100   1.008000   ; qtot 189.044351
 5664         h1    189    bbb    H16   5664 0.13554100   1.008000   ; qtot 189.179892
 5665         c3    189    bbb     C9   5665 -0.06455200  12.010000   ; qtot 189.115340
 5666         h1    189    bbb    H17   5666 0.13554100   1.008000   ; qtot 189.250881
 5667         h1    189    bbb    H18   5667 0.13554100   1.008000   ; qtot 189.386422
 5668         os    189    bbb     O1   5668 -0.62587700  16.000000   ; qtot 188.760545
 5669         hn    189    bbb    H19   5669 0.23982500   1.008000   ; qtot 189.000370
; residue  190 bbb rtp bbb q 1.0
 5670         n4    190    bbb     N1   5670 0.03726400  14.010000   ; qtot 189.037634
 5671         c3    190    bbb     C1   5671 -0.07020100  12.010000   ; qtot 188.967433
 5672         hx    190    bbb     H1   5672 0.12219000   1.008000   ; qtot 189.089623
 5673         hx    190    bbb     H2   5673 0.12219000   1.008000   ; qtot 189.211813
 5674         c3    190    bbb     C2   5674 -0.07020100  12.010000   ; qtot 189.141612
 5675         hx    190    bbb     H3   5675 0.12219000   1.008000   ; qtot 189.263802
 5676         hx    190    bbb     H4   5676 0.12219000   1.008000   ; qtot 189.385992
 5677         c3    190    bbb     C3   5677 -0.39007700  12.010000   ; qtot 188.995915
 5678         hx    190    bbb     H5   5678 0.14940300   1.008000   ; qtot 189.145318
 5679         hx    190    bbb     H6   5679 0.14940300   1.008000   ; qtot 189.294721
 5680         c3    190    bbb     C4   5680 0.18057300  12.010000   ; qtot 189.475294
 5681         hc    190    bbb     H7   5681 0.01788900   1.008000   ; qtot 189.493183
 5682         hc    190    bbb     H8   5682 0.01788900   1.008000   ; qtot 189.511072
 5683         c3    190    bbb     C5   5683 -0.11337700  12.010000   ; qtot 189.397695
 5684         hc    190    bbb     H9   5684 0.09515400   1.008000   ; qtot 189.492849
 5685         hc    190    bbb    H10   5685 0.09515400   1.008000   ; qtot 189.588003
 5686         c3    190    bbb     C6   5686 -0.11337700  12.010000   ; qtot 189.474626
 5687         hc    190    bbb    H11   5687 0.09515400   1.008000   ; qtot 189.569780
 5688         hc    190    bbb    H12   5688 0.09515400   1.008000   ; qtot 189.664934
 5689         c3    190    bbb     C7   5689 0.21842400  12.010000   ; qtot 189.883358
 5690         h1    190    bbb    H13   5690 0.04500300   1.008000   ; qtot 189.928361
 5691         h1    190    bbb    H14   5691 0.04500300   1.008000   ; qtot 189.973364
 5692         c3    190    bbb     C8   5692 -0.06455200  12.010000   ; qtot 189.908812
 5693         h1    190    bbb    H15   5693 0.13554100   1.008000   ; qtot 190.044353
 5694         h1    190    bbb    H16   5694 0.13554100   1.008000   ; qtot 190.179894
 5695         c3    190    bbb     C9   5695 -0.06455200  12.010000   ; qtot 190.115342
 5696         h1    190    bbb    H17   5696 0.13554100   1.008000   ; qtot 190.250883
 5697         h1    190    bbb    H18   5697 0.13554100   1.008000   ; qtot 190.386424
 5698         os    190    bbb     O1   5698 -0.62587700  16.000000   ; qtot 189.760547
 5699         hn    190    bbb    H19   5699 0.23982500   1.008000   ; qtot 190.000372
; residue  191 ccc rtp ccc q 0.0
 5700         c3    191    ccc     C1   5700 -0.33178800  12.010000   ; qtot 189.668584
 5701         c3    191    ccc     C2   5701 0.30606500  12.010000   ; qtot 189.974649
 5702         h1    191    ccc     H1   5702 0.11662300   1.008000   ; qtot 190.091272
 5703         h1    191    ccc     H2   5703 0.11526800   1.008000   ; qtot 190.206540
 5704         c3    191    ccc     C3   5704 0.15592700  12.010000   ; qtot 190.362467
 5705         c3    191    ccc     C4   5705 0.28383300  12.010000   ; qtot 190.646300
 5706         c3    191    ccc     C5   5706 0.32403300  12.010000   ; qtot 190.970333
 5707         h1    191    ccc     H3   5707 0.13386900   1.008000   ; qtot 191.104202
 5708         h1    191    ccc     H4   5708 0.10146700   1.008000   ; qtot 191.205669
 5709         h2    191    ccc     H5   5709 0.10960400   1.008000   ; qtot 191.315273
 5710         os    191    ccc     O1   5710 -0.28650000  16.000000   ; qtot 191.028773
 5711         oh    191    ccc     O2   5711 -0.86012500  16.000000   ; qtot 190.168648
 5712         oh    191    ccc     O3   5712 -0.83772800  16.000000   ; qtot 189.330920
 5713         oh    191    ccc     O4   5713 -0.77449700  16.000000   ; qtot 188.556423
 5714         c3    191    ccc     C6   5714 0.37576500  12.010000   ; qtot 188.932188
 5715         ho    191    ccc     H6   5715 0.53656000   1.008000   ; qtot 189.468748
 5716         ho    191    ccc     H7   5716 0.49492100   1.008000   ; qtot 189.963669
 5717         ho    191    ccc     H8   5717 0.51297200   1.008000   ; qtot 190.476641
 5718         h1    191    ccc     H9   5718 0.05653400   1.008000   ; qtot 190.533175
 5719         h1    191    ccc    H10   5719 0.05653400   1.008000   ; qtot 190.589709
 5720         oh    191    ccc     O5   5720 -0.84113600  16.000000   ; qtot 189.748573
 5721         ho    191    ccc    H11   5721 0.51201600   1.008000   ; qtot 190.260589
 5722         os    191    ccc     O6   5722 -0.26013600  16.000000   ; qtot 190.000453
; residue  192 ccc rtp ccc q 0.0
 5723         c3    192    ccc     C1   5723 -0.33178800  12.010000   ; qtot 189.668665
 5724         c3    192    ccc     C2   5724 0.30606500  12.010000   ; qtot 189.974730
 5725         h1    192    ccc     H1   5725 0.11662300   1.008000   ; qtot 190.091353
 5726         h1    192    ccc     H2   5726 0.11526800   1.008000   ; qtot 190.206621
 5727         c3    192    ccc     C3   5727 0.15592700  12.010000   ; qtot 190.362548
 5728         c3    192    ccc     C4   5728 0.28383300  12.010000   ; qtot 190.646381
 5729         c3    192    ccc     C5   5729 0.32403300  12.010000   ; qtot 190.970414
 5730         h1    192    ccc     H3   5730 0.13386900   1.008000   ; qtot 191.104283
 5731         h1    192    ccc     H4   5731 0.10146700   1.008000   ; qtot 191.205750
 5732         h2    192    ccc     H5   5732 0.10960400   1.008000   ; qtot 191.315354
 5733         os    192    ccc     O1   5733 -0.28650000  16.000000   ; qtot 191.028854
 5734         oh    192    ccc     O2   5734 -0.86012500  16.000000   ; qtot 190.168729
 5735         oh    192    ccc     O3   5735 -0.83772800  16.000000   ; qtot 189.331001
 5736         oh    192    ccc     O4   5736 -0.77449700  16.000000   ; qtot 188.556504
 5737         c3    192    ccc     C6   5737 0.37576500  12.010000   ; qtot 188.932269
 5738         ho    192    ccc     H6   5738 0.53656000   1.008000   ; qtot 189.468829
 5739         ho    192    ccc     H7   5739 0.49492100   1.008000   ; qtot 189.963750
 5740         ho    192    ccc     H8   5740 0.51297200   1.008000   ; qtot 190.476722
 5741         h1    192    ccc     H9   5741 0.05653400   1.008000   ; qtot 190.533256
 5742         h1    192    ccc    H10   5742 0.05653400   1.008000   ; qtot 190.589790
 5743         oh    192    ccc     O5   5743 -0.84113600  16.000000   ; qtot 189.748654
 5744         ho    192    ccc    H11   5744 0.51201600   1.008000   ; qtot 190.260670
 5745         os    192    ccc     O6   5745 -0.26013600  16.000000   ; qtot 190.000534
; residue  193 ccc rtp ccc q 0.0
 5746         c3    193    ccc     C1   5746 -0.33178800  12.010000   ; qtot 189.668746
 5747         c3    193    ccc     C2   5747 0.30606500  12.010000   ; qtot 189.974811
 5748         h1    193    ccc     H1   5748 0.11662300   1.008000   ; qtot 190.091434
 5749         h1    193    ccc     H2   5749 0.11526800   1.008000   ; qtot 190.206702
 5750         c3    193    ccc     C3   5750 0.15592700  12.010000   ; qtot 190.362629
 5751         c3    193    ccc     C4   5751 0.28383300  12.010000   ; qtot 190.646462
 5752         c3    193    ccc     C5   5752 0.32403300  12.010000   ; qtot 190.970495
 5753         h1    193    ccc     H3   5753 0.13386900   1.008000   ; qtot 191.104364
 5754         h1    193    ccc     H4   5754 0.10146700   1.008000   ; qtot 191.205831
 5755         h2    193    ccc     H5   5755 0.10960400   1.008000   ; qtot 191.315435
 5756         os    193    ccc     O1   5756 -0.28650000  16.000000   ; qtot 191.028935
 5757         oh    193    ccc     O2   5757 -0.86012500  16.000000   ; qtot 190.168810
 5758         oh    193    ccc     O3   5758 -0.83772800  16.000000   ; qtot 189.331082
 5759         oh    193    ccc     O4   5759 -0.77449700  16.000000   ; qtot 188.556585
 5760         c3    193    ccc     C6   5760 0.37576500  12.010000   ; qtot 188.932350
 5761         ho    193    ccc     H6   5761 0.53656000   1.008000   ; qtot 189.468910
 5762         ho    193    ccc     H7   5762 0.49492100   1.008000   ; qtot 189.963831
 5763         ho    193    ccc     H8   5763 0.51297200   1.008000   ; qtot 190.476803
 5764         h1    193    ccc     H9   5764 0.05653400   1.008000   ; qtot 190.533337
 5765         h1    193    ccc    H10   5765 0.05653400   1.008000   ; qtot 190.589871
 5766         oh    193    ccc     O5   5766 -0.84113600  16.000000   ; qtot 189.748735
 5767         ho    193    ccc    H11   5767 0.51201600   1.008000   ; qtot 190.260751
 5768         os    193    ccc     O6   5768 -0.26013600  16.000000   ; qtot 190.000615
; residue  194 ccc rtp ccc q 0.0
 5769         c3    194    ccc     C1   5769 -0.33178800  12.010000   ; qtot 189.668827
 5770         c3    194    ccc     C2   5770 0.30606500  12.010000   ; qtot 189.974892
 5771         h1    194    ccc     H1   5771 0.11662300   1.008000   ; qtot 190.091515
 5772         h1    194    ccc     H2   5772 0.11526800   1.008000   ; qtot 190.206783
 5773         c3    194    ccc     C3   5773 0.15592700  12.010000   ; qtot 190.362710
 5774         c3    194    ccc     C4   5774 0.28383300  12.010000   ; qtot 190.646543
 5775         c3    194    ccc     C5   5775 0.32403300  12.010000   ; qtot 190.970576
 5776         h1    194    ccc     H3   5776 0.13386900   1.008000   ; qtot 191.104445
 5777         h1    194    ccc     H4   5777 0.10146700   1.008000   ; qtot 191.205912
 5778         h2    194    ccc     H5   5778 0.10960400   1.008000   ; qtot 191.315516
 5779         os    194    ccc     O1   5779 -0.28650000  16.000000   ; qtot 191.029016
 5780         oh    194    ccc     O2   5780 -0.86012500  16.000000   ; qtot 190.168891
 5781         oh    194    ccc     O3   5781 -0.83772800  16.000000   ; qtot 189.331163
 5782         oh    194    ccc     O4   5782 -0.77449700  16.000000   ; qtot 188.556666
 5783         c3    194    ccc     C6   5783 0.37576500  12.010000   ; qtot 188.932431
 5784         ho    194    ccc     H6   5784 0.53656000   1.008000   ; qtot 189.468991
 5785         ho    194    ccc     H7   5785 0.49492100   1.008000   ; qtot 189.963912
 5786         ho    194    ccc     H8   5786 0.51297200   1.008000   ; qtot 190.476884
 5787         h1    194    ccc     H9   5787 0.05653400   1.008000   ; qtot 190.533418
 5788         h1    194    ccc    H10   5788 0.05653400   1.008000   ; qtot 190.589952
 5789         oh    194    ccc     O5   5789 -0.84113600  16.000000   ; qtot 189.748816
 5790         ho    194    ccc    H11   5790 0.51201600   1.008000   ; qtot 190.260832
 5791         os    194    ccc     O6   5791 -0.26013600  16.000000   ; qtot 190.000696
; residue  195 ccc rtp ccc q 0.0
 5792         c3    195    ccc     C1   5792 -0.33178800  12.010000   ; qtot 189.668908
 5793         c3    195    ccc     C2   5793 0.30606500  12.010000   ; qtot 189.974973
 5794         h1    195    ccc     H1   5794 0.11662300   1.008000   ; qtot 190.091596
 5795         h1    195    ccc     H2   5795 0.11526800   1.008000   ; qtot 190.206864
 5796         c3    195    ccc     C3   5796 0.15592700  12.010000   ; qtot 190.362791
 5797         c3    195    ccc     C4   5797 0.28383300  12.010000   ; qtot 190.646624
 5798         c3    195    ccc     C5   5798 0.32403300  12.010000   ; qtot 190.970657
 5799         h1    195    ccc     H3   5799 0.13386900   1.008000   ; qtot 191.104526
 5800         h1    195    ccc     H4   5800 0.10146700   1.008000   ; qtot 191.205993
 5801         h2    195    ccc     H5   5801 0.10960400   1.008000   ; qtot 191.315597
 5802         os    195    ccc     O1   5802 -0.28650000  16.000000   ; qtot 191.029097
 5803         oh    195    ccc     O2   5803 -0.86012500  16.000000   ; qtot 190.168972
 5804         oh    195    ccc     O3   5804 -0.83772800  16.000000   ; qtot 189.331244
 5805         oh    195    ccc     O4   5805 -0.77449700  16.000000   ; qtot 188.556747
 5806         c3    195    ccc     C6   5806 0.37576500  12.010000   ; qtot 188.932512
 5807         ho    195    ccc     H6   5807 0.53656000   1.008000   ; qtot 189.469072
 5808         ho    195    ccc     H7   5808 0.49492100   1.008000   ; qtot 189.963993
 5809         ho    195    ccc     H8   5809 0.51297200   1.008000   ; qtot 190.476965
 5810         h1    195    ccc     H9   5810 0.05653400   1.008000   ; qtot 190.533499
 5811         h1    195    ccc    H10   5811 0.05653400   1.008000   ; qtot 190.590033
 5812         oh    195    ccc     O5   5812 -0.84113600  16.000000   ; qtot 189.748897
 5813         ho    195    ccc    H11   5813 0.51201600   1.008000   ; qtot 190.260913
 5814         os    195    ccc     O6   5814 -0.26013600  16.000000   ; qtot 190.000777
; residue  196 ccc rtp ccc q 0.0
 5815         c3    196    ccc     C1   5815 -0.33178800  12.010000   ; qtot 189.668989
 5816         c3    196    ccc     C2   5816 0.30606500  12.010000   ; qtot 189.975054
 5817         h1    196    ccc     H1   5817 0.11662300   1.008000   ; qtot 190.091677
 5818         h1    196    ccc     H2   5818 0.11526800   1.008000   ; qtot 190.206945
 5819         c3    196    ccc     C3   5819 0.15592700  12.010000   ; qtot 190.362872
 5820         c3    196    ccc     C4   5820 0.28383300  12.010000   ; qtot 190.646705
 5821         c3    196    ccc     C5   5821 0.32403300  12.010000   ; qtot 190.970738
 5822         h1    196    ccc     H3   5822 0.13386900   1.008000   ; qtot 191.104607
 5823         h1    196    ccc     H4   5823 0.10146700   1.008000   ; qtot 191.206074
 5824         h2    196    ccc     H5   5824 0.10960400   1.008000   ; qtot 191.315678
 5825         os    196    ccc     O1   5825 -0.28650000  16.000000   ; qtot 191.029178
 5826         oh    196    ccc     O2   5826 -0.86012500  16.000000   ; qtot 190.169053
 5827         oh    196    ccc     O3   5827 -0.83772800  16.000000   ; qtot 189.331325
 5828         oh    196    ccc     O4   5828 -0.77449700  16.000000   ; qtot 188.556828
 5829         c3    196    ccc     C6   5829 0.37576500  12.010000   ; qtot 188.932593
 5830         ho    196    ccc     H6   5830 0.53656000   1.008000   ; qtot 189.469153
 5831         ho    196    ccc     H7   5831 0.49492100   1.008000   ; qtot 189.964074
 5832         ho    196    ccc     H8   5832 0.51297200   1.008000   ; qtot 190.477046
 5833         h1    196    ccc     H9   5833 0.05653400   1.008000   ; qtot 190.533580
 5834         h1    196    ccc    H10   5834 0.05653400   1.008000   ; qtot 190.590114
 5835         oh    196    ccc     O5   5835 -0.84113600  16.000000   ; qtot 189.748978
 5836         ho    196    ccc    H11   5836 0.51201600   1.008000   ; qtot 190.260994
 5837         os    196    ccc     O6   5837 -0.26013600  16.000000   ; qtot 190.000858
; residue  197 ccc rtp ccc q 0.0
 5838         c3    197    ccc     C1   5838 -0.33178800  12.010000   ; qtot 189.669070
 5839         c3    197    ccc     C2   5839 0.30606500  12.010000   ; qtot 189.975135
 5840         h1    197    ccc     H1   5840 0.11662300   1.008000   ; qtot 190.091758
 5841         h1    197    ccc     H2   5841 0.11526800   1.008000   ; qtot 190.207026
 5842         c3    197    ccc     C3   5842 0.15592700  12.010000   ; qtot 190.362953
 5843         c3    197    ccc     C4   5843 0.28383300  12.010000   ; qtot 190.646786
 5844         c3    197    ccc     C5   5844 0.32403300  12.010000   ; qtot 190.970819
 5845         h1    197    ccc     H3   5845 0.13386900   1.008000   ; qtot 191.104688
 5846         h1    197    ccc     H4   5846 0.10146700   1.008000   ; qtot 191.206155
 5847         h2    197    ccc     H5   5847 0.10960400   1.008000   ; qtot 191.315759
 5848         os    197    ccc     O1   5848 -0.28650000  16.000000   ; qtot 191.029259
 5849         oh    197    ccc     O2   5849 -0.86012500  16.000000   ; qtot 190.169134
 5850         oh    197    ccc     O3   5850 -0.83772800  16.000000   ; qtot 189.331406
 5851         oh    197    ccc     O4   5851 -0.77449700  16.000000   ; qtot 188.556909
 5852         c3    197    ccc     C6   5852 0.37576500  12.010000   ; qtot 188.932674
 5853         ho    197    ccc     H6   5853 0.53656000   1.008000   ; qtot 189.469234
 5854         ho    197    ccc     H7   5854 0.49492100   1.008000   ; qtot 189.964155
 5855         ho    197    ccc     H8   5855 0.51297200   1.008000   ; qtot 190.477127
 5856         h1    197    ccc     H9   5856 0.05653400   1.008000   ; qtot 190.533661
 5857         h1    197    ccc    H10   5857 0.05653400   1.008000   ; qtot 190.590195
 5858         oh    197    ccc     O5   5858 -0.84113600  16.000000   ; qtot 189.749059
 5859         ho    197    ccc    H11   5859 0.51201600   1.008000   ; qtot 190.261075
 5860         os    197    ccc     O6   5860 -0.26013600  16.000000   ; qtot 190.000939
; residue  198 ccc rtp ccc q 0.0
 5861         c3    198    ccc     C1   5861 -0.33178800  12.010000   ; qtot 189.669151
 5862         c3    198    ccc     C2   5862 0.30606500  12.010000   ; qtot 189.975216
 5863         h1    198    ccc     H1   5863 0.11662300   1.008000   ; qtot 190.091839
 5864         h1    198    ccc     H2   5864 0.11526800   1.008000   ; qtot 190.207107
 5865         c3    198    ccc     C3   5865 0.15592700  12.010000   ; qtot 190.363034
 5866         c3    198    ccc     C4   5866 0.28383300  12.010000   ; qtot 190.646867
 5867         c3    198    ccc     C5   5867 0.32403300  12.010000   ; qtot 190.970900
 5868         h1    198    ccc     H3   5868 0.13386900   1.008000   ; qtot 191.104769
 5869         h1    198    ccc     H4   5869 0.10146700   1.008000   ; qtot 191.206236
 5870         h2    198    ccc     H5   5870 0.10960400   1.008000   ; qtot 191.315840
 5871         os    198    ccc     O1   5871 -0.28650000  16.000000   ; qtot 191.029340
 5872         oh    198    ccc     O2   5872 -0.86012500  16.000000   ; qtot 190.169215
 5873         oh    198    ccc     O3   5873 -0.83772800  16.000000   ; qtot 189.331487
 5874         oh    198    ccc     O4   5874 -0.77449700  16.000000   ; qtot 188.556990
 5875         c3    198    ccc     C6   5875 0.37576500  12.010000   ; qtot 188.932755
 5876         ho    198    ccc     H6   5876 0.53656000   1.008000   ; qtot 189.469315
 5877         ho    198    ccc     H7   5877 0.49492100   1.008000   ; qtot 189.964236
 5878         ho    198    ccc     H8   5878 0.51297200   1.008000   ; qtot 190.477208
 5879         h1    198    ccc     H9   5879 0.05653400   1.008000   ; qtot 190.533742
 5880         h1    198    ccc    H10   5880 0.05653400   1.008000   ; qtot 190.590276
 5881         oh    198    ccc     O5   5881 -0.84113600  16.000000   ; qtot 189.749140
 5882         ho    198    ccc    H11   5882 0.51201600   1.008000   ; qtot 190.261156
 5883         os    198    ccc     O6   5883 -0.26013600  16.000000   ; qtot 190.001020
; residue  199 ccc rtp ccc q 0.0
 5884         c3    199    ccc     C1   5884 -0.33178800  12.010000   ; qtot 189.669232
 5885         c3    199    ccc     C2   5885 0.30606500  12.010000   ; qtot 189.975297
 5886         h1    199    ccc     H1   5886 0.11662300   1.008000   ; qtot 190.091920
 5887         h1    199    ccc     H2   5887 0.11526800   1.008000   ; qtot 190.207188
 5888         c3    199    ccc     C3   5888 0.15592700  12.010000   ; qtot 190.363115
 5889         c3    199    ccc     C4   5889 0.28383300  12.010000   ; qtot 190.646948
 5890         c3    199    ccc     C5   5890 0.32403300  12.010000   ; qtot 190.970981
 5891         h1    199    ccc     H3   5891 0.13386900   1.008000   ; qtot 191.104850
 5892         h1    199    ccc     H4   5892 0.10146700   1.008000   ; qtot 191.206317
 5893         h2    199    ccc     H5   5893 0.10960400   1.008000   ; qtot 191.315921
 5894         os    199    ccc     O1   5894 -0.28650000  16.000000   ; qtot 191.029421
 5895         oh    199    ccc     O2   5895 -0.86012500  16.000000   ; qtot 190.169296
 5896         oh    199    ccc     O3   5896 -0.83772800  16.000000   ; qtot 189.331568
 5897         oh    199    ccc     O4   5897 -0.77449700  16.000000   ; qtot 188.557071
 5898         c3    199    ccc     C6   5898 0.37576500  12.010000   ; qtot 188.932836
 5899         ho    199    ccc     H6   5899 0.53656000   1.008000   ; qtot 189.469396
 5900         ho    199    ccc     H7   5900 0.49492100   1.008000   ; qtot 189.964317
 5901         ho    199    ccc     H8   5901 0.51297200   1.008000   ; qtot 190.477289
 5902         h1    199    ccc     H9   5902 0.05653400   1.008000   ; qtot 190.533823
 5903         h1    199    ccc    H10   5903 0.05653400   1.008000   ; qtot 190.590357
 5904         oh    199    ccc     O5   5904 -0.84113600  16.000000   ; qtot 189.749221
 5905         ho    199    ccc    H11   5905 0.51201600   1.008000   ; qtot 190.261237
 5906         os    199    ccc     O6   5906 -0.26013600  16.000000   ; qtot 190.001101
; residue  200 ccc rtp ccc q 0.0
 5907         c3    200    ccc     C1   5907 -0.33178800  12.010000   ; qtot 189.669313
 5908         c3    200    ccc     C2   5908 0.30606500  12.010000   ; qtot 189.975378
 5909         h1    200    ccc     H1   5909 0.11662300   1.008000   ; qtot 190.092001
 5910         h1    200    ccc     H2   5910 0.11526800   1.008000   ; qtot 190.207269
 5911         c3    200    ccc     C3   5911 0.15592700  12.010000   ; qtot 190.363196
 5912         c3    200    ccc     C4   5912 0.28383300  12.010000   ; qtot 190.647029
 5913         c3    200    ccc     C5   5913 0.32403300  12.010000   ; qtot 190.971062
 5914         h1    200    ccc     H3   5914 0.13386900   1.008000   ; qtot 191.104931
 5915         h1    200    ccc     H4   5915 0.10146700   1.008000   ; qtot 191.206398
 5916         h2    200    ccc     H5   5916 0.10960400   1.008000   ; qtot 191.316002
 5917         os    200    ccc     O1   5917 -0.28650000  16.000000   ; qtot 191.029502
 5918         oh    200    ccc     O2   5918 -0.86012500  16.000000   ; qtot 190.169377
 5919         oh    200    ccc     O3   5919 -0.83772800  16.000000   ; qtot 189.331649
 5920         oh    200    ccc     O4   5920 -0.77449700  16.000000   ; qtot 188.557152
 5921         c3    200    ccc     C6   5921 0.37576500  12.010000   ; qtot 188.932917
 5922         ho    200    ccc     H6   5922 0.53656000   1.008000   ; qtot 189.469477
 5923         ho    200    ccc     H7   5923 0.49492100   1.008000   ; qtot 189.964398
 5924         ho    200    ccc     H8   5924 0.51297200   1.008000   ; qtot 190.477370
 5925         h1    200    ccc     H9   5925 0.05653400   1.008000   ; qtot 190.533904
 5926         h1    200    ccc    H10   5926 0.05653400   1.008000   ; qtot 190.590438
 5927         oh    200    ccc     O5   5927 -0.84113600  16.000000   ; qtot 189.749302
 5928         ho    200    ccc    H11   5928 0.51201600   1.008000   ; qtot 190.261318
 5929         os    200    ccc     O6   5929 -0.26013600  16.000000   ; qtot 190.001182
; residue  201 ccc rtp ccc q 0.0
 5930         c3    201    ccc     C1   5930 -0.33178800  12.010000   ; qtot 189.669394
 5931         c3    201    ccc     C2   5931 0.30606500  12.010000   ; qtot 189.975459
 5932         h1    201    ccc     H1   5932 0.11662300   1.008000   ; qtot 190.092082
 5933         h1    201    ccc     H2   5933 0.11526800   1.008000   ; qtot 190.207350
 5934         c3    201    ccc     C3   5934 0.15592700  12.010000   ; qtot 190.363277
 5935         c3    201    ccc     C4   5935 0.28383300  12.010000   ; qtot 190.647110
 5936         c3    201    ccc     C5   5936 0.32403300  12.010000   ; qtot 190.971143
 5937         h1    201    ccc     H3   5937 0.13386900   1.008000   ; qtot 191.105012
 5938         h1    201    ccc     H4   5938 0.10146700   1.008000   ; qtot 191.206479
 5939         h2    201    ccc     H5   5939 0.10960400   1.008000   ; qtot 191.316083
 5940         os    201    ccc     O1   5940 -0.28650000  16.000000   ; qtot 191.029583
 5941         oh    201    ccc     O2   5941 -0.86012500  16.000000   ; qtot 190.169458
 5942         oh    201    ccc     O3   5942 -0.83772800  16.000000   ; qtot 189.331730
 5943         oh    201    ccc     O4   5943 -0.77449700  16.000000   ; qtot 188.557233
 5944         c3    201    ccc     C6   5944 0.37576500  12.010000   ; qtot 188.932998
 5945         ho    201    ccc     H6   5945 0.53656000   1.008000   ; qtot 189.469558
 5946         ho    201    ccc     H7   5946 0.49492100   1.008000   ; qtot 189.964479
 5947         ho    201    ccc     H8   5947 0.51297200   1.008000   ; qtot 190.477451
 5948         h1    201    ccc     H9   5948 0.05653400   1.008000   ; qtot 190.533985
 5949         h1    201    ccc    H10   5949 0.05653400   1.008000   ; qtot 190.590519
 5950         oh    201    ccc     O5   5950 -0.84113600  16.000000   ; qtot 189.749383
 5951         ho    201    ccc    H11   5951 0.51201600   1.008000   ; qtot 190.261399
 5952         os    201    ccc     O6   5952 -0.26013600  16.000000   ; qtot 190.001263
; residue  202 ccc rtp ccc q 0.0
 5953         c3    202    ccc     C1   5953 -0.33178800  12.010000   ; qtot 189.669475
 5954         c3    202    ccc     C2   5954 0.30606500  12.010000   ; qtot 189.975540
 5955         h1    202    ccc     H1   5955 0.11662300   1.008000   ; qtot 190.092163
 5956         h1    202    ccc     H2   5956 0.11526800   1.008000   ; qtot 190.207431
 5957         c3    202    ccc     C3   5957 0.15592700  12.010000   ; qtot 190.363358
 5958         c3    202    ccc     C4   5958 0.28383300  12.010000   ; qtot 190.647191
 5959         c3    202    ccc     C5   5959 0.32403300  12.010000   ; qtot 190.971224
 5960         h1    202    ccc     H3   5960 0.13386900   1.008000   ; qtot 191.105093
 5961         h1    202    ccc     H4   5961 0.10146700   1.008000   ; qtot 191.206560
 5962         h2    202    ccc     H5   5962 0.10960400   1.008000   ; qtot 191.316164
 5963         os    202    ccc     O1   5963 -0.28650000  16.000000   ; qtot 191.029664
 5964         oh    202    ccc     O2   5964 -0.86012500  16.000000   ; qtot 190.169539
 5965         oh    202    ccc     O3   5965 -0.83772800  16.000000   ; qtot 189.331811
 5966         oh    202    ccc     O4   5966 -0.77449700  16.000000   ; qtot 188.557314
 5967         c3    202    ccc     C6   5967 0.37576500  12.010000   ; qtot 188.933079
 5968         ho    202    ccc     H6   5968 0.53656000   1.008000   ; qtot 189.469639
 5969         ho    202    ccc     H7   5969 0.49492100   1.008000   ; qtot 189.964560
 5970         ho    202    ccc     H8   5970 0.51297200   1.008000   ; qtot 190.477532
 5971         h1    202    ccc     H9   5971 0.05653400   1.008000   ; qtot 190.534066
 5972         h1    202    ccc    H10   5972 0.05653400   1.008000   ; qtot 190.590600
 5973         oh    202    ccc     O5   5973 -0.84113600  16.000000   ; qtot 189.749464
 5974         ho    202    ccc    H11   5974 0.51201600   1.008000   ; qtot 190.261480
 5975         os    202    ccc     O6   5975 -0.26013600  16.000000   ; qtot 190.001344
; residue  203 ccc rtp ccc q 0.0
 5976         c3    203    ccc     C1   5976 -0.33178800  12.010000   ; qtot 189.669556
 5977         c3    203    ccc     C2   5977 0.30606500  12.010000   ; qtot 189.975621
 5978         h1    203    ccc     H1   5978 0.11662300   1.008000   ; qtot 190.092244
 5979         h1    203    ccc     H2   5979 0.11526800   1.008000   ; qtot 190.207512
 5980         c3    203    ccc     C3   5980 0.15592700  12.010000   ; qtot 190.363439
 5981         c3    203    ccc     C4   5981 0.28383300  12.010000   ; qtot 190.647272
 5982         c3    203    ccc     C5   5982 0.32403300  12.010000   ; qtot 190.971305
 5983         h1    203    ccc     H3   5983 0.13386900   1.008000   ; qtot 191.105174
 5984         h1    203    ccc     H4   5984 0.10146700   1.008000   ; qtot 191.206641
 5985         h2    203    ccc     H5   5985 0.10960400   1.008000   ; qtot 191.316245
 5986         os    203    ccc     O1   5986 -0.28650000  16.000000   ; qtot 191.029745
 5987         oh    203    ccc     O2   5987 -0.86012500  16.000000   ; qtot 190.169620
 5988         oh    203    ccc     O3   5988 -0.83772800  16.000000   ; qtot 189.331892
 5989         oh    203    ccc     O4   5989 -0.77449700  16.000000   ; qtot 188.557395
 5990         c3    203    ccc     C6   5990 0.37576500  12.010000   ; qtot 188.933160
 5991         ho    203    ccc     H6   5991 0.53656000   1.008000   ; qtot 189.469720
 5992         ho    203    ccc     H7   5992 0.49492100   1.008000   ; qtot 189.964641
 5993         ho    203    ccc     H8   5993 0.51297200   1.008000   ; qtot 190.477613
 5994         h1    203    ccc     H9   5994 0.05653400   1.008000   ; qtot 190.534147
 5995         h1    203    ccc    H10   5995 0.05653400   1.008000   ; qtot 190.590681
 5996         oh    203    ccc     O5   5996 -0.84113600  16.000000   ; qtot 189.749545
 5997         ho    203    ccc    H11   5997 0.51201600   1.008000   ; qtot 190.261561
 5998         os    203    ccc     O6   5998 -0.26013600  16.000000   ; qtot 190.001425
; residue  204 ccc rtp ccc q 0.0
 5999         c3    204    ccc     C1   5999 -0.33178800  12.010000   ; qtot 189.669637
 6000         c3    204    ccc     C2   6000 0.30606500  12.010000   ; qtot 189.975702
 6001         h1    204    ccc     H1   6001 0.11662300   1.008000   ; qtot 190.092325
 6002         h1    204    ccc     H2   6002 0.11526800   1.008000   ; qtot 190.207593
 6003         c3    204    ccc     C3   6003 0.15592700  12.010000   ; qtot 190.363520
 6004         c3    204    ccc     C4   6004 0.28383300  12.010000   ; qtot 190.647353
 6005         c3    204    ccc     C5   6005 0.32403300  12.010000   ; qtot 190.971386
 6006         h1    204    ccc     H3   6006 0.13386900   1.008000   ; qtot 191.105255
 6007         h1    204    ccc     H4   6007 0.10146700   1.008000   ; qtot 191.206722
 6008         h2    204    ccc     H5   6008 0.10960400   1.008000   ; qtot 191.316326
 6009         os    204    ccc     O1   6009 -0.28650000  16.000000   ; qtot 191.029826
 6010         oh    204    ccc     O2   6010 -0.86012500  16.000000   ; qtot 190.169701
 6011         oh    204    ccc     O3   6011 -0.83772800  16.000000   ; qtot 189.331973
 6012         oh    204    ccc     O4   6012 -0.77449700  16.000000   ; qtot 188.557476
 6013         c3    204    ccc     C6   6013 0.37576500  12.010000   ; qtot 188.933241
 6014         ho    204    ccc     H6   6014 0.53656000   1.008000   ; qtot 189.469801
 6015         ho    204    ccc     H7   6015 0.49492100   1.008000   ; qtot 189.964722
 6016         ho    204    ccc     H8   6016 0.51297200   1.008000   ; qtot 190.477694
 6017         h1    204    ccc     H9   6017 0.05653400   1.008000   ; qtot 190.534228
 6018         h1    204    ccc    H10   6018 0.05653400   1.008000   ; qtot 190.590762
 6019         oh    204    ccc     O5   6019 -0.84113600  16.000000   ; qtot 189.749626
 6020         ho    204    ccc    H11   6020 0.51201600   1.008000   ; qtot 190.261642
 6021         os    204    ccc     O6   6021 -0.26013600  16.000000   ; qtot 190.001506
; residue  205 ccc rtp ccc q 0.0
 6022         c3    205    ccc     C1   6022 -0.33178800  12.010000   ; qtot 189.669718
 6023         c3    205    ccc     C2   6023 0.30606500  12.010000   ; qtot 189.975783
 6024         h1    205    ccc     H1   6024 0.11662300   1.008000   ; qtot 190.092406
 6025         h1    205    ccc     H2   6025 0.11526800   1.008000   ; qtot 190.207674
 6026         c3    205    ccc     C3   6026 0.15592700  12.010000   ; qtot 190.363601
 6027         c3    205    ccc     C4   6027 0.28383300  12.010000   ; qtot 190.647434
 6028         c3    205    ccc     C5   6028 0.32403300  12.010000   ; qtot 190.971467
 6029         h1    205    ccc     H3   6029 0.13386900   1.008000   ; qtot 191.105336
 6030         h1    205    ccc     H4   6030 0.10146700   1.008000   ; qtot 191.206803
 6031         h2    205    ccc     H5   6031 0.10960400   1.008000   ; qtot 191.316407
 6032         os    205    ccc     O1   6032 -0.28650000  16.000000   ; qtot 191.029907
 6033         oh    205    ccc     O2   6033 -0.86012500  16.000000   ; qtot 190.169782
 6034         oh    205    ccc     O3   6034 -0.83772800  16.000000   ; qtot 189.332054
 6035         oh    205    ccc     O4   6035 -0.77449700  16.000000   ; qtot 188.557557
 6036         c3    205    ccc     C6   6036 0.37576500  12.010000   ; qtot 188.933322
 6037         ho    205    ccc     H6   6037 0.53656000   1.008000   ; qtot 189.469882
 6038         ho    205    ccc     H7   6038 0.49492100   1.008000   ; qtot 189.964803
 6039         ho    205    ccc     H8   6039 0.51297200   1.008000   ; qtot 190.477775
 6040         h1    205    ccc     H9   6040 0.05653400   1.008000   ; qtot 190.534309
 6041         h1    205    ccc    H10   6041 0.05653400   1.008000   ; qtot 190.590843
 6042         oh    205    ccc     O5   6042 -0.84113600  16.000000   ; qtot 189.749707
 6043         ho    205    ccc    H11   6043 0.51201600   1.008000   ; qtot 190.261723
 6044         os    205    ccc     O6   6044 -0.26013600  16.000000   ; qtot 190.001587
; residue  206 ccc rtp ccc q 0.0
 6045         c3    206    ccc     C1   6045 -0.33178800  12.010000   ; qtot 189.669799
 6046         c3    206    ccc     C2   6046 0.30606500  12.010000   ; qtot 189.975864
 6047         h1    206    ccc     H1   6047 0.11662300   1.008000   ; qtot 190.092487
 6048         h1    206    ccc     H2   6048 0.11526800   1.008000   ; qtot 190.207755
 6049         c3    206    ccc     C3   6049 0.15592700  12.010000   ; qtot 190.363682
 6050         c3    206    ccc     C4   6050 0.28383300  12.010000   ; qtot 190.647515
 6051         c3    206    ccc     C5   6051 0.32403300  12.010000   ; qtot 190.971548
 6052         h1    206    ccc     H3   6052 0.13386900   1.008000   ; qtot 191.105417
 6053         h1    206    ccc     H4   6053 0.10146700   1.008000   ; qtot 191.206884
 6054         h2    206    ccc     H5   6054 0.10960400   1.008000   ; qtot 191.316488
 6055         os    206    ccc     O1   6055 -0.28650000  16.000000   ; qtot 191.029988
 6056         oh    206    ccc     O2   6056 -0.86012500  16.000000   ; qtot 190.169863
 6057         oh    206    ccc     O3   6057 -0.83772800  16.000000   ; qtot 189.332135
 6058         oh    206    ccc     O4   6058 -0.77449700  16.000000   ; qtot 188.557638
 6059         c3    206    ccc     C6   6059 0.37576500  12.010000   ; qtot 188.933403
 6060         ho    206    ccc     H6   6060 0.53656000   1.008000   ; qtot 189.469963
 6061         ho    206    ccc     H7   6061 0.49492100   1.008000   ; qtot 189.964884
 6062         ho    206    ccc     H8   6062 0.51297200   1.008000   ; qtot 190.477856
 6063         h1    206    ccc     H9   6063 0.05653400   1.008000   ; qtot 190.534390
 6064         h1    206    ccc    H10   6064 0.05653400   1.008000   ; qtot 190.590924
 6065         oh    206    ccc     O5   6065 -0.84113600  16.000000   ; qtot 189.749788
 6066         ho    206    ccc    H11   6066 0.51201600   1.008000   ; qtot 190.261804
 6067         os    206    ccc     O6   6067 -0.26013600  16.000000   ; qtot 190.001668
; residue  207 ccc rtp ccc q 0.0
 6068         c3    207    ccc     C1   6068 -0.33178800  12.010000   ; qtot 189.669880
 6069         c3    207    ccc     C2   6069 0.30606500  12.010000   ; qtot 189.975945
 6070         h1    207    ccc     H1   6070 0.11662300   1.008000   ; qtot 190.092568
 6071         h1    207    ccc     H2   6071 0.11526800   1.008000   ; qtot 190.207836
 6072         c3    207    ccc     C3   6072 0.15592700  12.010000   ; qtot 190.363763
 6073         c3    207    ccc     C4   6073 0.28383300  12.010000   ; qtot 190.647596
 6074         c3    207    ccc     C5   6074 0.32403300  12.010000   ; qtot 190.971629
 6075         h1    207    ccc     H3   6075 0.13386900   1.008000   ; qtot 191.105498
 6076         h1    207    ccc     H4   6076 0.10146700   1.008000   ; qtot 191.206965
 6077         h2    207    ccc     H5   6077 0.10960400   1.008000   ; qtot 191.316569
 6078         os    207    ccc     O1   6078 -0.28650000  16.000000   ; qtot 191.030069
 6079         oh    207    ccc     O2   6079 -0.86012500  16.000000   ; qtot 190.169944
 6080         oh    207    ccc     O3   6080 -0.83772800  16.000000   ; qtot 189.332216
 6081         oh    207    ccc     O4   6081 -0.77449700  16.000000   ; qtot 188.557719
 6082         c3    207    ccc     C6   6082 0.37576500  12.010000   ; qtot 188.933484
 6083         ho    207    ccc     H6   6083 0.53656000   1.008000   ; qtot 189.470044
 6084         ho    207    ccc     H7   6084 0.49492100   1.008000   ; qtot 189.964965
 6085         ho    207    ccc     H8   6085 0.51297200   1.008000   ; qtot 190.477937
 6086         h1    207    ccc     H9   6086 0.05653400   1.008000   ; qtot 190.534471
 6087         h1    207    ccc    H10   6087 0.05653400   1.008000   ; qtot 190.591005
 6088         oh    207    ccc     O5   6088 -0.84113600  16.000000   ; qtot 189.749869
 6089         ho    207    ccc    H11   6089 0.51201600   1.008000   ; qtot 190.261885
 6090         os    207    ccc     O6   6090 -0.26013600  16.000000   ; qtot 190.001749
; residue  208 ccc rtp ccc q 0.0
 6091         c3    208    ccc     C1   6091 -0.33178800  12.010000   ; qtot 189.669961
 6092         c3    208    ccc     C2   6092 0.30606500  12.010000   ; qtot 189.976026
 6093         h1    208    ccc     H1   6093 0.11662300   1.008000   ; qtot 190.092649
 6094         h1    208    ccc     H2   6094 0.11526800   1.008000   ; qtot 190.207917
 6095         c3    208    ccc     C3   6095 0.15592700  12.010000   ; qtot 190.363844
 6096         c3    208    ccc     C4   6096 0.28383300  12.010000   ; qtot 190.647677
 6097         c3    208    ccc     C5   6097 0.32403300  12.010000   ; qtot 190.971710
 6098         h1    208    ccc     H3   6098 0.13386900   1.008000   ; qtot 191.105579
 6099         h1    208    ccc     H4   6099 0.10146700   1.008000   ; qtot 191.207046
 6100         h2    208    ccc     H5   6100 0.10960400   1.008000   ; qtot 191.316650
 6101         os    208    ccc     O1   6101 -0.28650000  16.000000   ; qtot 191.030150
 6102         oh    208    ccc     O2   6102 -0.86012500  16.000000   ; qtot 190.170025
 6103         oh    208    ccc     O3   6103 -0.83772800  16.000000   ; qtot 189.332298
 6104         oh    208    ccc     O4   6104 -0.77449700  16.000000   ; qtot 188.557800
 6105         c3    208    ccc     C6   6105 0.37576500  12.010000   ; qtot 188.933565
 6106         ho    208    ccc     H6   6106 0.53656000   1.008000   ; qtot 189.470125
 6107         ho    208    ccc     H7   6107 0.49492100   1.008000   ; qtot 189.965046
 6108         ho    208    ccc     H8   6108 0.51297200   1.008000   ; qtot 190.478018
 6109         h1    208    ccc     H9   6109 0.05653400   1.008000   ; qtot 190.534552
 6110         h1    208    ccc    H10   6110 0.05653400   1.008000   ; qtot 190.591087
 6111         oh    208    ccc     O5   6111 -0.84113600  16.000000   ; qtot 189.749951
 6112         ho    208    ccc    H11   6112 0.51201600   1.008000   ; qtot 190.261967
 6113         os    208    ccc     O6   6113 -0.26013600  16.000000   ; qtot 190.001831
; residue  209 ccc rtp ccc q 0.0
 6114         c3    209    ccc     C1   6114 -0.33178800  12.010000   ; qtot 189.670043
 6115         c3    209    ccc     C2   6115 0.30606500  12.010000   ; qtot 189.976108
 6116         h1    209    ccc     H1   6116 0.11662300   1.008000   ; qtot 190.092731
 6117         h1    209    ccc     H2   6117 0.11526800   1.008000   ; qtot 190.207999
 6118         c3    209    ccc     C3   6118 0.15592700  12.010000   ; qtot 190.363926
 6119         c3    209    ccc     C4   6119 0.28383300  12.010000   ; qtot 190.647759
 6120         c3    209    ccc     C5   6120 0.32403300  12.010000   ; qtot 190.971792
 6121         h1    209    ccc     H3   6121 0.13386900   1.008000   ; qtot 191.105661
 6122         h1    209    ccc     H4   6122 0.10146700   1.008000   ; qtot 191.207128
 6123         h2    209    ccc     H5   6123 0.10960400   1.008000   ; qtot 191.316732
 6124         os    209    ccc     O1   6124 -0.28650000  16.000000   ; qtot 191.030232
 6125         oh    209    ccc     O2   6125 -0.86012500  16.000000   ; qtot 190.170107
 6126         oh    209    ccc     O3   6126 -0.83772800  16.000000   ; qtot 189.332379
 6127         oh    209    ccc     O4   6127 -0.77449700  16.000000   ; qtot 188.557882
 6128         c3    209    ccc     C6   6128 0.37576500  12.010000   ; qtot 188.933647
 6129         ho    209    ccc     H6   6129 0.53656000   1.008000   ; qtot 189.470207
 6130         ho    209    ccc     H7   6130 0.49492100   1.008000   ; qtot 189.965128
 6131         ho    209    ccc     H8   6131 0.51297200   1.008000   ; qtot 190.478100
 6132         h1    209    ccc     H9   6132 0.05653400   1.008000   ; qtot 190.534634
 6133         h1    209    ccc    H10   6133 0.05653400   1.008000   ; qtot 190.591168
 6134         oh    209    ccc     O5   6134 -0.84113600  16.000000   ; qtot 189.750032
 6135         ho    209    ccc    H11   6135 0.51201600   1.008000   ; qtot 190.262048
 6136         os    209    ccc     O6   6136 -0.26013600  16.000000   ; qtot 190.001912
; residue  210 ccc rtp ccc q 0.0
 6137         c3    210    ccc     C1   6137 -0.33178800  12.010000   ; qtot 189.670124
 6138         c3    210    ccc     C2   6138 0.30606500  12.010000   ; qtot 189.976189
 6139         h1    210    ccc     H1   6139 0.11662300   1.008000   ; qtot 190.092812
 6140         h1    210    ccc     H2   6140 0.11526800   1.008000   ; qtot 190.208080
 6141         c3    210    ccc     C3   6141 0.15592700  12.010000   ; qtot 190.364007
 6142         c3    210    ccc     C4   6142 0.28383300  12.010000   ; qtot 190.647840
 6143         c3    210    ccc     C5   6143 0.32403300  12.010000   ; qtot 190.971873
 6144         h1    210    ccc     H3   6144 0.13386900   1.008000   ; qtot 191.105742
 6145         h1    210    ccc     H4   6145 0.10146700   1.008000   ; qtot 191.207209
 6146         h2    210    ccc     H5   6146 0.10960400   1.008000   ; qtot 191.316813
 6147         os    210    ccc     O1   6147 -0.28650000  16.000000   ; qtot 191.030313
 6148         oh    210    ccc     O2   6148 -0.86012500  16.000000   ; qtot 190.170188
 6149         oh    210    ccc     O3   6149 -0.83772800  16.000000   ; qtot 189.332460
 6150         oh    210    ccc     O4   6150 -0.77449700  16.000000   ; qtot 188.557963
 6151         c3    210    ccc     C6   6151 0.37576500  12.010000   ; qtot 188.933728
 6152         ho    210    ccc     H6   6152 0.53656000   1.008000   ; qtot 189.470288
 6153         ho    210    ccc     H7   6153 0.49492100   1.008000   ; qtot 189.965209
 6154         ho    210    ccc     H8   6154 0.51297200   1.008000   ; qtot 190.478181
 6155         h1    210    ccc     H9   6155 0.05653400   1.008000   ; qtot 190.534715
 6156         h1    210    ccc    H10   6156 0.05653400   1.008000   ; qtot 190.591249
 6157         oh    210    ccc     O5   6157 -0.84113600  16.000000   ; qtot 189.750113
 6158         ho    210    ccc    H11   6158 0.51201600   1.008000   ; qtot 190.262129
 6159         os    210    ccc     O6   6159 -0.26013600  16.000000   ; qtot 190.001993
; residue  211 ccc rtp ccc q 0.0
 6160         c3    211    ccc     C1   6160 -0.33178800  12.010000   ; qtot 189.670205
 6161         c3    211    ccc     C2   6161 0.30606500  12.010000   ; qtot 189.976270
 6162         h1    211    ccc     H1   6162 0.11662300   1.008000   ; qtot 190.092893
 6163         h1    211    ccc     H2   6163 0.11526800   1.008000   ; qtot 190.208161
 6164         c3    211    ccc     C3   6164 0.15592700  12.010000   ; qtot 190.364088
 6165         c3    211    ccc     C4   6165 0.28383300  12.010000   ; qtot 190.647921
 6166         c3    211    ccc     C5   6166 0.32403300  12.010000   ; qtot 190.971954
 6167         h1    211    ccc     H3   6167 0.13386900   1.008000   ; qtot 191.105823
 6168         h1    211    ccc     H4   6168 0.10146700   1.008000   ; qtot 191.207290
 6169         h2    211    ccc     H5   6169 0.10960400   1.008000   ; qtot 191.316894
 6170         os    211    ccc     O1   6170 -0.28650000  16.000000   ; qtot 191.030394
 6171         oh    211    ccc     O2   6171 -0.86012500  16.000000   ; qtot 190.170269
 6172         oh    211    ccc     O3   6172 -0.83772800  16.000000   ; qtot 189.332541
 6173         oh    211    ccc     O4   6173 -0.77449700  16.000000   ; qtot 188.558044
 6174         c3    211    ccc     C6   6174 0.37576500  12.010000   ; qtot 188.933809
 6175         ho    211    ccc     H6   6175 0.53656000   1.008000   ; qtot 189.470369
 6176         ho    211    ccc     H7   6176 0.49492100   1.008000   ; qtot 189.965290
 6177         ho    211    ccc     H8   6177 0.51297200   1.008000   ; qtot 190.478262
 6178         h1    211    ccc     H9   6178 0.05653400   1.008000   ; qtot 190.534796
 6179         h1    211    ccc    H10   6179 0.05653400   1.008000   ; qtot 190.591330
 6180         oh    211    ccc     O5   6180 -0.84113600  16.000000   ; qtot 189.750194
 6181         ho    211    ccc    H11   6181 0.51201600   1.008000   ; qtot 190.262210
 6182         os    211    ccc     O6   6182 -0.26013600  16.000000   ; qtot 190.002074
; residue  212 ccc rtp ccc q 0.0
 6183         c3    212    ccc     C1   6183 -0.33178800  12.010000   ; qtot 189.670286
 6184         c3    212    ccc     C2   6184 0.30606500  12.010000   ; qtot 189.976351
 6185         h1    212    ccc     H1   6185 0.11662300   1.008000   ; qtot 190.092974
 6186         h1    212    ccc     H2   6186 0.11526800   1.008000   ; qtot 190.208242
 6187         c3    212    ccc     C3   6187 0.15592700  12.010000   ; qtot 190.364169
 6188         c3    212    ccc     C4   6188 0.28383300  12.010000   ; qtot 190.648002
 6189         c3    212    ccc     C5   6189 0.32403300  12.010000   ; qtot 190.972035
 6190         h1    212    ccc     H3   6190 0.13386900   1.008000   ; qtot 191.105904
 6191         h1    212    ccc     H4   6191 0.10146700   1.008000   ; qtot 191.207371
 6192         h2    212    ccc     H5   6192 0.10960400   1.008000   ; qtot 191.316975
 6193         os    212    ccc     O1   6193 -0.28650000  16.000000   ; qtot 191.030475
 6194         oh    212    ccc     O2   6194 -0.86012500  16.000000   ; qtot 190.170350
 6195         oh    212    ccc     O3   6195 -0.83772800  16.000000   ; qtot 189.332622
 6196         oh    212    ccc     O4   6196 -0.77449700  16.000000   ; qtot 188.558125
 6197         c3    212    ccc     C6   6197 0.37576500  12.010000   ; qtot 188.933890
 6198         ho    212    ccc     H6   6198 0.53656000   1.008000   ; qtot 189.470450
 6199         ho    212    ccc     H7   6199 0.49492100   1.008000   ; qtot 189.965371
 6200         ho    212    ccc     H8   6200 0.51297200   1.008000   ; qtot 190.478343
 6201         h1    212    ccc     H9   6201 0.05653400   1.008000   ; qtot 190.534877
 6202         h1    212    ccc    H10   6202 0.05653400   1.008000   ; qtot 190.591411
 6203         oh    212    ccc     O5   6203 -0.84113600  16.000000   ; qtot 189.750275
 6204         ho    212    ccc    H11   6204 0.51201600   1.008000   ; qtot 190.262291
 6205         os    212    ccc     O6   6205 -0.26013600  16.000000   ; qtot 190.002155
; residue  213 ccc rtp ccc q 0.0
 6206         c3    213    ccc     C1   6206 -0.33178800  12.010000   ; qtot 189.670367
 6207         c3    213    ccc     C2   6207 0.30606500  12.010000   ; qtot 189.976432
 6208         h1    213    ccc     H1   6208 0.11662300   1.008000   ; qtot 190.093055
 6209         h1    213    ccc     H2   6209 0.11526800   1.008000   ; qtot 190.208323
 6210         c3    213    ccc     C3   6210 0.15592700  12.010000   ; qtot 190.364250
 6211         c3    213    ccc     C4   6211 0.28383300  12.010000   ; qtot 190.648083
 6212         c3    213    ccc     C5   6212 0.32403300  12.010000   ; qtot 190.972116
 6213         h1    213    ccc     H3   6213 0.13386900   1.008000   ; qtot 191.105985
 6214         h1    213    ccc     H4   6214 0.10146700   1.008000   ; qtot 191.207452
 6215         h2    213    ccc     H5   6215 0.10960400   1.008000   ; qtot 191.317056
 6216         os    213    ccc     O1   6216 -0.28650000  16.000000   ; qtot 191.030556
 6217         oh    213    ccc     O2   6217 -0.86012500  16.000000   ; qtot 190.170431
 6218         oh    213    ccc     O3   6218 -0.83772800  16.000000   ; qtot 189.332703
 6219         oh    213    ccc     O4   6219 -0.77449700  16.000000   ; qtot 188.558206
 6220         c3    213    ccc     C6   6220 0.37576500  12.010000   ; qtot 188.933971
 6221         ho    213    ccc     H6   6221 0.53656000   1.008000   ; qtot 189.470531
 6222         ho    213    ccc     H7   6222 0.49492100   1.008000   ; qtot 189.965452
 6223         ho    213    ccc     H8   6223 0.51297200   1.008000   ; qtot 190.478424
 6224         h1    213    ccc     H9   6224 0.05653400   1.008000   ; qtot 190.534958
 6225         h1    213    ccc    H10   6225 0.05653400   1.008000   ; qtot 190.591492
 6226         oh    213    ccc     O5   6226 -0.84113600  16.000000   ; qtot 189.750356
 6227         ho    213    ccc    H11   6227 0.51201600   1.008000   ; qtot 190.262372
 6228         os    213    ccc     O6   6228 -0.26013600  16.000000   ; qtot 190.002236
; residue  214 ccc rtp ccc q 0.0
 6229         c3    214    ccc     C1   6229 -0.33178800  12.010000   ; qtot 189.670448
 6230         c3    214    ccc     C2   6230 0.30606500  12.010000   ; qtot 189.976513
 6231         h1    214    ccc     H1   6231 0.11662300   1.008000   ; qtot 190.093136
 6232         h1    214    ccc     H2   6232 0.11526800   1.008000   ; qtot 190.208404
 6233         c3    214    ccc     C3   6233 0.15592700  12.010000   ; qtot 190.364331
 6234         c3    214    ccc     C4   6234 0.28383300  12.010000   ; qtot 190.648164
 6235         c3    214    ccc     C5   6235 0.32403300  12.010000   ; qtot 190.972197
 6236         h1    214    ccc     H3   6236 0.13386900   1.008000   ; qtot 191.106066
 6237         h1    214    ccc     H4   6237 0.10146700   1.008000   ; qtot 191.207533
 6238         h2    214    ccc     H5   6238 0.10960400   1.008000   ; qtot 191.317137
 6239         os    214    ccc     O1   6239 -0.28650000  16.000000   ; qtot 191.030637
 6240         oh    214    ccc     O2   6240 -0.86012500  16.000000   ; qtot 190.170512
 6241         oh    214    ccc     O3   6241 -0.83772800  16.000000   ; qtot 189.332784
 6242         oh    214    ccc     O4   6242 -0.77449700  16.000000   ; qtot 188.558287
 6243         c3    214    ccc     C6   6243 0.37576500  12.010000   ; qtot 188.934052
 6244         ho    214    ccc     H6   6244 0.53656000   1.008000   ; qtot 189.470612
 6245         ho    214    ccc     H7   6245 0.49492100   1.008000   ; qtot 189.965533
 6246         ho    214    ccc     H8   6246 0.51297200   1.008000   ; qtot 190.478505
 6247         h1    214    ccc     H9   6247 0.05653400   1.008000   ; qtot 190.535039
 6248         h1    214    ccc    H10   6248 0.05653400   1.008000   ; qtot 190.591573
 6249         oh    214    ccc     O5   6249 -0.84113600  16.000000   ; qtot 189.750437
 6250         ho    214    ccc    H11   6250 0.51201600   1.008000   ; qtot 190.262453
 6251         os    214    ccc     O6   6251 -0.26013600  16.000000   ; qtot 190.002317
; residue  215 ccc rtp ccc q 0.0
 6252         c3    215    ccc     C1   6252 -0.33178800  12.010000   ; qtot 189.670529
 6253         c3    215    ccc     C2   6253 0.30606500  12.010000   ; qtot 189.976594
 6254         h1    215    ccc     H1   6254 0.11662300   1.008000   ; qtot 190.093217
 6255         h1    215    ccc     H2   6255 0.11526800   1.008000   ; qtot 190.208485
 6256         c3    215    ccc     C3   6256 0.15592700  12.010000   ; qtot 190.364412
 6257         c3    215    ccc     C4   6257 0.28383300  12.010000   ; qtot 190.648245
 6258         c3    215    ccc     C5   6258 0.32403300  12.010000   ; qtot 190.972278
 6259         h1    215    ccc     H3   6259 0.13386900   1.008000   ; qtot 191.106147
 6260         h1    215    ccc     H4   6260 0.10146700   1.008000   ; qtot 191.207614
 6261         h2    215    ccc     H5   6261 0.10960400   1.008000   ; qtot 191.317218
 6262         os    215    ccc     O1   6262 -0.28650000  16.000000   ; qtot 191.030718
 6263         oh    215    ccc     O2   6263 -0.86012500  16.000000   ; qtot 190.170593
 6264         oh    215    ccc     O3   6264 -0.83772800  16.000000   ; qtot 189.332865
 6265         oh    215    ccc     O4   6265 -0.77449700  16.000000   ; qtot 188.558368
 6266         c3    215    ccc     C6   6266 0.37576500  12.010000   ; qtot 188.934133
 6267         ho    215    ccc     H6   6267 0.53656000   1.008000   ; qtot 189.470693
 6268         ho    215    ccc     H7   6268 0.49492100   1.008000   ; qtot 189.965614
 6269         ho    215    ccc     H8   6269 0.51297200   1.008000   ; qtot 190.478586
 6270         h1    215    ccc     H9   6270 0.05653400   1.008000   ; qtot 190.535120
 6271         h1    215    ccc    H10   6271 0.05653400   1.008000   ; qtot 190.591654
 6272         oh    215    ccc     O5   6272 -0.84113600  16.000000   ; qtot 189.750518
 6273         ho    215    ccc    H11   6273 0.51201600   1.008000   ; qtot 190.262534
 6274         os    215    ccc     O6   6274 -0.26013600  16.000000   ; qtot 190.002398
; residue  216 ccc rtp ccc q 0.0
 6275         c3    216    ccc     C1   6275 -0.33178800  12.010000   ; qtot 189.670610
 6276         c3    216    ccc     C2   6276 0.30606500  12.010000   ; qtot 189.976675
 6277         h1    216    ccc     H1   6277 0.11662300   1.008000   ; qtot 190.093298
 6278         h1    216    ccc     H2   6278 0.11526800   1.008000   ; qtot 190.208566
 6279         c3    216    ccc     C3   6279 0.15592700  12.010000   ; qtot 190.364493
 6280         c3    216    ccc     C4   6280 0.28383300  12.010000   ; qtot 190.648326
 6281         c3    216    ccc     C5   6281 0.32403300  12.010000   ; qtot 190.972359
 6282         h1    216    ccc     H3   6282 0.13386900   1.008000   ; qtot 191.106228
 6283         h1    216    ccc     H4   6283 0.10146700   1.008000   ; qtot 191.207695
 6284         h2    216    ccc     H5   6284 0.10960400   1.008000   ; qtot 191.317299
 6285         os    216    ccc     O1   6285 -0.28650000  16.000000   ; qtot 191.030799
 6286         oh    216    ccc     O2   6286 -0.86012500  16.000000   ; qtot 190.170674
 6287         oh    216    ccc     O3   6287 -0.83772800  16.000000   ; qtot 189.332946
 6288         oh    216    ccc     O4   6288 -0.77449700  16.000000   ; qtot 188.558449
 6289         c3    216    ccc     C6   6289 0.37576500  12.010000   ; qtot 188.934214
 6290         ho    216    ccc     H6   6290 0.53656000   1.008000   ; qtot 189.470774
 6291         ho    216    ccc     H7   6291 0.49492100   1.008000   ; qtot 189.965695
 6292         ho    216    ccc     H8   6292 0.51297200   1.008000   ; qtot 190.478667
 6293         h1    216    ccc     H9   6293 0.05653400   1.008000   ; qtot 190.535201
 6294         h1    216    ccc    H10   6294 0.05653400   1.008000   ; qtot 190.591735
 6295         oh    216    ccc     O5   6295 -0.84113600  16.000000   ; qtot 189.750599
 6296         ho    216    ccc    H11   6296 0.51201600   1.008000   ; qtot 190.262615
 6297         os    216    ccc     O6   6297 -0.26013600  16.000000   ; qtot 190.002479
; residue  217 ccc rtp ccc q 0.0
 6298         c3    217    ccc     C1   6298 -0.33178800  12.010000   ; qtot 189.670691
 6299         c3    217    ccc     C2   6299 0.30606500  12.010000   ; qtot 189.976756
 6300         h1    217    ccc     H1   6300 0.11662300   1.008000   ; qtot 190.093379
 6301         h1    217    ccc     H2   6301 0.11526800   1.008000   ; qtot 190.208647
 6302         c3    217    ccc     C3   6302 0.15592700  12.010000   ; qtot 190.364574
 6303         c3    217    ccc     C4   6303 0.28383300  12.010000   ; qtot 190.648407
 6304         c3    217    ccc     C5   6304 0.32403300  12.010000   ; qtot 190.972440
 6305         h1    217    ccc     H3   6305 0.13386900   1.008000   ; qtot 191.106309
 6306         h1    217    ccc     H4   6306 0.10146700   1.008000   ; qtot 191.207776
 6307         h2    217    ccc     H5   6307 0.10960400   1.008000   ; qtot 191.317380
 6308         os    217    ccc     O1   6308 -0.28650000  16.000000   ; qtot 191.030880
 6309         oh    217    ccc     O2   6309 -0.86012500  16.000000   ; qtot 190.170755
 6310         oh    217    ccc     O3   6310 -0.83772800  16.000000   ; qtot 189.333027
 6311         oh    217    ccc     O4   6311 -0.77449700  16.000000   ; qtot 188.558530
 6312         c3    217    ccc     C6   6312 0.37576500  12.010000   ; qtot 188.934295
 6313         ho    217    ccc     H6   6313 0.53656000   1.008000   ; qtot 189.470855
 6314         ho    217    ccc     H7   6314 0.49492100   1.008000   ; qtot 189.965776
 6315         ho    217    ccc     H8   6315 0.51297200   1.008000   ; qtot 190.478748
 6316         h1    217    ccc     H9   6316 0.05653400   1.008000   ; qtot 190.535282
 6317         h1    217    ccc    H10   6317 0.05653400   1.008000   ; qtot 190.591816
 6318         oh    217    ccc     O5   6318 -0.84113600  16.000000   ; qtot 189.750680
 6319         ho    217    ccc    H11   6319 0.51201600   1.008000   ; qtot 190.262696
 6320         os    217    ccc     O6   6320 -0.26013600  16.000000   ; qtot 190.002560
; residue  218 ccc rtp ccc q 0.0
 6321         c3    218    ccc     C1   6321 -0.33178800  12.010000   ; qtot 189.670772
 6322         c3    218    ccc     C2   6322 0.30606500  12.010000   ; qtot 189.976837
 6323         h1    218    ccc     H1   6323 0.11662300   1.008000   ; qtot 190.093460
 6324         h1    218    ccc     H2   6324 0.11526800   1.008000   ; qtot 190.208728
 6325         c3    218    ccc     C3   6325 0.15592700  12.010000   ; qtot 190.364655
 6326         c3    218    ccc     C4   6326 0.28383300  12.010000   ; qtot 190.648488
 6327         c3    218    ccc     C5   6327 0.32403300  12.010000   ; qtot 190.972521
 6328         h1    218    ccc     H3   6328 0.13386900   1.008000   ; qtot 191.106390
 6329         h1    218    ccc     H4   6329 0.10146700   1.008000   ; qtot 191.207857
 6330         h2    218    ccc     H5   6330 0.10960400   1.008000   ; qtot 191.317461
 6331         os    218    ccc     O1   6331 -0.28650000  16.000000   ; qtot 191.030961
 6332         oh    218    ccc     O2   6332 -0.86012500  16.000000   ; qtot 190.170836
 6333         oh    218    ccc     O3   6333 -0.83772800  16.000000   ; qtot 189.333108
 6334         oh    218    ccc     O4   6334 -0.77449700  16.000000   ; qtot 188.558611
 6335         c3    218    ccc     C6   6335 0.37576500  12.010000   ; qtot 188.934376
 6336         ho    218    ccc     H6   6336 0.53656000   1.008000   ; qtot 189.470936
 6337         ho    218    ccc     H7   6337 0.49492100   1.008000   ; qtot 189.965857
 6338         ho    218    ccc     H8   6338 0.51297200   1.008000   ; qtot 190.478829
 6339         h1    218    ccc     H9   6339 0.05653400   1.008000   ; qtot 190.535363
 6340         h1    218    ccc    H10   6340 0.05653400   1.008000   ; qtot 190.591897
 6341         oh    218    ccc     O5   6341 -0.84113600  16.000000   ; qtot 189.750761
 6342         ho    218    ccc    H11   6342 0.51201600   1.008000   ; qtot 190.262777
 6343         os    218    ccc     O6   6343 -0.26013600  16.000000   ; qtot 190.002641
; residue  219 ccc rtp ccc q 0.0
 6344         c3    219    ccc     C1   6344 -0.33178800  12.010000   ; qtot 189.670853
 6345         c3    219    ccc     C2   6345 0.30606500  12.010000   ; qtot 189.976918
 6346         h1    219    ccc     H1   6346 0.11662300   1.008000   ; qtot 190.093541
 6347         h1    219    ccc     H2   6347 0.11526800   1.008000   ; qtot 190.208809
 6348         c3    219    ccc     C3   6348 0.15592700  12.010000   ; qtot 190.364736
 6349         c3    219    ccc     C4   6349 0.28383300  12.010000   ; qtot 190.648569
 6350         c3    219    ccc     C5   6350 0.32403300  12.010000   ; qtot 190.972602
 6351         h1    219    ccc     H3   6351 0.13386900   1.008000   ; qtot 191.106471
 6352         h1    219    ccc     H4   6352 0.10146700   1.008000   ; qtot 191.207938
 6353         h2    219    ccc     H5   6353 0.10960400   1.008000   ; qtot 191.317542
 6354         os    219    ccc     O1   6354 -0.28650000  16.000000   ; qtot 191.031042
 6355         oh    219    ccc     O2   6355 -0.86012500  16.000000   ; qtot 190.170917
 6356         oh    219    ccc     O3   6356 -0.83772800  16.000000   ; qtot 189.333189
 6357         oh    219    ccc     O4   6357 -0.77449700  16.000000   ; qtot 188.558692
 6358         c3    219    ccc     C6   6358 0.37576500  12.010000   ; qtot 188.934457
 6359         ho    219    ccc     H6   6359 0.53656000   1.008000   ; qtot 189.471017
 6360         ho    219    ccc     H7   6360 0.49492100   1.008000   ; qtot 189.965938
 6361         ho    219    ccc     H8   6361 0.51297200   1.008000   ; qtot 190.478910
 6362         h1    219    ccc     H9   6362 0.05653400   1.008000   ; qtot 190.535444
 6363         h1    219    ccc    H10   6363 0.05653400   1.008000   ; qtot 190.591978
 6364         oh    219    ccc     O5   6364 -0.84113600  16.000000   ; qtot 189.750842
 6365         ho    219    ccc    H11   6365 0.51201600   1.008000   ; qtot 190.262858
 6366         os    219    ccc     O6   6366 -0.26013600  16.000000   ; qtot 190.002722
; residue  220 ccc rtp ccc q 0.0
 6367         c3    220    ccc     C1   6367 -0.33178800  12.010000   ; qtot 189.670934
 6368         c3    220    ccc     C2   6368 0.30606500  12.010000   ; qtot 189.976999
 6369         h1    220    ccc     H1   6369 0.11662300   1.008000   ; qtot 190.093622
 6370         h1    220    ccc     H2   6370 0.11526800   1.008000   ; qtot 190.208890
 6371         c3    220    ccc     C3   6371 0.15592700  12.010000   ; qtot 190.364817
 6372         c3    220    ccc     C4   6372 0.28383300  12.010000   ; qtot 190.648650
 6373         c3    220    ccc     C5   6373 0.32403300  12.010000   ; qtot 190.972683
 6374         h1    220    ccc     H3   6374 0.13386900   1.008000   ; qtot 191.106552
 6375         h1    220    ccc     H4   6375 0.10146700   1.008000   ; qtot 191.208019
 6376         h2    220    ccc     H5   6376 0.10960400   1.008000   ; qtot 191.317623
 6377         os    220    ccc     O1   6377 -0.28650000  16.000000   ; qtot 191.031123
 6378         oh    220    ccc     O2   6378 -0.86012500  16.000000   ; qtot 190.170998
 6379         oh    220    ccc     O3   6379 -0.83772800  16.000000   ; qtot 189.333270
 6380         oh    220    ccc     O4   6380 -0.77449700  16.000000   ; qtot 188.558773
 6381         c3    220    ccc     C6   6381 0.37576500  12.010000   ; qtot 188.934538
 6382         ho    220    ccc     H6   6382 0.53656000   1.008000   ; qtot 189.471098
 6383         ho    220    ccc     H7   6383 0.49492100   1.008000   ; qtot 189.966019
 6384         ho    220    ccc     H8   6384 0.51297200   1.008000   ; qtot 190.478991
 6385         h1    220    ccc     H9   6385 0.05653400   1.008000   ; qtot 190.535525
 6386         h1    220    ccc    H10   6386 0.05653400   1.008000   ; qtot 190.592059
 6387         oh    220    ccc     O5   6387 -0.84113600  16.000000   ; qtot 189.750923
 6388         ho    220    ccc    H11   6388 0.51201600   1.008000   ; qtot 190.262939
 6389         os    220    ccc     O6   6389 -0.26013600  16.000000   ; qtot 190.002803
; residue  221 ccc rtp ccc q 0.0
 6390         c3    221    ccc     C1   6390 -0.33178800  12.010000   ; qtot 189.671015
 6391         c3    221    ccc     C2   6391 0.30606500  12.010000   ; qtot 189.977080
 6392         h1    221    ccc     H1   6392 0.11662300   1.008000   ; qtot 190.093703
 6393         h1    221    ccc     H2   6393 0.11526800   1.008000   ; qtot 190.208971
 6394         c3    221    ccc     C3   6394 0.15592700  12.010000   ; qtot 190.364898
 6395         c3    221    ccc     C4   6395 0.28383300  12.010000   ; qtot 190.648731
 6396         c3    221    ccc     C5   6396 0.32403300  12.010000   ; qtot 190.972764
 6397         h1    221    ccc     H3   6397 0.13386900   1.008000   ; qtot 191.106633
 6398         h1    221    ccc     H4   6398 0.10146700   1.008000   ; qtot 191.208100
 6399         h2    221    ccc     H5   6399 0.10960400   1.008000   ; qtot 191.317704
 6400         os    221    ccc     O1   6400 -0.28650000  16.000000   ; qtot 191.031204
 6401         oh    221    ccc     O2   6401 -0.86012500  16.000000   ; qtot 190.171079
 6402         oh    221    ccc     O3   6402 -0.83772800  16.000000   ; qtot 189.333351
 6403         oh    221    ccc     O4   6403 -0.77449700  16.000000   ; qtot 188.558854
 6404         c3    221    ccc     C6   6404 0.37576500  12.010000   ; qtot 188.934619
 6405         ho    221    ccc     H6   6405 0.53656000   1.008000   ; qtot 189.471179
 6406         ho    221    ccc     H7   6406 0.49492100   1.008000   ; qtot 189.966100
 6407         ho    221    ccc     H8   6407 0.51297200   1.008000   ; qtot 190.479072
 6408         h1    221    ccc     H9   6408 0.05653400   1.008000   ; qtot 190.535606
 6409         h1    221    ccc    H10   6409 0.05653400   1.008000   ; qtot 190.592140
 6410         oh    221    ccc     O5   6410 -0.84113600  16.000000   ; qtot 189.751004
 6411         ho    221    ccc    H11   6411 0.51201600   1.008000   ; qtot 190.263020
 6412         os    221    ccc     O6   6412 -0.26013600  16.000000   ; qtot 190.002884
; residue  222 ccc rtp ccc q 0.0
 6413         c3    222    ccc     C1   6413 -0.33178800  12.010000   ; qtot 189.671096
 6414         c3    222    ccc     C2   6414 0.30606500  12.010000   ; qtot 189.977161
 6415         h1    222    ccc     H1   6415 0.11662300   1.008000   ; qtot 190.093784
 6416         h1    222    ccc     H2   6416 0.11526800   1.008000   ; qtot 190.209052
 6417         c3    222    ccc     C3   6417 0.15592700  12.010000   ; qtot 190.364979
 6418         c3    222    ccc     C4   6418 0.28383300  12.010000   ; qtot 190.648812
 6419         c3    222    ccc     C5   6419 0.32403300  12.010000   ; qtot 190.972845
 6420         h1    222    ccc     H3   6420 0.13386900   1.008000   ; qtot 191.106714
 6421         h1    222    ccc     H4   6421 0.10146700   1.008000   ; qtot 191.208181
 6422         h2    222    ccc     H5   6422 0.10960400   1.008000   ; qtot 191.317785
 6423         os    222    ccc     O1   6423 -0.28650000  16.000000   ; qtot 191.031285
 6424         oh    222    ccc     O2   6424 -0.86012500  16.000000   ; qtot 190.171160
 6425         oh    222    ccc     O3   6425 -0.83772800  16.000000   ; qtot 189.333432
 6426         oh    222    ccc     O4   6426 -0.77449700  16.000000   ; qtot 188.558935
 6427         c3    222    ccc     C6   6427 0.37576500  12.010000   ; qtot 188.934700
 6428         ho    222    ccc     H6   6428 0.53656000   1.008000   ; qtot 189.471260
 6429         ho    222    ccc     H7   6429 0.49492100   1.008000   ; qtot 189.966181
 6430         ho    222    ccc     H8   6430 0.51297200   1.008000   ; qtot 190.479153
 6431         h1    222    ccc     H9   6431 0.05653400   1.008000   ; qtot 190.535687
 6432         h1    222    ccc    H10   6432 0.05653400   1.008000   ; qtot 190.592221
 6433         oh    222    ccc     O5   6433 -0.84113600  16.000000   ; qtot 189.751085
 6434         ho    222    ccc    H11   6434 0.51201600   1.008000   ; qtot 190.263101
 6435         os    222    ccc     O6   6435 -0.26013600  16.000000   ; qtot 190.002965
; residue  223 ccc rtp ccc q 0.0
 6436         c3    223    ccc     C1   6436 -0.33178800  12.010000   ; qtot 189.671177
 6437         c3    223    ccc     C2   6437 0.30606500  12.010000   ; qtot 189.977242
 6438         h1    223    ccc     H1   6438 0.11662300   1.008000   ; qtot 190.093865
 6439         h1    223    ccc     H2   6439 0.11526800   1.008000   ; qtot 190.209133
 6440         c3    223    ccc     C3   6440 0.15592700  12.010000   ; qtot 190.365060
 6441         c3    223    ccc     C4   6441 0.28383300  12.010000   ; qtot 190.648893
 6442         c3    223    ccc     C5   6442 0.32403300  12.010000   ; qtot 190.972926
 6443         h1    223    ccc     H3   6443 0.13386900   1.008000   ; qtot 191.106795
 6444         h1    223    ccc     H4   6444 0.10146700   1.008000   ; qtot 191.208262
 6445         h2    223    ccc     H5   6445 0.10960400   1.008000   ; qtot 191.317866
 6446         os    223    ccc     O1   6446 -0.28650000  16.000000   ; qtot 191.031366
 6447         oh    223    ccc     O2   6447 -0.86012500  16.000000   ; qtot 190.171241
 6448         oh    223    ccc     O3   6448 -0.83772800  16.000000   ; qtot 189.333513
 6449         oh    223    ccc     O4   6449 -0.77449700  16.000000   ; qtot 188.559016
 6450         c3    223    ccc     C6   6450 0.37576500  12.010000   ; qtot 188.934781
 6451         ho    223    ccc     H6   6451 0.53656000   1.008000   ; qtot 189.471341
 6452         ho    223    ccc     H7   6452 0.49492100   1.008000   ; qtot 189.966262
 6453         ho    223    ccc     H8   6453 0.51297200   1.008000   ; qtot 190.479234
 6454         h1    223    ccc     H9   6454 0.05653400   1.008000   ; qtot 190.535768
 6455         h1    223    ccc    H10   6455 0.05653400   1.008000   ; qtot 190.592302
 6456         oh    223    ccc     O5   6456 -0.84113600  16.000000   ; qtot 189.751166
 6457         ho    223    ccc    H11   6457 0.51201600   1.008000   ; qtot 190.263182
 6458         os    223    ccc     O6   6458 -0.26013600  16.000000   ; qtot 190.003046
; residue  224 ccc rtp ccc q 0.0
 6459         c3    224    ccc     C1   6459 -0.33178800  12.010000   ; qtot 189.671258
 6460         c3    224    ccc     C2   6460 0.30606500  12.010000   ; qtot 189.977323
 6461         h1    224    ccc     H1   6461 0.11662300   1.008000   ; qtot 190.093946
 6462         h1    224    ccc     H2   6462 0.11526800   1.008000   ; qtot 190.209214
 6463         c3    224    ccc     C3   6463 0.15592700  12.010000   ; qtot 190.365141
 6464         c3    224    ccc     C4   6464 0.28383300  12.010000   ; qtot 190.648974
 6465         c3    224    ccc     C5   6465 0.32403300  12.010000   ; qtot 190.973007
 6466         h1    224    ccc     H3   6466 0.13386900   1.008000   ; qtot 191.106876
 6467         h1    224    ccc     H4   6467 0.10146700   1.008000   ; qtot 191.208343
 6468         h2    224    ccc     H5   6468 0.10960400   1.008000   ; qtot 191.317947
 6469         os    224    ccc     O1   6469 -0.28650000  16.000000   ; qtot 191.031447
 6470         oh    224    ccc     O2   6470 -0.86012500  16.000000   ; qtot 190.171322
 6471         oh    224    ccc     O3   6471 -0.83772800  16.000000   ; qtot 189.333594
 6472         oh    224    ccc     O4   6472 -0.77449700  16.000000   ; qtot 188.559097
 6473         c3    224    ccc     C6   6473 0.37576500  12.010000   ; qtot 188.934862
 6474         ho    224    ccc     H6   6474 0.53656000   1.008000   ; qtot 189.471422
 6475         ho    224    ccc     H7   6475 0.49492100   1.008000   ; qtot 189.966343
 6476         ho    224    ccc     H8   6476 0.51297200   1.008000   ; qtot 190.479315
 6477         h1    224    ccc     H9   6477 0.05653400   1.008000   ; qtot 190.535849
 6478         h1    224    ccc    H10   6478 0.05653400   1.008000   ; qtot 190.592383
 6479         oh    224    ccc     O5   6479 -0.84113600  16.000000   ; qtot 189.751247
 6480         ho    224    ccc    H11   6480 0.51201600   1.008000   ; qtot 190.263263
 6481         os    224    ccc     O6   6481 -0.26013600  16.000000   ; qtot 190.003127
; residue  225 ccc rtp ccc q 0.0
 6482         c3    225    ccc     C1   6482 -0.33178800  12.010000   ; qtot 189.671339
 6483         c3    225    ccc     C2   6483 0.30606500  12.010000   ; qtot 189.977404
 6484         h1    225    ccc     H1   6484 0.11662300   1.008000   ; qtot 190.094027
 6485         h1    225    ccc     H2   6485 0.11526800   1.008000   ; qtot 190.209295
 6486         c3    225    ccc     C3   6486 0.15592700  12.010000   ; qtot 190.365222
 6487         c3    225    ccc     C4   6487 0.28383300  12.010000   ; qtot 190.649055
 6488         c3    225    ccc     C5   6488 0.32403300  12.010000   ; qtot 190.973088
 6489         h1    225    ccc     H3   6489 0.13386900   1.008000   ; qtot 191.106957
 6490         h1    225    ccc     H4   6490 0.10146700   1.008000   ; qtot 191.208424
 6491         h2    225    ccc     H5   6491 0.10960400   1.008000   ; qtot 191.318028
 6492         os    225    ccc     O1   6492 -0.28650000  16.000000   ; qtot 191.031528
 6493         oh    225    ccc     O2   6493 -0.86012500  16.000000   ; qtot 190.171403
 6494         oh    225    ccc     O3   6494 -0.83772800  16.000000   ; qtot 189.333675
 6495         oh    225    ccc     O4   6495 -0.77449700  16.000000   ; qtot 188.559178
 6496         c3    225    ccc     C6   6496 0.37576500  12.010000   ; qtot 188.934943
 6497         ho    225    ccc     H6   6497 0.53656000   1.008000   ; qtot 189.471503
 6498         ho    225    ccc     H7   6498 0.49492100   1.008000   ; qtot 189.966424
 6499         ho    225    ccc     H8   6499 0.51297200   1.008000   ; qtot 190.479396
 6500         h1    225    ccc     H9   6500 0.05653400   1.008000   ; qtot 190.535930
 6501         h1    225    ccc    H10   6501 0.05653400   1.008000   ; qtot 190.592464
 6502         oh    225    ccc     O5   6502 -0.84113600  16.000000   ; qtot 189.751328
 6503         ho    225    ccc    H11   6503 0.51201600   1.008000   ; qtot 190.263344
 6504         os    225    ccc     O6   6504 -0.26013600  16.000000   ; qtot 190.003208
; residue  226 ccc rtp ccc q 0.0
 6505         c3    226    ccc     C1   6505 -0.33178800  12.010000   ; qtot 189.671420
 6506         c3    226    ccc     C2   6506 0.30606500  12.010000   ; qtot 189.977485
 6507         h1    226    ccc     H1   6507 0.11662300   1.008000   ; qtot 190.094108
 6508         h1    226    ccc     H2   6508 0.11526800   1.008000   ; qtot 190.209376
 6509         c3    226    ccc     C3   6509 0.15592700  12.010000   ; qtot 190.365303
 6510         c3    226    ccc     C4   6510 0.28383300  12.010000   ; qtot 190.649136
 6511         c3    226    ccc     C5   6511 0.32403300  12.010000   ; qtot 190.973169
 6512         h1    226    ccc     H3   6512 0.13386900   1.008000   ; qtot 191.107038
 6513         h1    226    ccc     H4   6513 0.10146700   1.008000   ; qtot 191.208505
 6514         h2    226    ccc     H5   6514 0.10960400   1.008000   ; qtot 191.318109
 6515         os    226    ccc     O1   6515 -0.28650000  16.000000   ; qtot 191.031609
 6516         oh    226    ccc     O2   6516 -0.86012500  16.000000   ; qtot 190.171484
 6517         oh    226    ccc     O3   6517 -0.83772800  16.000000   ; qtot 189.333756
 6518         oh    226    ccc     O4   6518 -0.77449700  16.000000   ; qtot 188.559259
 6519         c3    226    ccc     C6   6519 0.37576500  12.010000   ; qtot 188.935024
 6520         ho    226    ccc     H6   6520 0.53656000   1.008000   ; qtot 189.471584
 6521         ho    226    ccc     H7   6521 0.49492100   1.008000   ; qtot 189.966505
 6522         ho    226    ccc     H8   6522 0.51297200   1.008000   ; qtot 190.479477
 6523         h1    226    ccc     H9   6523 0.05653400   1.008000   ; qtot 190.536011
 6524         h1    226    ccc    H10   6524 0.05653400   1.008000   ; qtot 190.592545
 6525         oh    226    ccc     O5   6525 -0.84113600  16.000000   ; qtot 189.751409
 6526         ho    226    ccc    H11   6526 0.51201600   1.008000   ; qtot 190.263425
 6527         os    226    ccc     O6   6527 -0.26013600  16.000000   ; qtot 190.003289
; residue  227 ccc rtp ccc q 0.0
 6528         c3    227    ccc     C1   6528 -0.33178800  12.010000   ; qtot 189.671501
 6529         c3    227    ccc     C2   6529 0.30606500  12.010000   ; qtot 189.977566
 6530         h1    227    ccc     H1   6530 0.11662300   1.008000   ; qtot 190.094189
 6531         h1    227    ccc     H2   6531 0.11526800   1.008000   ; qtot 190.209457
 6532         c3    227    ccc     C3   6532 0.15592700  12.010000   ; qtot 190.365384
 6533         c3    227    ccc     C4   6533 0.28383300  12.010000   ; qtot 190.649217
 6534         c3    227    ccc     C5   6534 0.32403300  12.010000   ; qtot 190.973250
 6535         h1    227    ccc     H3   6535 0.13386900   1.008000   ; qtot 191.107119
 6536         h1    227    ccc     H4   6536 0.10146700   1.008000   ; qtot 191.208586
 6537         h2    227    ccc     H5   6537 0.10960400   1.008000   ; qtot 191.318190
 6538         os    227    ccc     O1   6538 -0.28650000  16.000000   ; qtot 191.031690
 6539         oh    227    ccc     O2   6539 -0.86012500  16.000000   ; qtot 190.171565
 6540         oh    227    ccc     O3   6540 -0.83772800  16.000000   ; qtot 189.333837
 6541         oh    227    ccc     O4   6541 -0.77449700  16.000000   ; qtot 188.559340
 6542         c3    227    ccc     C6   6542 0.37576500  12.010000   ; qtot 188.935105
 6543         ho    227    ccc     H6   6543 0.53656000   1.008000   ; qtot 189.471665
 6544         ho    227    ccc     H7   6544 0.49492100   1.008000   ; qtot 189.966586
 6545         ho    227    ccc     H8   6545 0.51297200   1.008000   ; qtot 190.479558
 6546         h1    227    ccc     H9   6546 0.05653400   1.008000   ; qtot 190.536092
 6547         h1    227    ccc    H10   6547 0.05653400   1.008000   ; qtot 190.592626
 6548         oh    227    ccc     O5   6548 -0.84113600  16.000000   ; qtot 189.751490
 6549         ho    227    ccc    H11   6549 0.51201600   1.008000   ; qtot 190.263506
 6550         os    227    ccc     O6   6550 -0.26013600  16.000000   ; qtot 190.003370
; residue  228 ccc rtp ccc q 0.0
 6551         c3    228    ccc     C1   6551 -0.33178800  12.010000   ; qtot 189.671582
 6552         c3    228    ccc     C2   6552 0.30606500  12.010000   ; qtot 189.977647
 6553         h1    228    ccc     H1   6553 0.11662300   1.008000   ; qtot 190.094270
 6554         h1    228    ccc     H2   6554 0.11526800   1.008000   ; qtot 190.209538
 6555         c3    228    ccc     C3   6555 0.15592700  12.010000   ; qtot 190.365465
 6556         c3    228    ccc     C4   6556 0.28383300  12.010000   ; qtot 190.649298
 6557         c3    228    ccc     C5   6557 0.32403300  12.010000   ; qtot 190.973331
 6558         h1    228    ccc     H3   6558 0.13386900   1.008000   ; qtot 191.107200
 6559         h1    228    ccc     H4   6559 0.10146700   1.008000   ; qtot 191.208667
 6560         h2    228    ccc     H5   6560 0.10960400   1.008000   ; qtot 191.318271
 6561         os    228    ccc     O1   6561 -0.28650000  16.000000   ; qtot 191.031771
 6562         oh    228    ccc     O2   6562 -0.86012500  16.000000   ; qtot 190.171646
 6563         oh    228    ccc     O3   6563 -0.83772800  16.000000   ; qtot 189.333918
 6564         oh    228    ccc     O4   6564 -0.77449700  16.000000   ; qtot 188.559421
 6565         c3    228    ccc     C6   6565 0.37576500  12.010000   ; qtot 188.935186
 6566         ho    228    ccc     H6   6566 0.53656000   1.008000   ; qtot 189.471746
 6567         ho    228    ccc     H7   6567 0.49492100   1.008000   ; qtot 189.966667
 6568         ho    228    ccc     H8   6568 0.51297200   1.008000   ; qtot 190.479639
 6569         h1    228    ccc     H9   6569 0.05653400   1.008000   ; qtot 190.536173
 6570         h1    228    ccc    H10   6570 0.05653400   1.008000   ; qtot 190.592707
 6571         oh    228    ccc     O5   6571 -0.84113600  16.000000   ; qtot 189.751571
 6572         ho    228    ccc    H11   6572 0.51201600   1.008000   ; qtot 190.263587
 6573         os    228    ccc     O6   6573 -0.26013600  16.000000   ; qtot 190.003451
; residue  229 ccc rtp ccc q 0.0
 6574         c3    229    ccc     C1   6574 -0.33178800  12.010000   ; qtot 189.671663
 6575         c3    229    ccc     C2   6575 0.30606500  12.010000   ; qtot 189.977728
 6576         h1    229    ccc     H1   6576 0.11662300   1.008000   ; qtot 190.094351
 6577         h1    229    ccc     H2   6577 0.11526800   1.008000   ; qtot 190.209619
 6578         c3    229    ccc     C3   6578 0.15592700  12.010000   ; qtot 190.365546
 6579         c3    229    ccc     C4   6579 0.28383300  12.010000   ; qtot 190.649379
 6580         c3    229    ccc     C5   6580 0.32403300  12.010000   ; qtot 190.973412
 6581         h1    229    ccc     H3   6581 0.13386900   1.008000   ; qtot 191.107281
 6582         h1    229    ccc     H4   6582 0.10146700   1.008000   ; qtot 191.208748
 6583         h2    229    ccc     H5   6583 0.10960400   1.008000   ; qtot 191.318352
 6584         os    229    ccc     O1   6584 -0.28650000  16.000000   ; qtot 191.031852
 6585         oh    229    ccc     O2   6585 -0.86012500  16.000000   ; qtot 190.171727
 6586         oh    229    ccc     O3   6586 -0.83772800  16.000000   ; qtot 189.333999
 6587         oh    229    ccc     O4   6587 -0.77449700  16.000000   ; qtot 188.559502
 6588         c3    229    ccc     C6   6588 0.37576500  12.010000   ; qtot 188.935267
 6589         ho    229    ccc     H6   6589 0.53656000   1.008000   ; qtot 189.471827
 6590         ho    229    ccc     H7   6590 0.49492100   1.008000   ; qtot 189.966748
 6591         ho    229    ccc     H8   6591 0.51297200   1.008000   ; qtot 190.479720
 6592         h1    229    ccc     H9   6592 0.05653400   1.008000   ; qtot 190.536254
 6593         h1    229    ccc    H10   6593 0.05653400   1.008000   ; qtot 190.592788
 6594         oh    229    ccc     O5   6594 -0.84113600  16.000000   ; qtot 189.751652
 6595         ho    229    ccc    H11   6595 0.51201600   1.008000   ; qtot 190.263668
 6596         os    229    ccc     O6   6596 -0.26013600  16.000000   ; qtot 190.003532
; residue  230 ccc rtp ccc q 0.0
 6597         c3    230    ccc     C1   6597 -0.33178800  12.010000   ; qtot 189.671744
 6598         c3    230    ccc     C2   6598 0.30606500  12.010000   ; qtot 189.977809
 6599         h1    230    ccc     H1   6599 0.11662300   1.008000   ; qtot 190.094432
 6600         h1    230    ccc     H2   6600 0.11526800   1.008000   ; qtot 190.209700
 6601         c3    230    ccc     C3   6601 0.15592700  12.010000   ; qtot 190.365627
 6602         c3    230    ccc     C4   6602 0.28383300  12.010000   ; qtot 190.649460
 6603         c3    230    ccc     C5   6603 0.32403300  12.010000   ; qtot 190.973493
 6604         h1    230    ccc     H3   6604 0.13386900   1.008000   ; qtot 191.107362
 6605         h1    230    ccc     H4   6605 0.10146700   1.008000   ; qtot 191.208829
 6606         h2    230    ccc     H5   6606 0.10960400   1.008000   ; qtot 191.318433
 6607         os    230    ccc     O1   6607 -0.28650000  16.000000   ; qtot 191.031933
 6608         oh    230    ccc     O2   6608 -0.86012500  16.000000   ; qtot 190.171808
 6609         oh    230    ccc     O3   6609 -0.83772800  16.000000   ; qtot 189.334080
 6610         oh    230    ccc     O4   6610 -0.77449700  16.000000   ; qtot 188.559583
 6611         c3    230    ccc     C6   6611 0.37576500  12.010000   ; qtot 188.935348
 6612         ho    230    ccc     H6   6612 0.53656000   1.008000   ; qtot 189.471908
 6613         ho    230    ccc     H7   6613 0.49492100   1.008000   ; qtot 189.966829
 6614         ho    230    ccc     H8   6614 0.51297200   1.008000   ; qtot 190.479801
 6615         h1    230    ccc     H9   6615 0.05653400   1.008000   ; qtot 190.536335
 6616         h1    230    ccc    H10   6616 0.05653400   1.008000   ; qtot 190.592869
 6617         oh    230    ccc     O5   6617 -0.84113600  16.000000   ; qtot 189.751733
 6618         ho    230    ccc    H11   6618 0.51201600   1.008000   ; qtot 190.263749
 6619         os    230    ccc     O6   6619 -0.26013600  16.000000   ; qtot 190.003613
; residue  231 ccc rtp ccc q 0.0
 6620         c3    231    ccc     C1   6620 -0.33178800  12.010000   ; qtot 189.671825
 6621         c3    231    ccc     C2   6621 0.30606500  12.010000   ; qtot 189.977890
 6622         h1    231    ccc     H1   6622 0.11662300   1.008000   ; qtot 190.094513
 6623         h1    231    ccc     H2   6623 0.11526800   1.008000   ; qtot 190.209781
 6624         c3    231    ccc     C3   6624 0.15592700  12.010000   ; qtot 190.365708
 6625         c3    231    ccc     C4   6625 0.28383300  12.010000   ; qtot 190.649541
 6626         c3    231    ccc     C5   6626 0.32403300  12.010000   ; qtot 190.973574
 6627         h1    231    ccc     H3   6627 0.13386900   1.008000   ; qtot 191.107443
 6628         h1    231    ccc     H4   6628 0.10146700   1.008000   ; qtot 191.208910
 6629         h2    231    ccc     H5   6629 0.10960400   1.008000   ; qtot 191.318514
 6630         os    231    ccc     O1   6630 -0.28650000  16.000000   ; qtot 191.032014
 6631         oh    231    ccc     O2   6631 -0.86012500  16.000000   ; qtot 190.171889
 6632         oh    231    ccc     O3   6632 -0.83772800  16.000000   ; qtot 189.334161
 6633         oh    231    ccc     O4   6633 -0.77449700  16.000000   ; qtot 188.559664
 6634         c3    231    ccc     C6   6634 0.37576500  12.010000   ; qtot 188.935429
 6635         ho    231    ccc     H6   6635 0.53656000   1.008000   ; qtot 189.471989
 6636         ho    231    ccc     H7   6636 0.49492100   1.008000   ; qtot 189.966910
 6637         ho    231    ccc     H8   6637 0.51297200   1.008000   ; qtot 190.479882
 6638         h1    231    ccc     H9   6638 0.05653400   1.008000   ; qtot 190.536416
 6639         h1    231    ccc    H10   6639 0.05653400   1.008000   ; qtot 190.592950
 6640         oh    231    ccc     O5   6640 -0.84113600  16.000000   ; qtot 189.751814
 6641         ho    231    ccc    H11   6641 0.51201600   1.008000   ; qtot 190.263830
 6642         os    231    ccc     O6   6642 -0.26013600  16.000000   ; qtot 190.003694
; residue  232 ccc rtp ccc q 0.0
 6643         c3    232    ccc     C1   6643 -0.33178800  12.010000   ; qtot 189.671906
 6644         c3    232    ccc     C2   6644 0.30606500  12.010000   ; qtot 189.977971
 6645         h1    232    ccc     H1   6645 0.11662300   1.008000   ; qtot 190.094594
 6646         h1    232    ccc     H2   6646 0.11526800   1.008000   ; qtot 190.209862
 6647         c3    232    ccc     C3   6647 0.15592700  12.010000   ; qtot 190.365789
 6648         c3    232    ccc     C4   6648 0.28383300  12.010000   ; qtot 190.649622
 6649         c3    232    ccc     C5   6649 0.32403300  12.010000   ; qtot 190.973655
 6650         h1    232    ccc     H3   6650 0.13386900   1.008000   ; qtot 191.107524
 6651         h1    232    ccc     H4   6651 0.10146700   1.008000   ; qtot 191.208991
 6652         h2    232    ccc     H5   6652 0.10960400   1.008000   ; qtot 191.318595
 6653         os    232    ccc     O1   6653 -0.28650000  16.000000   ; qtot 191.032095
 6654         oh    232    ccc     O2   6654 -0.86012500  16.000000   ; qtot 190.171970
 6655         oh    232    ccc     O3   6655 -0.83772800  16.000000   ; qtot 189.334242
 6656         oh    232    ccc     O4   6656 -0.77449700  16.000000   ; qtot 188.559745
 6657         c3    232    ccc     C6   6657 0.37576500  12.010000   ; qtot 188.935510
 6658         ho    232    ccc     H6   6658 0.53656000   1.008000   ; qtot 189.472070
 6659         ho    232    ccc     H7   6659 0.49492100   1.008000   ; qtot 189.966991
 6660         ho    232    ccc     H8   6660 0.51297200   1.008000   ; qtot 190.479963
 6661         h1    232    ccc     H9   6661 0.05653400   1.008000   ; qtot 190.536497
 6662         h1    232    ccc    H10   6662 0.05653400   1.008000   ; qtot 190.593031
 6663         oh    232    ccc     O5   6663 -0.84113600  16.000000   ; qtot 189.751895
 6664         ho    232    ccc    H11   6664 0.51201600   1.008000   ; qtot 190.263911
 6665         os    232    ccc     O6   6665 -0.26013600  16.000000   ; qtot 190.003775
; residue  233 ccc rtp ccc q 0.0
 6666         c3    233    ccc     C1   6666 -0.33178800  12.010000   ; qtot 189.671987
 6667         c3    233    ccc     C2   6667 0.30606500  12.010000   ; qtot 189.978052
 6668         h1    233    ccc     H1   6668 0.11662300   1.008000   ; qtot 190.094675
 6669         h1    233    ccc     H2   6669 0.11526800   1.008000   ; qtot 190.209943
 6670         c3    233    ccc     C3   6670 0.15592700  12.010000   ; qtot 190.365870
 6671         c3    233    ccc     C4   6671 0.28383300  12.010000   ; qtot 190.649703
 6672         c3    233    ccc     C5   6672 0.32403300  12.010000   ; qtot 190.973736
 6673         h1    233    ccc     H3   6673 0.13386900   1.008000   ; qtot 191.107605
 6674         h1    233    ccc     H4   6674 0.10146700   1.008000   ; qtot 191.209072
 6675         h2    233    ccc     H5   6675 0.10960400   1.008000   ; qtot 191.318676
 6676         os    233    ccc     O1   6676 -0.28650000  16.000000   ; qtot 191.032176
 6677         oh    233    ccc     O2   6677 -0.86012500  16.000000   ; qtot 190.172051
 6678         oh    233    ccc     O3   6678 -0.83772800  16.000000   ; qtot 189.334323
 6679         oh    233    ccc     O4   6679 -0.77449700  16.000000   ; qtot 188.559826
 6680         c3    233    ccc     C6   6680 0.37576500  12.010000   ; qtot 188.935591
 6681         ho    233    ccc     H6   6681 0.53656000   1.008000   ; qtot 189.472151
 6682         ho    233    ccc     H7   6682 0.49492100   1.008000   ; qtot 189.967072
 6683         ho    233    ccc     H8   6683 0.51297200   1.008000   ; qtot 190.480044
 6684         h1    233    ccc     H9   6684 0.05653400   1.008000   ; qtot 190.536578
 6685         h1    233    ccc    H10   6685 0.05653400   1.008000   ; qtot 190.593112
 6686         oh    233    ccc     O5   6686 -0.84113600  16.000000   ; qtot 189.751976
 6687         ho    233    ccc    H11   6687 0.51201600   1.008000   ; qtot 190.263992
 6688         os    233    ccc     O6   6688 -0.26013600  16.000000   ; qtot 190.003856
; residue  234 ccc rtp ccc q 0.0
 6689         c3    234    ccc     C1   6689 -0.33178800  12.010000   ; qtot 189.672068
 6690         c3    234    ccc     C2   6690 0.30606500  12.010000   ; qtot 189.978133
 6691         h1    234    ccc     H1   6691 0.11662300   1.008000   ; qtot 190.094756
 6692         h1    234    ccc     H2   6692 0.11526800   1.008000   ; qtot 190.210024
 6693         c3    234    ccc     C3   6693 0.15592700  12.010000   ; qtot 190.365951
 6694         c3    234    ccc     C4   6694 0.28383300  12.010000   ; qtot 190.649784
 6695         c3    234    ccc     C5   6695 0.32403300  12.010000   ; qtot 190.973817
 6696         h1    234    ccc     H3   6696 0.13386900   1.008000   ; qtot 191.107686
 6697         h1    234    ccc     H4   6697 0.10146700   1.008000   ; qtot 191.209153
 6698         h2    234    ccc     H5   6698 0.10960400   1.008000   ; qtot 191.318757
 6699         os    234    ccc     O1   6699 -0.28650000  16.000000   ; qtot 191.032257
 6700         oh    234    ccc     O2   6700 -0.86012500  16.000000   ; qtot 190.172132
 6701         oh    234    ccc     O3   6701 -0.83772800  16.000000   ; qtot 189.334404
 6702         oh    234    ccc     O4   6702 -0.77449700  16.000000   ; qtot 188.559907
 6703         c3    234    ccc     C6   6703 0.37576500  12.010000   ; qtot 188.935672
 6704         ho    234    ccc     H6   6704 0.53656000   1.008000   ; qtot 189.472232
 6705         ho    234    ccc     H7   6705 0.49492100   1.008000   ; qtot 189.967153
 6706         ho    234    ccc     H8   6706 0.51297200   1.008000   ; qtot 190.480125
 6707         h1    234    ccc     H9   6707 0.05653400   1.008000   ; qtot 190.536659
 6708         h1    234    ccc    H10   6708 0.05653400   1.008000   ; qtot 190.593193
 6709         oh    234    ccc     O5   6709 -0.84113600  16.000000   ; qtot 189.752057
 6710         ho    234    ccc    H11   6710 0.51201600   1.008000   ; qtot 190.264073
 6711         os    234    ccc     O6   6711 -0.26013600  16.000000   ; qtot 190.003937
; residue  235 ccc rtp ccc q 0.0
 6712         c3    235    ccc     C1   6712 -0.33178800  12.010000   ; qtot 189.672149
 6713         c3    235    ccc     C2   6713 0.30606500  12.010000   ; qtot 189.978214
 6714         h1    235    ccc     H1   6714 0.11662300   1.008000   ; qtot 190.094837
 6715         h1    235    ccc     H2   6715 0.11526800   1.008000   ; qtot 190.210105
 6716         c3    235    ccc     C3   6716 0.15592700  12.010000   ; qtot 190.366032
 6717         c3    235    ccc     C4   6717 0.28383300  12.010000   ; qtot 190.649865
 6718         c3    235    ccc     C5   6718 0.32403300  12.010000   ; qtot 190.973898
 6719         h1    235    ccc     H3   6719 0.13386900   1.008000   ; qtot 191.107767
 6720         h1    235    ccc     H4   6720 0.10146700   1.008000   ; qtot 191.209234
 6721         h2    235    ccc     H5   6721 0.10960400   1.008000   ; qtot 191.318838
 6722         os    235    ccc     O1   6722 -0.28650000  16.000000   ; qtot 191.032338
 6723         oh    235    ccc     O2   6723 -0.86012500  16.000000   ; qtot 190.172213
 6724         oh    235    ccc     O3   6724 -0.83772800  16.000000   ; qtot 189.334485
 6725         oh    235    ccc     O4   6725 -0.77449700  16.000000   ; qtot 188.559988
 6726         c3    235    ccc     C6   6726 0.37576500  12.010000   ; qtot 188.935753
 6727         ho    235    ccc     H6   6727 0.53656000   1.008000   ; qtot 189.472313
 6728         ho    235    ccc     H7   6728 0.49492100   1.008000   ; qtot 189.967234
 6729         ho    235    ccc     H8   6729 0.51297200   1.008000   ; qtot 190.480206
 6730         h1    235    ccc     H9   6730 0.05653400   1.008000   ; qtot 190.536740
 6731         h1    235    ccc    H10   6731 0.05653400   1.008000   ; qtot 190.593274
 6732         oh    235    ccc     O5   6732 -0.84113600  16.000000   ; qtot 189.752138
 6733         ho    235    ccc    H11   6733 0.51201600   1.008000   ; qtot 190.264154
 6734         os    235    ccc     O6   6734 -0.26013600  16.000000   ; qtot 190.004018
; residue  236 ccc rtp ccc q 0.0
 6735         c3    236    ccc     C1   6735 -0.33178800  12.010000   ; qtot 189.672230
 6736         c3    236    ccc     C2   6736 0.30606500  12.010000   ; qtot 189.978295
 6737         h1    236    ccc     H1   6737 0.11662300   1.008000   ; qtot 190.094918
 6738         h1    236    ccc     H2   6738 0.11526800   1.008000   ; qtot 190.210186
 6739         c3    236    ccc     C3   6739 0.15592700  12.010000   ; qtot 190.366113
 6740         c3    236    ccc     C4   6740 0.28383300  12.010000   ; qtot 190.649946
 6741         c3    236    ccc     C5   6741 0.32403300  12.010000   ; qtot 190.973979
 6742         h1    236    ccc     H3   6742 0.13386900   1.008000   ; qtot 191.107848
 6743         h1    236    ccc     H4   6743 0.10146700   1.008000   ; qtot 191.209315
 6744         h2    236    ccc     H5   6744 0.10960400   1.008000   ; qtot 191.318919
 6745         os    236    ccc     O1   6745 -0.28650000  16.000000   ; qtot 191.032419
 6746         oh    236    ccc     O2   6746 -0.86012500  16.000000   ; qtot 190.172294
 6747         oh    236    ccc     O3   6747 -0.83772800  16.000000   ; qtot 189.334566
 6748         oh    236    ccc     O4   6748 -0.77449700  16.000000   ; qtot 188.560069
 6749         c3    236    ccc     C6   6749 0.37576500  12.010000   ; qtot 188.935834
 6750         ho    236    ccc     H6   6750 0.53656000   1.008000   ; qtot 189.472394
 6751         ho    236    ccc     H7   6751 0.49492100   1.008000   ; qtot 189.967315
 6752         ho    236    ccc     H8   6752 0.51297200   1.008000   ; qtot 190.480287
 6753         h1    236    ccc     H9   6753 0.05653400   1.008000   ; qtot 190.536821
 6754         h1    236    ccc    H10   6754 0.05653400   1.008000   ; qtot 190.593355
 6755         oh    236    ccc     O5   6755 -0.84113600  16.000000   ; qtot 189.752219
 6756         ho    236    ccc    H11   6756 0.51201600   1.008000   ; qtot 190.264235
 6757         os    236    ccc     O6   6757 -0.26013600  16.000000   ; qtot 190.004099
; residue  237 ccc rtp ccc q 0.0
 6758         c3    237    ccc     C1   6758 -0.33178800  12.010000   ; qtot 189.672311
 6759         c3    237    ccc     C2   6759 0.30606500  12.010000   ; qtot 189.978376
 6760         h1    237    ccc     H1   6760 0.11662300   1.008000   ; qtot 190.094999
 6761         h1    237    ccc     H2   6761 0.11526800   1.008000   ; qtot 190.210267
 6762         c3    237    ccc     C3   6762 0.15592700  12.010000   ; qtot 190.366194
 6763         c3    237    ccc     C4   6763 0.28383300  12.010000   ; qtot 190.650027
 6764         c3    237    ccc     C5   6764 0.32403300  12.010000   ; qtot 190.974060
 6765         h1    237    ccc     H3   6765 0.13386900   1.008000   ; qtot 191.107929
 6766         h1    237    ccc     H4   6766 0.10146700   1.008000   ; qtot 191.209396
 6767         h2    237    ccc     H5   6767 0.10960400   1.008000   ; qtot 191.319000
 6768         os    237    ccc     O1   6768 -0.28650000  16.000000   ; qtot 191.032500
 6769         oh    237    ccc     O2   6769 -0.86012500  16.000000   ; qtot 190.172375
 6770         oh    237    ccc     O3   6770 -0.83772800  16.000000   ; qtot 189.334647
 6771         oh    237    ccc     O4   6771 -0.77449700  16.000000   ; qtot 188.560150
 6772         c3    237    ccc     C6   6772 0.37576500  12.010000   ; qtot 188.935915
 6773         ho    237    ccc     H6   6773 0.53656000   1.008000   ; qtot 189.472475
 6774         ho    237    ccc     H7   6774 0.49492100   1.008000   ; qtot 189.967396
 6775         ho    237    ccc     H8   6775 0.51297200   1.008000   ; qtot 190.480368
 6776         h1    237    ccc     H9   6776 0.05653400   1.008000   ; qtot 190.536902
 6777         h1    237    ccc    H10   6777 0.05653400   1.008000   ; qtot 190.593436
 6778         oh    237    ccc     O5   6778 -0.84113600  16.000000   ; qtot 189.752300
 6779         ho    237    ccc    H11   6779 0.51201600   1.008000   ; qtot 190.264316
 6780         os    237    ccc     O6   6780 -0.26013600  16.000000   ; qtot 190.004180
; residue  238 ccc rtp ccc q 0.0
 6781         c3    238    ccc     C1   6781 -0.33178800  12.010000   ; qtot 189.672392
 6782         c3    238    ccc     C2   6782 0.30606500  12.010000   ; qtot 189.978457
 6783         h1    238    ccc     H1   6783 0.11662300   1.008000   ; qtot 190.095080
 6784         h1    238    ccc     H2   6784 0.11526800   1.008000   ; qtot 190.210348
 6785         c3    238    ccc     C3   6785 0.15592700  12.010000   ; qtot 190.366275
 6786         c3    238    ccc     C4   6786 0.28383300  12.010000   ; qtot 190.650108
 6787         c3    238    ccc     C5   6787 0.32403300  12.010000   ; qtot 190.974141
 6788         h1    238    ccc     H3   6788 0.13386900   1.008000   ; qtot 191.108010
 6789         h1    238    ccc     H4   6789 0.10146700   1.008000   ; qtot 191.209477
 6790         h2    238    ccc     H5   6790 0.10960400   1.008000   ; qtot 191.319081
 6791         os    238    ccc     O1   6791 -0.28650000  16.000000   ; qtot 191.032581
 6792         oh    238    ccc     O2   6792 -0.86012500  16.000000   ; qtot 190.172456
 6793         oh    238    ccc     O3   6793 -0.83772800  16.000000   ; qtot 189.334728
 6794         oh    238    ccc     O4   6794 -0.77449700  16.000000   ; qtot 188.560231
 6795         c3    238    ccc     C6   6795 0.37576500  12.010000   ; qtot 188.935996
 6796         ho    238    ccc     H6   6796 0.53656000   1.008000   ; qtot 189.472556
 6797         ho    238    ccc     H7   6797 0.49492100   1.008000   ; qtot 189.967477
 6798         ho    238    ccc     H8   6798 0.51297200   1.008000   ; qtot 190.480449
 6799         h1    238    ccc     H9   6799 0.05653400   1.008000   ; qtot 190.536983
 6800         h1    238    ccc    H10   6800 0.05653400   1.008000   ; qtot 190.593517
 6801         oh    238    ccc     O5   6801 -0.84113600  16.000000   ; qtot 189.752381
 6802         ho    238    ccc    H11   6802 0.51201600   1.008000   ; qtot 190.264397
 6803         os    238    ccc     O6   6803 -0.26013600  16.000000   ; qtot 190.004261
; residue  239 ccc rtp ccc q 0.0
 6804         c3    239    ccc     C1   6804 -0.33178800  12.010000   ; qtot 189.672473
 6805         c3    239    ccc     C2   6805 0.30606500  12.010000   ; qtot 189.978538
 6806         h1    239    ccc     H1   6806 0.11662300   1.008000   ; qtot 190.095161
 6807         h1    239    ccc     H2   6807 0.11526800   1.008000   ; qtot 190.210429
 6808         c3    239    ccc     C3   6808 0.15592700  12.010000   ; qtot 190.366356
 6809         c3    239    ccc     C4   6809 0.28383300  12.010000   ; qtot 190.650189
 6810         c3    239    ccc     C5   6810 0.32403300  12.010000   ; qtot 190.974222
 6811         h1    239    ccc     H3   6811 0.13386900   1.008000   ; qtot 191.108091
 6812         h1    239    ccc     H4   6812 0.10146700   1.008000   ; qtot 191.209558
 6813         h2    239    ccc     H5   6813 0.10960400   1.008000   ; qtot 191.319162
 6814         os    239    ccc     O1   6814 -0.28650000  16.000000   ; qtot 191.032662
 6815         oh    239    ccc     O2   6815 -0.86012500  16.000000   ; qtot 190.172537
 6816         oh    239    ccc     O3   6816 -0.83772800  16.000000   ; qtot 189.334809
 6817         oh    239    ccc     O4   6817 -0.77449700  16.000000   ; qtot 188.560312
 6818         c3    239    ccc     C6   6818 0.37576500  12.010000   ; qtot 188.936077
 6819         ho    239    ccc     H6   6819 0.53656000   1.008000   ; qtot 189.472637
 6820         ho    239    ccc     H7   6820 0.49492100   1.008000   ; qtot 189.967558
 6821         ho    239    ccc     H8   6821 0.51297200   1.008000   ; qtot 190.480530
 6822         h1    239    ccc     H9   6822 0.05653400   1.008000   ; qtot 190.537064
 6823         h1    239    ccc    H10   6823 0.05653400   1.008000   ; qtot 190.593598
 6824         oh    239    ccc     O5   6824 -0.84113600  16.000000   ; qtot 189.752462
 6825         ho    239    ccc    H11   6825 0.51201600   1.008000   ; qtot 190.264478
 6826         os    239    ccc     O6   6826 -0.26013600  16.000000   ; qtot 190.004342
; residue  240 ccc rtp ccc q 0.0
 6827         c3    240    ccc     C1   6827 -0.33178800  12.010000   ; qtot 189.672554
 6828         c3    240    ccc     C2   6828 0.30606500  12.010000   ; qtot 189.978619
 6829         h1    240    ccc     H1   6829 0.11662300   1.008000   ; qtot 190.095242
 6830         h1    240    ccc     H2   6830 0.11526800   1.008000   ; qtot 190.210510
 6831         c3    240    ccc     C3   6831 0.15592700  12.010000   ; qtot 190.366437
 6832         c3    240    ccc     C4   6832 0.28383300  12.010000   ; qtot 190.650270
 6833         c3    240    ccc     C5   6833 0.32403300  12.010000   ; qtot 190.974303
 6834         h1    240    ccc     H3   6834 0.13386900   1.008000   ; qtot 191.108172
 6835         h1    240    ccc     H4   6835 0.10146700   1.008000   ; qtot 191.209639
 6836         h2    240    ccc     H5   6836 0.10960400   1.008000   ; qtot 191.319243
 6837         os    240    ccc     O1   6837 -0.28650000  16.000000   ; qtot 191.032743
 6838         oh    240    ccc     O2   6838 -0.86012500  16.000000   ; qtot 190.172618
 6839         oh    240    ccc     O3   6839 -0.83772800  16.000000   ; qtot 189.334890
 6840         oh    240    ccc     O4   6840 -0.77449700  16.000000   ; qtot 188.560393
 6841         c3    240    ccc     C6   6841 0.37576500  12.010000   ; qtot 188.936158
 6842         ho    240    ccc     H6   6842 0.53656000   1.008000   ; qtot 189.472718
 6843         ho    240    ccc     H7   6843 0.49492100   1.008000   ; qtot 189.967639
 6844         ho    240    ccc     H8   6844 0.51297200   1.008000   ; qtot 190.480611
 6845         h1    240    ccc     H9   6845 0.05653400   1.008000   ; qtot 190.537145
 6846         h1    240    ccc    H10   6846 0.05653400   1.008000   ; qtot 190.593679
 6847         oh    240    ccc     O5   6847 -0.84113600  16.000000   ; qtot 189.752543
 6848         ho    240    ccc    H11   6848 0.51201600   1.008000   ; qtot 190.264559
 6849         os    240    ccc     O6   6849 -0.26013600  16.000000   ; qtot 190.004423
; residue  241 ccc rtp ccc q 0.0
 6850         c3    241    ccc     C1   6850 -0.33178800  12.010000   ; qtot 189.672635
 6851         c3    241    ccc     C2   6851 0.30606500  12.010000   ; qtot 189.978700
 6852         h1    241    ccc     H1   6852 0.11662300   1.008000   ; qtot 190.095323
 6853         h1    241    ccc     H2   6853 0.11526800   1.008000   ; qtot 190.210591
 6854         c3    241    ccc     C3   6854 0.15592700  12.010000   ; qtot 190.366518
 6855         c3    241    ccc     C4   6855 0.28383300  12.010000   ; qtot 190.650351
 6856         c3    241    ccc     C5   6856 0.32403300  12.010000   ; qtot 190.974384
 6857         h1    241    ccc     H3   6857 0.13386900   1.008000   ; qtot 191.108253
 6858         h1    241    ccc     H4   6858 0.10146700   1.008000   ; qtot 191.209720
 6859         h2    241    ccc     H5   6859 0.10960400   1.008000   ; qtot 191.319324
 6860         os    241    ccc     O1   6860 -0.28650000  16.000000   ; qtot 191.032824
 6861         oh    241    ccc     O2   6861 -0.86012500  16.000000   ; qtot 190.172699
 6862         oh    241    ccc     O3   6862 -0.83772800  16.000000   ; qtot 189.334971
 6863         oh    241    ccc     O4   6863 -0.77449700  16.000000   ; qtot 188.560474
 6864         c3    241    ccc     C6   6864 0.37576500  12.010000   ; qtot 188.936239
 6865         ho    241    ccc     H6   6865 0.53656000   1.008000   ; qtot 189.472799
 6866         ho    241    ccc     H7   6866 0.49492100   1.008000   ; qtot 189.967720
 6867         ho    241    ccc     H8   6867 0.51297200   1.008000   ; qtot 190.480692
 6868         h1    241    ccc     H9   6868 0.05653400   1.008000   ; qtot 190.537226
 6869         h1    241    ccc    H10   6869 0.05653400   1.008000   ; qtot 190.593760
 6870         oh    241    ccc     O5   6870 -0.84113600  16.000000   ; qtot 189.752624
 6871         ho    241    ccc    H11   6871 0.51201600   1.008000   ; qtot 190.264640
 6872         os    241    ccc     O6   6872 -0.26013600  16.000000   ; qtot 190.004504
; residue  242 ccc rtp ccc q 0.0
 6873         c3    242    ccc     C1   6873 -0.33178800  12.010000   ; qtot 189.672716
 6874         c3    242    ccc     C2   6874 0.30606500  12.010000   ; qtot 189.978781
 6875         h1    242    ccc     H1   6875 0.11662300   1.008000   ; qtot 190.095404
 6876         h1    242    ccc     H2   6876 0.11526800   1.008000   ; qtot 190.210672
 6877         c3    242    ccc     C3   6877 0.15592700  12.010000   ; qtot 190.366599
 6878         c3    242    ccc     C4   6878 0.28383300  12.010000   ; qtot 190.650432
 6879         c3    242    ccc     C5   6879 0.32403300  12.010000   ; qtot 190.974465
 6880         h1    242    ccc     H3   6880 0.13386900   1.008000   ; qtot 191.108334
 6881         h1    242    ccc     H4   6881 0.10146700   1.008000   ; qtot 191.209801
 6882         h2    242    ccc     H5   6882 0.10960400   1.008000   ; qtot 191.319405
 6883         os    242    ccc     O1   6883 -0.28650000  16.000000   ; qtot 191.032905
 6884         oh    242    ccc     O2   6884 -0.86012500  16.000000   ; qtot 190.172780
 6885         oh    242    ccc     O3   6885 -0.83772800  16.000000   ; qtot 189.335052
 6886         oh    242    ccc     O4   6886 -0.77449700  16.000000   ; qtot 188.560555
 6887         c3    242    ccc     C6   6887 0.37576500  12.010000   ; qtot 188.936320
 6888         ho    242    ccc     H6   6888 0.53656000   1.008000   ; qtot 189.472880
 6889         ho    242    ccc     H7   6889 0.49492100   1.008000   ; qtot 189.967801
 6890         ho    242    ccc     H8   6890 0.51297200   1.008000   ; qtot 190.480773
 6891         h1    242    ccc     H9   6891 0.05653400   1.008000   ; qtot 190.537307
 6892         h1    242    ccc    H10   6892 0.05653400   1.008000   ; qtot 190.593841
 6893         oh    242    ccc     O5   6893 -0.84113600  16.000000   ; qtot 189.752705
 6894         ho    242    ccc    H11   6894 0.51201600   1.008000   ; qtot 190.264721
 6895         os    242    ccc     O6   6895 -0.26013600  16.000000   ; qtot 190.004585
; residue  243 ccc rtp ccc q 0.0
 6896         c3    243    ccc     C1   6896 -0.33178800  12.010000   ; qtot 189.672797
 6897         c3    243    ccc     C2   6897 0.30606500  12.010000   ; qtot 189.978862
 6898         h1    243    ccc     H1   6898 0.11662300   1.008000   ; qtot 190.095485
 6899         h1    243    ccc     H2   6899 0.11526800   1.008000   ; qtot 190.210753
 6900         c3    243    ccc     C3   6900 0.15592700  12.010000   ; qtot 190.366680
 6901         c3    243    ccc     C4   6901 0.28383300  12.010000   ; qtot 190.650513
 6902         c3    243    ccc     C5   6902 0.32403300  12.010000   ; qtot 190.974546
 6903         h1    243    ccc     H3   6903 0.13386900   1.008000   ; qtot 191.108415
 6904         h1    243    ccc     H4   6904 0.10146700   1.008000   ; qtot 191.209882
 6905         h2    243    ccc     H5   6905 0.10960400   1.008000   ; qtot 191.319486
 6906         os    243    ccc     O1   6906 -0.28650000  16.000000   ; qtot 191.032986
 6907         oh    243    ccc     O2   6907 -0.86012500  16.000000   ; qtot 190.172861
 6908         oh    243    ccc     O3   6908 -0.83772800  16.000000   ; qtot 189.335133
 6909         oh    243    ccc     O4   6909 -0.77449700  16.000000   ; qtot 188.560636
 6910         c3    243    ccc     C6   6910 0.37576500  12.010000   ; qtot 188.936401
 6911         ho    243    ccc     H6   6911 0.53656000   1.008000   ; qtot 189.472961
 6912         ho    243    ccc     H7   6912 0.49492100   1.008000   ; qtot 189.967882
 6913         ho    243    ccc     H8   6913 0.51297200   1.008000   ; qtot 190.480854
 6914         h1    243    ccc     H9   6914 0.05653400   1.008000   ; qtot 190.537388
 6915         h1    243    ccc    H10   6915 0.05653400   1.008000   ; qtot 190.593922
 6916         oh    243    ccc     O5   6916 -0.84113600  16.000000   ; qtot 189.752786
 6917         ho    243    ccc    H11   6917 0.51201600   1.008000   ; qtot 190.264802
 6918         os    243    ccc     O6   6918 -0.26013600  16.000000   ; qtot 190.004666
; residue  244 ccc rtp ccc q 0.0
 6919         c3    244    ccc     C1   6919 -0.33178800  12.010000   ; qtot 189.672878
 6920         c3    244    ccc     C2   6920 0.30606500  12.010000   ; qtot 189.978943
 6921         h1    244    ccc     H1   6921 0.11662300   1.008000   ; qtot 190.095566
 6922         h1    244    ccc     H2   6922 0.11526800   1.008000   ; qtot 190.210834
 6923         c3    244    ccc     C3   6923 0.15592700  12.010000   ; qtot 190.366761
 6924         c3    244    ccc     C4   6924 0.28383300  12.010000   ; qtot 190.650594
 6925         c3    244    ccc     C5   6925 0.32403300  12.010000   ; qtot 190.974627
 6926         h1    244    ccc     H3   6926 0.13386900   1.008000   ; qtot 191.108496
 6927         h1    244    ccc     H4   6927 0.10146700   1.008000   ; qtot 191.209963
 6928         h2    244    ccc     H5   6928 0.10960400   1.008000   ; qtot 191.319567
 6929         os    244    ccc     O1   6929 -0.28650000  16.000000   ; qtot 191.033067
 6930         oh    244    ccc     O2   6930 -0.86012500  16.000000   ; qtot 190.172942
 6931         oh    244    ccc     O3   6931 -0.83772800  16.000000   ; qtot 189.335214
 6932         oh    244    ccc     O4   6932 -0.77449700  16.000000   ; qtot 188.560717
 6933         c3    244    ccc     C6   6933 0.37576500  12.010000   ; qtot 188.936482
 6934         ho    244    ccc     H6   6934 0.53656000   1.008000   ; qtot 189.473042
 6935         ho    244    ccc     H7   6935 0.49492100   1.008000   ; qtot 189.967963
 6936         ho    244    ccc     H8   6936 0.51297200   1.008000   ; qtot 190.480935
 6937         h1    244    ccc     H9   6937 0.05653400   1.008000   ; qtot 190.537469
 6938         h1    244    ccc    H10   6938 0.05653400   1.008000   ; qtot 190.594003
 6939         oh    244    ccc     O5   6939 -0.84113600  16.000000   ; qtot 189.752867
 6940         ho    244    ccc    H11   6940 0.51201600   1.008000   ; qtot 190.264883
 6941         os    244    ccc     O6   6941 -0.26013600  16.000000   ; qtot 190.004747
; residue  245 ccc rtp ccc q 0.0
 6942         c3    245    ccc     C1   6942 -0.33178800  12.010000   ; qtot 189.672959
 6943         c3    245    ccc     C2   6943 0.30606500  12.010000   ; qtot 189.979024
 6944         h1    245    ccc     H1   6944 0.11662300   1.008000   ; qtot 190.095647
 6945         h1    245    ccc     H2   6945 0.11526800   1.008000   ; qtot 190.210915
 6946         c3    245    ccc     C3   6946 0.15592700  12.010000   ; qtot 190.366842
 6947         c3    245    ccc     C4   6947 0.28383300  12.010000   ; qtot 190.650675
 6948         c3    245    ccc     C5   6948 0.32403300  12.010000   ; qtot 190.974708
 6949         h1    245    ccc     H3   6949 0.13386900   1.008000   ; qtot 191.108577
 6950         h1    245    ccc     H4   6950 0.10146700   1.008000   ; qtot 191.210044
 6951         h2    245    ccc     H5   6951 0.10960400   1.008000   ; qtot 191.319648
 6952         os    245    ccc     O1   6952 -0.28650000  16.000000   ; qtot 191.033148
 6953         oh    245    ccc     O2   6953 -0.86012500  16.000000   ; qtot 190.173023
 6954         oh    245    ccc     O3   6954 -0.83772800  16.000000   ; qtot 189.335295
 6955         oh    245    ccc     O4   6955 -0.77449700  16.000000   ; qtot 188.560798
 6956         c3    245    ccc     C6   6956 0.37576500  12.010000   ; qtot 188.936563
 6957         ho    245    ccc     H6   6957 0.53656000   1.008000   ; qtot 189.473123
 6958         ho    245    ccc     H7   6958 0.49492100   1.008000   ; qtot 189.968044
 6959         ho    245    ccc     H8   6959 0.51297200   1.008000   ; qtot 190.481016
 6960         h1    245    ccc     H9   6960 0.05653400   1.008000   ; qtot 190.537550
 6961         h1    245    ccc    H10   6961 0.05653400   1.008000   ; qtot 190.594084
 6962         oh    245    ccc     O5   6962 -0.84113600  16.000000   ; qtot 189.752948
 6963         ho    245    ccc    H11   6963 0.51201600   1.008000   ; qtot 190.264964
 6964         os    245    ccc     O6   6964 -0.26013600  16.000000   ; qtot 190.004828
; residue  246 ccc rtp ccc q 0.0
 6965         c3    246    ccc     C1   6965 -0.33178800  12.010000   ; qtot 189.673040
 6966         c3    246    ccc     C2   6966 0.30606500  12.010000   ; qtot 189.979105
 6967         h1    246    ccc     H1   6967 0.11662300   1.008000   ; qtot 190.095728
 6968         h1    246    ccc     H2   6968 0.11526800   1.008000   ; qtot 190.210996
 6969         c3    246    ccc     C3   6969 0.15592700  12.010000   ; qtot 190.366923
 6970         c3    246    ccc     C4   6970 0.28383300  12.010000   ; qtot 190.650756
 6971         c3    246    ccc     C5   6971 0.32403300  12.010000   ; qtot 190.974789
 6972         h1    246    ccc     H3   6972 0.13386900   1.008000   ; qtot 191.108658
 6973         h1    246    ccc     H4   6973 0.10146700   1.008000   ; qtot 191.210125
 6974         h2    246    ccc     H5   6974 0.10960400   1.008000   ; qtot 191.319729
 6975         os    246    ccc     O1   6975 -0.28650000  16.000000   ; qtot 191.033229
 6976         oh    246    ccc     O2   6976 -0.86012500  16.000000   ; qtot 190.173104
 6977         oh    246    ccc     O3   6977 -0.83772800  16.000000   ; qtot 189.335376
 6978         oh    246    ccc     O4   6978 -0.77449700  16.000000   ; qtot 188.560879
 6979         c3    246    ccc     C6   6979 0.37576500  12.010000   ; qtot 188.936644
 6980         ho    246    ccc     H6   6980 0.53656000   1.008000   ; qtot 189.473204
 6981         ho    246    ccc     H7   6981 0.49492100   1.008000   ; qtot 189.968125
 6982         ho    246    ccc     H8   6982 0.51297200   1.008000   ; qtot 190.481097
 6983         h1    246    ccc     H9   6983 0.05653400   1.008000   ; qtot 190.537631
 6984         h1    246    ccc    H10   6984 0.05653400   1.008000   ; qtot 190.594165
 6985         oh    246    ccc     O5   6985 -0.84113600  16.000000   ; qtot 189.753029
 6986         ho    246    ccc    H11   6986 0.51201600   1.008000   ; qtot 190.265045
 6987         os    246    ccc     O6   6987 -0.26013600  16.000000   ; qtot 190.004909
; residue  247 ccc rtp ccc q 0.0
 6988         c3    247    ccc     C1   6988 -0.33178800  12.010000   ; qtot 189.673121
 6989         c3    247    ccc     C2   6989 0.30606500  12.010000   ; qtot 189.979186
 6990         h1    247    ccc     H1   6990 0.11662300   1.008000   ; qtot 190.095809
 6991         h1    247    ccc     H2   6991 0.11526800   1.008000   ; qtot 190.211077
 6992         c3    247    ccc     C3   6992 0.15592700  12.010000   ; qtot 190.367004
 6993         c3    247    ccc     C4   6993 0.28383300  12.010000   ; qtot 190.650837
 6994         c3    247    ccc     C5   6994 0.32403300  12.010000   ; qtot 190.974870
 6995         h1    247    ccc     H3   6995 0.13386900   1.008000   ; qtot 191.108739
 6996         h1    247    ccc     H4   6996 0.10146700   1.008000   ; qtot 191.210206
 6997         h2    247    ccc     H5   6997 0.10960400   1.008000   ; qtot 191.319810
 6998         os    247    ccc     O1   6998 -0.28650000  16.000000   ; qtot 191.033310
 6999         oh    247    ccc     O2   6999 -0.86012500  16.000000   ; qtot 190.173185
 7000         oh    247    ccc     O3   7000 -0.83772800  16.000000   ; qtot 189.335457
 7001         oh    247    ccc     O4   7001 -0.77449700  16.000000   ; qtot 188.560960
 7002         c3    247    ccc     C6   7002 0.37576500  12.010000   ; qtot 188.936725
 7003         ho    247    ccc     H6   7003 0.53656000   1.008000   ; qtot 189.473285
 7004         ho    247    ccc     H7   7004 0.49492100   1.008000   ; qtot 189.968206
 7005         ho    247    ccc     H8   7005 0.51297200   1.008000   ; qtot 190.481178
 7006         h1    247    ccc     H9   7006 0.05653400   1.008000   ; qtot 190.537712
 7007         h1    247    ccc    H10   7007 0.05653400   1.008000   ; qtot 190.594246
 7008         oh    247    ccc     O5   7008 -0.84113600  16.000000   ; qtot 189.753110
 7009         ho    247    ccc    H11   7009 0.51201600   1.008000   ; qtot 190.265126
 7010         os    247    ccc     O6   7010 -0.26013600  16.000000   ; qtot 190.004990
; residue  248 ccc rtp ccc q 0.0
 7011         c3    248    ccc     C1   7011 -0.33178800  12.010000   ; qtot 189.673202
 7012         c3    248    ccc     C2   7012 0.30606500  12.010000   ; qtot 189.979267
 7013         h1    248    ccc     H1   7013 0.11662300   1.008000   ; qtot 190.095890
 7014         h1    248    ccc     H2   7014 0.11526800   1.008000   ; qtot 190.211158
 7015         c3    248    ccc     C3   7015 0.15592700  12.010000   ; qtot 190.367085
 7016         c3    248    ccc     C4   7016 0.28383300  12.010000   ; qtot 190.650918
 7017         c3    248    ccc     C5   7017 0.32403300  12.010000   ; qtot 190.974951
 7018         h1    248    ccc     H3   7018 0.13386900   1.008000   ; qtot 191.108820
 7019         h1    248    ccc     H4   7019 0.10146700   1.008000   ; qtot 191.210287
 7020         h2    248    ccc     H5   7020 0.10960400   1.008000   ; qtot 191.319891
 7021         os    248    ccc     O1   7021 -0.28650000  16.000000   ; qtot 191.033391
 7022         oh    248    ccc     O2   7022 -0.86012500  16.000000   ; qtot 190.173266
 7023         oh    248    ccc     O3   7023 -0.83772800  16.000000   ; qtot 189.335538
 7024         oh    248    ccc     O4   7024 -0.77449700  16.000000   ; qtot 188.561041
 7025         c3    248    ccc     C6   7025 0.37576500  12.010000   ; qtot 188.936806
 7026         ho    248    ccc     H6   7026 0.53656000   1.008000   ; qtot 189.473366
 7027         ho    248    ccc     H7   7027 0.49492100   1.008000   ; qtot 189.968287
 7028         ho    248    ccc     H8   7028 0.51297200   1.008000   ; qtot 190.481259
 7029         h1    248    ccc     H9   7029 0.05653400   1.008000   ; qtot 190.537793
 7030         h1    248    ccc    H10   7030 0.05653400   1.008000   ; qtot 190.594327
 7031         oh    248    ccc     O5   7031 -0.84113600  16.000000   ; qtot 189.753191
 7032         ho    248    ccc    H11   7032 0.51201600   1.008000   ; qtot 190.265207
 7033         os    248    ccc     O6   7033 -0.26013600  16.000000   ; qtot 190.005071
; residue  249 ccc rtp ccc q 0.0
 7034         c3    249    ccc     C1   7034 -0.33178800  12.010000   ; qtot 189.673283
 7035         c3    249    ccc     C2   7035 0.30606500  12.010000   ; qtot 189.979348
 7036         h1    249    ccc     H1   7036 0.11662300   1.008000   ; qtot 190.095971
 7037         h1    249    ccc     H2   7037 0.11526800   1.008000   ; qtot 190.211239
 7038         c3    249    ccc     C3   7038 0.15592700  12.010000   ; qtot 190.367166
 7039         c3    249    ccc     C4   7039 0.28383300  12.010000   ; qtot 190.650999
 7040         c3    249    ccc     C5   7040 0.32403300  12.010000   ; qtot 190.975032
 7041         h1    249    ccc     H3   7041 0.13386900   1.008000   ; qtot 191.108901
 7042         h1    249    ccc     H4   7042 0.10146700   1.008000   ; qtot 191.210368
 7043         h2    249    ccc     H5   7043 0.10960400   1.008000   ; qtot 191.319972
 7044         os    249    ccc     O1   7044 -0.28650000  16.000000   ; qtot 191.033472
 7045         oh    249    ccc     O2   7045 -0.86012500  16.000000   ; qtot 190.173347
 7046         oh    249    ccc     O3   7046 -0.83772800  16.000000   ; qtot 189.335619
 7047         oh    249    ccc     O4   7047 -0.77449700  16.000000   ; qtot 188.561122
 7048         c3    249    ccc     C6   7048 0.37576500  12.010000   ; qtot 188.936887
 7049         ho    249    ccc     H6   7049 0.53656000   1.008000   ; qtot 189.473447
 7050         ho    249    ccc     H7   7050 0.49492100   1.008000   ; qtot 189.968368
 7051         ho    249    ccc     H8   7051 0.51297200   1.008000   ; qtot 190.481340
 7052         h1    249    ccc     H9   7052 0.05653400   1.008000   ; qtot 190.537874
 7053         h1    249    ccc    H10   7053 0.05653400   1.008000   ; qtot 190.594408
 7054         oh    249    ccc     O5   7054 -0.84113600  16.000000   ; qtot 189.753272
 7055         ho    249    ccc    H11   7055 0.51201600   1.008000   ; qtot 190.265288
 7056         os    249    ccc     O6   7056 -0.26013600  16.000000   ; qtot 190.005152
; residue  250 ccc rtp ccc q 0.0
 7057         c3    250    ccc     C1   7057 -0.33178800  12.010000   ; qtot 189.673364
 7058         c3    250    ccc     C2   7058 0.30606500  12.010000   ; qtot 189.979429
 7059         h1    250    ccc     H1   7059 0.11662300   1.008000   ; qtot 190.096052
 7060         h1    250    ccc     H2   7060 0.11526800   1.008000   ; qtot 190.211320
 7061         c3    250    ccc     C3   7061 0.15592700  12.010000   ; qtot 190.367247
 7062         c3    250    ccc     C4   7062 0.28383300  12.010000   ; qtot 190.651080
 7063         c3    250    ccc     C5   7063 0.32403300  12.010000   ; qtot 190.975113
 7064         h1    250    ccc     H3   7064 0.13386900   1.008000   ; qtot 191.108982
 7065         h1    250    ccc     H4   7065 0.10146700   1.008000   ; qtot 191.210449
 7066         h2    250    ccc     H5   7066 0.10960400   1.008000   ; qtot 191.320053
 7067         os    250    ccc     O1   7067 -0.28650000  16.000000   ; qtot 191.033553
 7068         oh    250    ccc     O2   7068 -0.86012500  16.000000   ; qtot 190.173428
 7069         oh    250    ccc     O3   7069 -0.83772800  16.000000   ; qtot 189.335700
 7070         oh    250    ccc     O4   7070 -0.77449700  16.000000   ; qtot 188.561203
 7071         c3    250    ccc     C6   7071 0.37576500  12.010000   ; qtot 188.936968
 7072         ho    250    ccc     H6   7072 0.53656000   1.008000   ; qtot 189.473528
 7073         ho    250    ccc     H7   7073 0.49492100   1.008000   ; qtot 189.968449
 7074         ho    250    ccc     H8   7074 0.51297200   1.008000   ; qtot 190.481421
 7075         h1    250    ccc     H9   7075 0.05653400   1.008000   ; qtot 190.537955
 7076         h1    250    ccc    H10   7076 0.05653400   1.008000   ; qtot 190.594489
 7077         oh    250    ccc     O5   7077 -0.84113600  16.000000   ; qtot 189.753353
 7078         ho    250    ccc    H11   7078 0.51201600   1.008000   ; qtot 190.265369
 7079         os    250    ccc     O6   7079 -0.26013600  16.000000   ; qtot 190.005233
; residue  251 ccc rtp ccc q 0.0
 7080         c3    251    ccc     C1   7080 -0.33178800  12.010000   ; qtot 189.673445
 7081         c3    251    ccc     C2   7081 0.30606500  12.010000   ; qtot 189.979510
 7082         h1    251    ccc     H1   7082 0.11662300   1.008000   ; qtot 190.096133
 7083         h1    251    ccc     H2   7083 0.11526800   1.008000   ; qtot 190.211401
 7084         c3    251    ccc     C3   7084 0.15592700  12.010000   ; qtot 190.367328
 7085         c3    251    ccc     C4   7085 0.28383300  12.010000   ; qtot 190.651161
 7086         c3    251    ccc     C5   7086 0.32403300  12.010000   ; qtot 190.975194
 7087         h1    251    ccc     H3   7087 0.13386900   1.008000   ; qtot 191.109063
 7088         h1    251    ccc     H4   7088 0.10146700   1.008000   ; qtot 191.210530
 7089         h2    251    ccc     H5   7089 0.10960400   1.008000   ; qtot 191.320134
 7090         os    251    ccc     O1   7090 -0.28650000  16.000000   ; qtot 191.033634
 7091         oh    251    ccc     O2   7091 -0.86012500  16.000000   ; qtot 190.173509
 7092         oh    251    ccc     O3   7092 -0.83772800  16.000000   ; qtot 189.335781
 7093         oh    251    ccc     O4   7093 -0.77449700  16.000000   ; qtot 188.561284
 7094         c3    251    ccc     C6   7094 0.37576500  12.010000   ; qtot 188.937049
 7095         ho    251    ccc     H6   7095 0.53656000   1.008000   ; qtot 189.473609
 7096         ho    251    ccc     H7   7096 0.49492100   1.008000   ; qtot 189.968530
 7097         ho    251    ccc     H8   7097 0.51297200   1.008000   ; qtot 190.481502
 7098         h1    251    ccc     H9   7098 0.05653400   1.008000   ; qtot 190.538036
 7099         h1    251    ccc    H10   7099 0.05653400   1.008000   ; qtot 190.594570
 7100         oh    251    ccc     O5   7100 -0.84113600  16.000000   ; qtot 189.753434
 7101         ho    251    ccc    H11   7101 0.51201600   1.008000   ; qtot 190.265450
 7102         os    251    ccc     O6   7102 -0.26013600  16.000000   ; qtot 190.005314
; residue  252 ccc rtp ccc q 0.0
 7103         c3    252    ccc     C1   7103 -0.33178800  12.010000   ; qtot 189.673526
 7104         c3    252    ccc     C2   7104 0.30606500  12.010000   ; qtot 189.979591
 7105         h1    252    ccc     H1   7105 0.11662300   1.008000   ; qtot 190.096214
 7106         h1    252    ccc     H2   7106 0.11526800   1.008000   ; qtot 190.211482
 7107         c3    252    ccc     C3   7107 0.15592700  12.010000   ; qtot 190.367409
 7108         c3    252    ccc     C4   7108 0.28383300  12.010000   ; qtot 190.651242
 7109         c3    252    ccc     C5   7109 0.32403300  12.010000   ; qtot 190.975275
 7110         h1    252    ccc     H3   7110 0.13386900   1.008000   ; qtot 191.109144
 7111         h1    252    ccc     H4   7111 0.10146700   1.008000   ; qtot 191.210611
 7112         h2    252    ccc     H5   7112 0.10960400   1.008000   ; qtot 191.320215
 7113         os    252    ccc     O1   7113 -0.28650000  16.000000   ; qtot 191.033715
 7114         oh    252    ccc     O2   7114 -0.86012500  16.000000   ; qtot 190.173590
 7115         oh    252    ccc     O3   7115 -0.83772800  16.000000   ; qtot 189.335862
 7116         oh    252    ccc     O4   7116 -0.77449700  16.000000   ; qtot 188.561365
 7117         c3    252    ccc     C6   7117 0.37576500  12.010000   ; qtot 188.937130
 7118         ho    252    ccc     H6   7118 0.53656000   1.008000   ; qtot 189.473690
 7119         ho    252    ccc     H7   7119 0.49492100   1.008000   ; qtot 189.968611
 7120         ho    252    ccc     H8   7120 0.51297200   1.008000   ; qtot 190.481583
 7121         h1    252    ccc     H9   7121 0.05653400   1.008000   ; qtot 190.538117
 7122         h1    252    ccc    H10   7122 0.05653400   1.008000   ; qtot 190.594651
 7123         oh    252    ccc     O5   7123 -0.84113600  16.000000   ; qtot 189.753515
 7124         ho    252    ccc    H11   7124 0.51201600   1.008000   ; qtot 190.265531
 7125         os    252    ccc     O6   7125 -0.26013600  16.000000   ; qtot 190.005395
; residue  253 ccc rtp ccc q 0.0
 7126         c3    253    ccc     C1   7126 -0.33178800  12.010000   ; qtot 189.673607
 7127         c3    253    ccc     C2   7127 0.30606500  12.010000   ; qtot 189.979672
 7128         h1    253    ccc     H1   7128 0.11662300   1.008000   ; qtot 190.096295
 7129         h1    253    ccc     H2   7129 0.11526800   1.008000   ; qtot 190.211563
 7130         c3    253    ccc     C3   7130 0.15592700  12.010000   ; qtot 190.367490
 7131         c3    253    ccc     C4   7131 0.28383300  12.010000   ; qtot 190.651323
 7132         c3    253    ccc     C5   7132 0.32403300  12.010000   ; qtot 190.975356
 7133         h1    253    ccc     H3   7133 0.13386900   1.008000   ; qtot 191.109225
 7134         h1    253    ccc     H4   7134 0.10146700   1.008000   ; qtot 191.210692
 7135         h2    253    ccc     H5   7135 0.10960400   1.008000   ; qtot 191.320296
 7136         os    253    ccc     O1   7136 -0.28650000  16.000000   ; qtot 191.033796
 7137         oh    253    ccc     O2   7137 -0.86012500  16.000000   ; qtot 190.173671
 7138         oh    253    ccc     O3   7138 -0.83772800  16.000000   ; qtot 189.335943
 7139         oh    253    ccc     O4   7139 -0.77449700  16.000000   ; qtot 188.561446
 7140         c3    253    ccc     C6   7140 0.37576500  12.010000   ; qtot 188.937211
 7141         ho    253    ccc     H6   7141 0.53656000   1.008000   ; qtot 189.473771
 7142         ho    253    ccc     H7   7142 0.49492100   1.008000   ; qtot 189.968692
 7143         ho    253    ccc     H8   7143 0.51297200   1.008000   ; qtot 190.481664
 7144         h1    253    ccc     H9   7144 0.05653400   1.008000   ; qtot 190.538198
 7145         h1    253    ccc    H10   7145 0.05653400   1.008000   ; qtot 190.594732
 7146         oh    253    ccc     O5   7146 -0.84113600  16.000000   ; qtot 189.753596
 7147         ho    253    ccc    H11   7147 0.51201600   1.008000   ; qtot 190.265612
 7148         os    253    ccc     O6   7148 -0.26013600  16.000000   ; qtot 190.005476
; residue  254 ccc rtp ccc q 0.0
 7149         c3    254    ccc     C1   7149 -0.33178800  12.010000   ; qtot 189.673688
 7150         c3    254    ccc     C2   7150 0.30606500  12.010000   ; qtot 189.979753
 7151         h1    254    ccc     H1   7151 0.11662300   1.008000   ; qtot 190.096376
 7152         h1    254    ccc     H2   7152 0.11526800   1.008000   ; qtot 190.211644
 7153         c3    254    ccc     C3   7153 0.15592700  12.010000   ; qtot 190.367571
 7154         c3    254    ccc     C4   7154 0.28383300  12.010000   ; qtot 190.651404
 7155         c3    254    ccc     C5   7155 0.32403300  12.010000   ; qtot 190.975437
 7156         h1    254    ccc     H3   7156 0.13386900   1.008000   ; qtot 191.109306
 7157         h1    254    ccc     H4   7157 0.10146700   1.008000   ; qtot 191.210773
 7158         h2    254    ccc     H5   7158 0.10960400   1.008000   ; qtot 191.320377
 7159         os    254    ccc     O1   7159 -0.28650000  16.000000   ; qtot 191.033877
 7160         oh    254    ccc     O2   7160 -0.86012500  16.000000   ; qtot 190.173752
 7161         oh    254    ccc     O3   7161 -0.83772800  16.000000   ; qtot 189.336024
 7162         oh    254    ccc     O4   7162 -0.77449700  16.000000   ; qtot 188.561527
 7163         c3    254    ccc     C6   7163 0.37576500  12.010000   ; qtot 188.937292
 7164         ho    254    ccc     H6   7164 0.53656000   1.008000   ; qtot 189.473852
 7165         ho    254    ccc     H7   7165 0.49492100   1.008000   ; qtot 189.968773
 7166         ho    254    ccc     H8   7166 0.51297200   1.008000   ; qtot 190.481745
 7167         h1    254    ccc     H9   7167 0.05653400   1.008000   ; qtot 190.538279
 7168         h1    254    ccc    H10   7168 0.05653400   1.008000   ; qtot 190.594813
 7169         oh    254    ccc     O5   7169 -0.84113600  16.000000   ; qtot 189.753677
 7170         ho    254    ccc    H11   7170 0.51201600   1.008000   ; qtot 190.265693
 7171         os    254    ccc     O6   7171 -0.26013600  16.000000   ; qtot 190.005557
; residue  255 ccc rtp ccc q 0.0
 7172         c3    255    ccc     C1   7172 -0.33178800  12.010000   ; qtot 189.673769
 7173         c3    255    ccc     C2   7173 0.30606500  12.010000   ; qtot 189.979834
 7174         h1    255    ccc     H1   7174 0.11662300   1.008000   ; qtot 190.096457
 7175         h1    255    ccc     H2   7175 0.11526800   1.008000   ; qtot 190.211725
 7176         c3    255    ccc     C3   7176 0.15592700  12.010000   ; qtot 190.367652
 7177         c3    255    ccc     C4   7177 0.28383300  12.010000   ; qtot 190.651485
 7178         c3    255    ccc     C5   7178 0.32403300  12.010000   ; qtot 190.975518
 7179         h1    255    ccc     H3   7179 0.13386900   1.008000   ; qtot 191.109387
 7180         h1    255    ccc     H4   7180 0.10146700   1.008000   ; qtot 191.210854
 7181         h2    255    ccc     H5   7181 0.10960400   1.008000   ; qtot 191.320458
 7182         os    255    ccc     O1   7182 -0.28650000  16.000000   ; qtot 191.033958
 7183         oh    255    ccc     O2   7183 -0.86012500  16.000000   ; qtot 190.173833
 7184         oh    255    ccc     O3   7184 -0.83772800  16.000000   ; qtot 189.336105
 7185         oh    255    ccc     O4   7185 -0.77449700  16.000000   ; qtot 188.561608
 7186         c3    255    ccc     C6   7186 0.37576500  12.010000   ; qtot 188.937373
 7187         ho    255    ccc     H6   7187 0.53656000   1.008000   ; qtot 189.473933
 7188         ho    255    ccc     H7   7188 0.49492100   1.008000   ; qtot 189.968854
 7189         ho    255    ccc     H8   7189 0.51297200   1.008000   ; qtot 190.481826
 7190         h1    255    ccc     H9   7190 0.05653400   1.008000   ; qtot 190.538360
 7191         h1    255    ccc    H10   7191 0.05653400   1.008000   ; qtot 190.594894
 7192         oh    255    ccc     O5   7192 -0.84113600  16.000000   ; qtot 189.753758
 7193         ho    255    ccc    H11   7193 0.51201600   1.008000   ; qtot 190.265774
 7194         os    255    ccc     O6   7194 -0.26013600  16.000000   ; qtot 190.005638
; residue  256 ccc rtp ccc q 0.0
 7195         c3    256    ccc     C1   7195 -0.33178800  12.010000   ; qtot 189.673850
 7196         c3    256    ccc     C2   7196 0.30606500  12.010000   ; qtot 189.979915
 7197         h1    256    ccc     H1   7197 0.11662300   1.008000   ; qtot 190.096538
 7198         h1    256    ccc     H2   7198 0.11526800   1.008000   ; qtot 190.211806
 7199         c3    256    ccc     C3   7199 0.15592700  12.010000   ; qtot 190.367733
 7200         c3    256    ccc     C4   7200 0.28383300  12.010000   ; qtot 190.651566
 7201         c3    256    ccc     C5   7201 0.32403300  12.010000   ; qtot 190.975599
 7202         h1    256    ccc     H3   7202 0.13386900   1.008000   ; qtot 191.109468
 7203         h1    256    ccc     H4   7203 0.10146700   1.008000   ; qtot 191.210935
 7204         h2    256    ccc     H5   7204 0.10960400   1.008000   ; qtot 191.320539
 7205         os    256    ccc     O1   7205 -0.28650000  16.000000   ; qtot 191.034039
 7206         oh    256    ccc     O2   7206 -0.86012500  16.000000   ; qtot 190.173914
 7207         oh    256    ccc     O3   7207 -0.83772800  16.000000   ; qtot 189.336186
 7208         oh    256    ccc     O4   7208 -0.77449700  16.000000   ; qtot 188.561689
 7209         c3    256    ccc     C6   7209 0.37576500  12.010000   ; qtot 188.937454
 7210         ho    256    ccc     H6   7210 0.53656000   1.008000   ; qtot 189.474014
 7211         ho    256    ccc     H7   7211 0.49492100   1.008000   ; qtot 189.968935
 7212         ho    256    ccc     H8   7212 0.51297200   1.008000   ; qtot 190.481907
 7213         h1    256    ccc     H9   7213 0.05653400   1.008000   ; qtot 190.538441
 7214         h1    256    ccc    H10   7214 0.05653400   1.008000   ; qtot 190.594975
 7215         oh    256    ccc     O5   7215 -0.84113600  16.000000   ; qtot 189.753839
 7216         ho    256    ccc    H11   7216 0.51201600   1.008000   ; qtot 190.265855
 7217         os    256    ccc     O6   7217 -0.26013600  16.000000   ; qtot 190.005719
; residue  257 ccc rtp ccc q 0.0
 7218         c3    257    ccc     C1   7218 -0.33178800  12.010000   ; qtot 189.673931
 7219         c3    257    ccc     C2   7219 0.30606500  12.010000   ; qtot 189.979996
 7220         h1    257    ccc     H1   7220 0.11662300   1.008000   ; qtot 190.096619
 7221         h1    257    ccc     H2   7221 0.11526800   1.008000   ; qtot 190.211887
 7222         c3    257    ccc     C3   7222 0.15592700  12.010000   ; qtot 190.367814
 7223         c3    257    ccc     C4   7223 0.28383300  12.010000   ; qtot 190.651647
 7224         c3    257    ccc     C5   7224 0.32403300  12.010000   ; qtot 190.975680
 7225         h1    257    ccc     H3   7225 0.13386900   1.008000   ; qtot 191.109549
 7226         h1    257    ccc     H4   7226 0.10146700   1.008000   ; qtot 191.211016
 7227         h2    257    ccc     H5   7227 0.10960400   1.008000   ; qtot 191.320620
 7228         os    257    ccc     O1   7228 -0.28650000  16.000000   ; qtot 191.034120
 7229         oh    257    ccc     O2   7229 -0.86012500  16.000000   ; qtot 190.173995
 7230         oh    257    ccc     O3   7230 -0.83772800  16.000000   ; qtot 189.336267
 7231         oh    257    ccc     O4   7231 -0.77449700  16.000000   ; qtot 188.561770
 7232         c3    257    ccc     C6   7232 0.37576500  12.010000   ; qtot 188.937535
 7233         ho    257    ccc     H6   7233 0.53656000   1.008000   ; qtot 189.474095
 7234         ho    257    ccc     H7   7234 0.49492100   1.008000   ; qtot 189.969016
 7235         ho    257    ccc     H8   7235 0.51297200   1.008000   ; qtot 190.481988
 7236         h1    257    ccc     H9   7236 0.05653400   1.008000   ; qtot 190.538522
 7237         h1    257    ccc    H10   7237 0.05653400   1.008000   ; qtot 190.595056
 7238         oh    257    ccc     O5   7238 -0.84113600  16.000000   ; qtot 189.753920
 7239         ho    257    ccc    H11   7239 0.51201600   1.008000   ; qtot 190.265936
 7240         os    257    ccc     O6   7240 -0.26013600  16.000000   ; qtot 190.005800
; residue  258 ccc rtp ccc q 0.0
 7241         c3    258    ccc     C1   7241 -0.33178800  12.010000   ; qtot 189.674012
 7242         c3    258    ccc     C2   7242 0.30606500  12.010000   ; qtot 189.980077
 7243         h1    258    ccc     H1   7243 0.11662300   1.008000   ; qtot 190.096700
 7244         h1    258    ccc     H2   7244 0.11526800   1.008000   ; qtot 190.211968
 7245         c3    258    ccc     C3   7245 0.15592700  12.010000   ; qtot 190.367895
 7246         c3    258    ccc     C4   7246 0.28383300  12.010000   ; qtot 190.651728
 7247         c3    258    ccc     C5   7247 0.32403300  12.010000   ; qtot 190.975761
 7248         h1    258    ccc     H3   7248 0.13386900   1.008000   ; qtot 191.109630
 7249         h1    258    ccc     H4   7249 0.10146700   1.008000   ; qtot 191.211097
 7250         h2    258    ccc     H5   7250 0.10960400   1.008000   ; qtot 191.320701
 7251         os    258    ccc     O1   7251 -0.28650000  16.000000   ; qtot 191.034201
 7252         oh    258    ccc     O2   7252 -0.86012500  16.000000   ; qtot 190.174076
 7253         oh    258    ccc     O3   7253 -0.83772800  16.000000   ; qtot 189.336348
 7254         oh    258    ccc     O4   7254 -0.77449700  16.000000   ; qtot 188.561851
 7255         c3    258    ccc     C6   7255 0.37576500  12.010000   ; qtot 188.937616
 7256         ho    258    ccc     H6   7256 0.53656000   1.008000   ; qtot 189.474176
 7257         ho    258    ccc     H7   7257 0.49492100   1.008000   ; qtot 189.969097
 7258         ho    258    ccc     H8   7258 0.51297200   1.008000   ; qtot 190.482069
 7259         h1    258    ccc     H9   7259 0.05653400   1.008000   ; qtot 190.538603
 7260         h1    258    ccc    H10   7260 0.05653400   1.008000   ; qtot 190.595137
 7261         oh    258    ccc     O5   7261 -0.84113600  16.000000   ; qtot 189.754001
 7262         ho    258    ccc    H11   7262 0.51201600   1.008000   ; qtot 190.266017
 7263         os    258    ccc     O6   7263 -0.26013600  16.000000   ; qtot 190.005881
; residue  259 ccc rtp ccc q 0.0
 7264         c3    259    ccc     C1   7264 -0.33178800  12.010000   ; qtot 189.674093
 7265         c3    259    ccc     C2   7265 0.30606500  12.010000   ; qtot 189.980158
 7266         h1    259    ccc     H1   7266 0.11662300   1.008000   ; qtot 190.096781
 7267         h1    259    ccc     H2   7267 0.11526800   1.008000   ; qtot 190.212049
 7268         c3    259    ccc     C3   7268 0.15592700  12.010000   ; qtot 190.367976
 7269         c3    259    ccc     C4   7269 0.28383300  12.010000   ; qtot 190.651809
 7270         c3    259    ccc     C5   7270 0.32403300  12.010000   ; qtot 190.975842
 7271         h1    259    ccc     H3   7271 0.13386900   1.008000   ; qtot 191.109711
 7272         h1    259    ccc     H4   7272 0.10146700   1.008000   ; qtot 191.211178
 7273         h2    259    ccc     H5   7273 0.10960400   1.008000   ; qtot 191.320782
 7274         os    259    ccc     O1   7274 -0.28650000  16.000000   ; qtot 191.034282
 7275         oh    259    ccc     O2   7275 -0.86012500  16.000000   ; qtot 190.174157
 7276         oh    259    ccc     O3   7276 -0.83772800  16.000000   ; qtot 189.336429
 7277         oh    259    ccc     O4   7277 -0.77449700  16.000000   ; qtot 188.561932
 7278         c3    259    ccc     C6   7278 0.37576500  12.010000   ; qtot 188.937697
 7279         ho    259    ccc     H6   7279 0.53656000   1.008000   ; qtot 189.474257
 7280         ho    259    ccc     H7   7280 0.49492100   1.008000   ; qtot 189.969178
 7281         ho    259    ccc     H8   7281 0.51297200   1.008000   ; qtot 190.482150
 7282         h1    259    ccc     H9   7282 0.05653400   1.008000   ; qtot 190.538684
 7283         h1    259    ccc    H10   7283 0.05653400   1.008000   ; qtot 190.595218
 7284         oh    259    ccc     O5   7284 -0.84113600  16.000000   ; qtot 189.754082
 7285         ho    259    ccc    H11   7285 0.51201600   1.008000   ; qtot 190.266098
 7286         os    259    ccc     O6   7286 -0.26013600  16.000000   ; qtot 190.005962
; residue  260 ccc rtp ccc q 0.0
 7287         c3    260    ccc     C1   7287 -0.33178800  12.010000   ; qtot 189.674174
 7288         c3    260    ccc     C2   7288 0.30606500  12.010000   ; qtot 189.980239
 7289         h1    260    ccc     H1   7289 0.11662300   1.008000   ; qtot 190.096862
 7290         h1    260    ccc     H2   7290 0.11526800   1.008000   ; qtot 190.212130
 7291         c3    260    ccc     C3   7291 0.15592700  12.010000   ; qtot 190.368057
 7292         c3    260    ccc     C4   7292 0.28383300  12.010000   ; qtot 190.651890
 7293         c3    260    ccc     C5   7293 0.32403300  12.010000   ; qtot 190.975923
 7294         h1    260    ccc     H3   7294 0.13386900   1.008000   ; qtot 191.109792
 7295         h1    260    ccc     H4   7295 0.10146700   1.008000   ; qtot 191.211259
 7296         h2    260    ccc     H5   7296 0.10960400   1.008000   ; qtot 191.320863
 7297         os    260    ccc     O1   7297 -0.28650000  16.000000   ; qtot 191.034363
 7298         oh    260    ccc     O2   7298 -0.86012500  16.000000   ; qtot 190.174238
 7299         oh    260    ccc     O3   7299 -0.83772800  16.000000   ; qtot 189.336510
 7300         oh    260    ccc     O4   7300 -0.77449700  16.000000   ; qtot 188.562013
 7301         c3    260    ccc     C6   7301 0.37576500  12.010000   ; qtot 188.937778
 7302         ho    260    ccc     H6   7302 0.53656000   1.008000   ; qtot 189.474338
 7303         ho    260    ccc     H7   7303 0.49492100   1.008000   ; qtot 189.969259
 7304         ho    260    ccc     H8   7304 0.51297200   1.008000   ; qtot 190.482231
 7305         h1    260    ccc     H9   7305 0.05653400   1.008000   ; qtot 190.538765
 7306         h1    260    ccc    H10   7306 0.05653400   1.008000   ; qtot 190.595299
 7307         oh    260    ccc     O5   7307 -0.84113600  16.000000   ; qtot 189.754163
 7308         ho    260    ccc    H11   7308 0.51201600   1.008000   ; qtot 190.266179
 7309         os    260    ccc     O6   7309 -0.26013600  16.000000   ; qtot 190.006043
; residue  261 ccc rtp ccc q 0.0
 7310         c3    261    ccc     C1   7310 -0.33178800  12.010000   ; qtot 189.674255
 7311         c3    261    ccc     C2   7311 0.30606500  12.010000   ; qtot 189.980320
 7312         h1    261    ccc     H1   7312 0.11662300   1.008000   ; qtot 190.096943
 7313         h1    261    ccc     H2   7313 0.11526800   1.008000   ; qtot 190.212211
 7314         c3    261    ccc     C3   7314 0.15592700  12.010000   ; qtot 190.368138
 7315         c3    261    ccc     C4   7315 0.28383300  12.010000   ; qtot 190.651971
 7316         c3    261    ccc     C5   7316 0.32403300  12.010000   ; qtot 190.976004
 7317         h1    261    ccc     H3   7317 0.13386900   1.008000   ; qtot 191.109873
 7318         h1    261    ccc     H4   7318 0.10146700   1.008000   ; qtot 191.211340
 7319         h2    261    ccc     H5   7319 0.10960400   1.008000   ; qtot 191.320944
 7320         os    261    ccc     O1   7320 -0.28650000  16.000000   ; qtot 191.034444
 7321         oh    261    ccc     O2   7321 -0.86012500  16.000000   ; qtot 190.174319
 7322         oh    261    ccc     O3   7322 -0.83772800  16.000000   ; qtot 189.336591
 7323         oh    261    ccc     O4   7323 -0.77449700  16.000000   ; qtot 188.562094
 7324         c3    261    ccc     C6   7324 0.37576500  12.010000   ; qtot 188.937859
 7325         ho    261    ccc     H6   7325 0.53656000   1.008000   ; qtot 189.474419
 7326         ho    261    ccc     H7   7326 0.49492100   1.008000   ; qtot 189.969340
 7327         ho    261    ccc     H8   7327 0.51297200   1.008000   ; qtot 190.482312
 7328         h1    261    ccc     H9   7328 0.05653400   1.008000   ; qtot 190.538846
 7329         h1    261    ccc    H10   7329 0.05653400   1.008000   ; qtot 190.595380
 7330         oh    261    ccc     O5   7330 -0.84113600  16.000000   ; qtot 189.754244
 7331         ho    261    ccc    H11   7331 0.51201600   1.008000   ; qtot 190.266260
 7332         os    261    ccc     O6   7332 -0.26013600  16.000000   ; qtot 190.006124
; residue  262 ccc rtp ccc q 0.0
 7333         c3    262    ccc     C1   7333 -0.33178800  12.010000   ; qtot 189.674336
 7334         c3    262    ccc     C2   7334 0.30606500  12.010000   ; qtot 189.980401
 7335         h1    262    ccc     H1   7335 0.11662300   1.008000   ; qtot 190.097024
 7336         h1    262    ccc     H2   7336 0.11526800   1.008000   ; qtot 190.212292
 7337         c3    262    ccc     C3   7337 0.15592700  12.010000   ; qtot 190.368219
 7338         c3    262    ccc     C4   7338 0.28383300  12.010000   ; qtot 190.652052
 7339         c3    262    ccc     C5   7339 0.32403300  12.010000   ; qtot 190.976085
 7340         h1    262    ccc     H3   7340 0.13386900   1.008000   ; qtot 191.109954
 7341         h1    262    ccc     H4   7341 0.10146700   1.008000   ; qtot 191.211421
 7342         h2    262    ccc     H5   7342 0.10960400   1.008000   ; qtot 191.321025
 7343         os    262    ccc     O1   7343 -0.28650000  16.000000   ; qtot 191.034525
 7344         oh    262    ccc     O2   7344 -0.86012500  16.000000   ; qtot 190.174400
 7345         oh    262    ccc     O3   7345 -0.83772800  16.000000   ; qtot 189.336672
 7346         oh    262    ccc     O4   7346 -0.77449700  16.000000   ; qtot 188.562175
 7347         c3    262    ccc     C6   7347 0.37576500  12.010000   ; qtot 188.937940
 7348         ho    262    ccc     H6   7348 0.53656000   1.008000   ; qtot 189.474500
 7349         ho    262    ccc     H7   7349 0.49492100   1.008000   ; qtot 189.969421
 7350         ho    262    ccc     H8   7350 0.51297200   1.008000   ; qtot 190.482393
 7351         h1    262    ccc     H9   7351 0.05653400   1.008000   ; qtot 190.538927
 7352         h1    262    ccc    H10   7352 0.05653400   1.008000   ; qtot 190.595461
 7353         oh    262    ccc     O5   7353 -0.84113600  16.000000   ; qtot 189.754325
 7354         ho    262    ccc    H11   7354 0.51201600   1.008000   ; qtot 190.266341
 7355         os    262    ccc     O6   7355 -0.26013600  16.000000   ; qtot 190.006205
; residue  263 ccc rtp ccc q 0.0
 7356         c3    263    ccc     C1   7356 -0.33178800  12.010000   ; qtot 189.674417
 7357         c3    263    ccc     C2   7357 0.30606500  12.010000   ; qtot 189.980482
 7358         h1    263    ccc     H1   7358 0.11662300   1.008000   ; qtot 190.097105
 7359         h1    263    ccc     H2   7359 0.11526800   1.008000   ; qtot 190.212373
 7360         c3    263    ccc     C3   7360 0.15592700  12.010000   ; qtot 190.368300
 7361         c3    263    ccc     C4   7361 0.28383300  12.010000   ; qtot 190.652133
 7362         c3    263    ccc     C5   7362 0.32403300  12.010000   ; qtot 190.976166
 7363         h1    263    ccc     H3   7363 0.13386900   1.008000   ; qtot 191.110035
 7364         h1    263    ccc     H4   7364 0.10146700   1.008000   ; qtot 191.211502
 7365         h2    263    ccc     H5   7365 0.10960400   1.008000   ; qtot 191.321106
 7366         os    263    ccc     O1   7366 -0.28650000  16.000000   ; qtot 191.034606
 7367         oh    263    ccc     O2   7367 -0.86012500  16.000000   ; qtot 190.174481
 7368         oh    263    ccc     O3   7368 -0.83772800  16.000000   ; qtot 189.336753
 7369         oh    263    ccc     O4   7369 -0.77449700  16.000000   ; qtot 188.562256
 7370         c3    263    ccc     C6   7370 0.37576500  12.010000   ; qtot 188.938021
 7371         ho    263    ccc     H6   7371 0.53656000   1.008000   ; qtot 189.474581
 7372         ho    263    ccc     H7   7372 0.49492100   1.008000   ; qtot 189.969502
 7373         ho    263    ccc     H8   7373 0.51297200   1.008000   ; qtot 190.482474
 7374         h1    263    ccc     H9   7374 0.05653400   1.008000   ; qtot 190.539008
 7375         h1    263    ccc    H10   7375 0.05653400   1.008000   ; qtot 190.595542
 7376         oh    263    ccc     O5   7376 -0.84113600  16.000000   ; qtot 189.754406
 7377         ho    263    ccc    H11   7377 0.51201600   1.008000   ; qtot 190.266422
 7378         os    263    ccc     O6   7378 -0.26013600  16.000000   ; qtot 190.006286
; residue  264 ccc rtp ccc q 0.0
 7379         c3    264    ccc     C1   7379 -0.33178800  12.010000   ; qtot 189.674498
 7380         c3    264    ccc     C2   7380 0.30606500  12.010000   ; qtot 189.980563
 7381         h1    264    ccc     H1   7381 0.11662300   1.008000   ; qtot 190.097186
 7382         h1    264    ccc     H2   7382 0.11526800   1.008000   ; qtot 190.212454
 7383         c3    264    ccc     C3   7383 0.15592700  12.010000   ; qtot 190.368381
 7384         c3    264    ccc     C4   7384 0.28383300  12.010000   ; qtot 190.652214
 7385         c3    264    ccc     C5   7385 0.32403300  12.010000   ; qtot 190.976247
 7386         h1    264    ccc     H3   7386 0.13386900   1.008000   ; qtot 191.110116
 7387         h1    264    ccc     H4   7387 0.10146700   1.008000   ; qtot 191.211583
 7388         h2    264    ccc     H5   7388 0.10960400   1.008000   ; qtot 191.321187
 7389         os    264    ccc     O1   7389 -0.28650000  16.000000   ; qtot 191.034687
 7390         oh    264    ccc     O2   7390 -0.86012500  16.000000   ; qtot 190.174562
 7391         oh    264    ccc     O3   7391 -0.83772800  16.000000   ; qtot 189.336834
 7392         oh    264    ccc     O4   7392 -0.77449700  16.000000   ; qtot 188.562337
 7393         c3    264    ccc     C6   7393 0.37576500  12.010000   ; qtot 188.938102
 7394         ho    264    ccc     H6   7394 0.53656000   1.008000   ; qtot 189.474662
 7395         ho    264    ccc     H7   7395 0.49492100   1.008000   ; qtot 189.969583
 7396         ho    264    ccc     H8   7396 0.51297200   1.008000   ; qtot 190.482555
 7397         h1    264    ccc     H9   7397 0.05653400   1.008000   ; qtot 190.539089
 7398         h1    264    ccc    H10   7398 0.05653400   1.008000   ; qtot 190.595623
 7399         oh    264    ccc     O5   7399 -0.84113600  16.000000   ; qtot 189.754487
 7400         ho    264    ccc    H11   7400 0.51201600   1.008000   ; qtot 190.266503
 7401         os    264    ccc     O6   7401 -0.26013600  16.000000   ; qtot 190.006367
; residue  265 ccc rtp ccc q 0.0
 7402         c3    265    ccc     C1   7402 -0.33178800  12.010000   ; qtot 189.674579
 7403         c3    265    ccc     C2   7403 0.30606500  12.010000   ; qtot 189.980644
 7404         h1    265    ccc     H1   7404 0.11662300   1.008000   ; qtot 190.097267
 7405         h1    265    ccc     H2   7405 0.11526800   1.008000   ; qtot 190.212535
 7406         c3    265    ccc     C3   7406 0.15592700  12.010000   ; qtot 190.368462
 7407         c3    265    ccc     C4   7407 0.28383300  12.010000   ; qtot 190.652295
 7408         c3    265    ccc     C5   7408 0.32403300  12.010000   ; qtot 190.976328
 7409         h1    265    ccc     H3   7409 0.13386900   1.008000   ; qtot 191.110197
 7410         h1    265    ccc     H4   7410 0.10146700   1.008000   ; qtot 191.211664
 7411         h2    265    ccc     H5   7411 0.10960400   1.008000   ; qtot 191.321268
 7412         os    265    ccc     O1   7412 -0.28650000  16.000000   ; qtot 191.034768
 7413         oh    265    ccc     O2   7413 -0.86012500  16.000000   ; qtot 190.174643
 7414         oh    265    ccc     O3   7414 -0.83772800  16.000000   ; qtot 189.336915
 7415         oh    265    ccc     O4   7415 -0.77449700  16.000000   ; qtot 188.562418
 7416         c3    265    ccc     C6   7416 0.37576500  12.010000   ; qtot 188.938183
 7417         ho    265    ccc     H6   7417 0.53656000   1.008000   ; qtot 189.474743
 7418         ho    265    ccc     H7   7418 0.49492100   1.008000   ; qtot 189.969664
 7419         ho    265    ccc     H8   7419 0.51297200   1.008000   ; qtot 190.482636
 7420         h1    265    ccc     H9   7420 0.05653400   1.008000   ; qtot 190.539170
 7421         h1    265    ccc    H10   7421 0.05653400   1.008000   ; qtot 190.595704
 7422         oh    265    ccc     O5   7422 -0.84113600  16.000000   ; qtot 189.754568
 7423         ho    265    ccc    H11   7423 0.51201600   1.008000   ; qtot 190.266584
 7424         os    265    ccc     O6   7424 -0.26013600  16.000000   ; qtot 190.006448
; residue  266 ccc rtp ccc q 0.0
 7425         c3    266    ccc     C1   7425 -0.33178800  12.010000   ; qtot 189.674660
 7426         c3    266    ccc     C2   7426 0.30606500  12.010000   ; qtot 189.980725
 7427         h1    266    ccc     H1   7427 0.11662300   1.008000   ; qtot 190.097348
 7428         h1    266    ccc     H2   7428 0.11526800   1.008000   ; qtot 190.212616
 7429         c3    266    ccc     C3   7429 0.15592700  12.010000   ; qtot 190.368543
 7430         c3    266    ccc     C4   7430 0.28383300  12.010000   ; qtot 190.652376
 7431         c3    266    ccc     C5   7431 0.32403300  12.010000   ; qtot 190.976409
 7432         h1    266    ccc     H3   7432 0.13386900   1.008000   ; qtot 191.110278
 7433         h1    266    ccc     H4   7433 0.10146700   1.008000   ; qtot 191.211745
 7434         h2    266    ccc     H5   7434 0.10960400   1.008000   ; qtot 191.321349
 7435         os    266    ccc     O1   7435 -0.28650000  16.000000   ; qtot 191.034849
 7436         oh    266    ccc     O2   7436 -0.86012500  16.000000   ; qtot 190.174724
 7437         oh    266    ccc     O3   7437 -0.83772800  16.000000   ; qtot 189.336996
 7438         oh    266    ccc     O4   7438 -0.77449700  16.000000   ; qtot 188.562499
 7439         c3    266    ccc     C6   7439 0.37576500  12.010000   ; qtot 188.938264
 7440         ho    266    ccc     H6   7440 0.53656000   1.008000   ; qtot 189.474824
 7441         ho    266    ccc     H7   7441 0.49492100   1.008000   ; qtot 189.969745
 7442         ho    266    ccc     H8   7442 0.51297200   1.008000   ; qtot 190.482717
 7443         h1    266    ccc     H9   7443 0.05653400   1.008000   ; qtot 190.539251
 7444         h1    266    ccc    H10   7444 0.05653400   1.008000   ; qtot 190.595785
 7445         oh    266    ccc     O5   7445 -0.84113600  16.000000   ; qtot 189.754649
 7446         ho    266    ccc    H11   7446 0.51201600   1.008000   ; qtot 190.266665
 7447         os    266    ccc     O6   7447 -0.26013600  16.000000   ; qtot 190.006529
; residue  267 ccc rtp ccc q 0.0
 7448         c3    267    ccc     C1   7448 -0.33178800  12.010000   ; qtot 189.674741
 7449         c3    267    ccc     C2   7449 0.30606500  12.010000   ; qtot 189.980806
 7450         h1    267    ccc     H1   7450 0.11662300   1.008000   ; qtot 190.097429
 7451         h1    267    ccc     H2   7451 0.11526800   1.008000   ; qtot 190.212697
 7452         c3    267    ccc     C3   7452 0.15592700  12.010000   ; qtot 190.368624
 7453         c3    267    ccc     C4   7453 0.28383300  12.010000   ; qtot 190.652457
 7454         c3    267    ccc     C5   7454 0.32403300  12.010000   ; qtot 190.976490
 7455         h1    267    ccc     H3   7455 0.13386900   1.008000   ; qtot 191.110359
 7456         h1    267    ccc     H4   7456 0.10146700   1.008000   ; qtot 191.211826
 7457         h2    267    ccc     H5   7457 0.10960400   1.008000   ; qtot 191.321430
 7458         os    267    ccc     O1   7458 -0.28650000  16.000000   ; qtot 191.034930
 7459         oh    267    ccc     O2   7459 -0.86012500  16.000000   ; qtot 190.174805
 7460         oh    267    ccc     O3   7460 -0.83772800  16.000000   ; qtot 189.337077
 7461         oh    267    ccc     O4   7461 -0.77449700  16.000000   ; qtot 188.562580
 7462         c3    267    ccc     C6   7462 0.37576500  12.010000   ; qtot 188.938345
 7463         ho    267    ccc     H6   7463 0.53656000   1.008000   ; qtot 189.474905
 7464         ho    267    ccc     H7   7464 0.49492100   1.008000   ; qtot 189.969826
 7465         ho    267    ccc     H8   7465 0.51297200   1.008000   ; qtot 190.482798
 7466         h1    267    ccc     H9   7466 0.05653400   1.008000   ; qtot 190.539332
 7467         h1    267    ccc    H10   7467 0.05653400   1.008000   ; qtot 190.595866
 7468         oh    267    ccc     O5   7468 -0.84113600  16.000000   ; qtot 189.754730
 7469         ho    267    ccc    H11   7469 0.51201600   1.008000   ; qtot 190.266746
 7470         os    267    ccc     O6   7470 -0.26013600  16.000000   ; qtot 190.006610
; residue  268 ccc rtp ccc q 0.0
 7471         c3    268    ccc     C1   7471 -0.33178800  12.010000   ; qtot 189.674822
 7472         c3    268    ccc     C2   7472 0.30606500  12.010000   ; qtot 189.980887
 7473         h1    268    ccc     H1   7473 0.11662300   1.008000   ; qtot 190.097510
 7474         h1    268    ccc     H2   7474 0.11526800   1.008000   ; qtot 190.212778
 7475         c3    268    ccc     C3   7475 0.15592700  12.010000   ; qtot 190.368705
 7476         c3    268    ccc     C4   7476 0.28383300  12.010000   ; qtot 190.652538
 7477         c3    268    ccc     C5   7477 0.32403300  12.010000   ; qtot 190.976571
 7478         h1    268    ccc     H3   7478 0.13386900   1.008000   ; qtot 191.110440
 7479         h1    268    ccc     H4   7479 0.10146700   1.008000   ; qtot 191.211907
 7480         h2    268    ccc     H5   7480 0.10960400   1.008000   ; qtot 191.321511
 7481         os    268    ccc     O1   7481 -0.28650000  16.000000   ; qtot 191.035011
 7482         oh    268    ccc     O2   7482 -0.86012500  16.000000   ; qtot 190.174886
 7483         oh    268    ccc     O3   7483 -0.83772800  16.000000   ; qtot 189.337158
 7484         oh    268    ccc     O4   7484 -0.77449700  16.000000   ; qtot 188.562661
 7485         c3    268    ccc     C6   7485 0.37576500  12.010000   ; qtot 188.938426
 7486         ho    268    ccc     H6   7486 0.53656000   1.008000   ; qtot 189.474986
 7487         ho    268    ccc     H7   7487 0.49492100   1.008000   ; qtot 189.969907
 7488         ho    268    ccc     H8   7488 0.51297200   1.008000   ; qtot 190.482879
 7489         h1    268    ccc     H9   7489 0.05653400   1.008000   ; qtot 190.539413
 7490         h1    268    ccc    H10   7490 0.05653400   1.008000   ; qtot 190.595947
 7491         oh    268    ccc     O5   7491 -0.84113600  16.000000   ; qtot 189.754811
 7492         ho    268    ccc    H11   7492 0.51201600   1.008000   ; qtot 190.266827
 7493         os    268    ccc     O6   7493 -0.26013600  16.000000   ; qtot 190.006691
; residue  269 ccc rtp ccc q 0.0
 7494         c3    269    ccc     C1   7494 -0.33178800  12.010000   ; qtot 189.674903
 7495         c3    269    ccc     C2   7495 0.30606500  12.010000   ; qtot 189.980968
 7496         h1    269    ccc     H1   7496 0.11662300   1.008000   ; qtot 190.097591
 7497         h1    269    ccc     H2   7497 0.11526800   1.008000   ; qtot 190.212859
 7498         c3    269    ccc     C3   7498 0.15592700  12.010000   ; qtot 190.368786
 7499         c3    269    ccc     C4   7499 0.28383300  12.010000   ; qtot 190.652619
 7500         c3    269    ccc     C5   7500 0.32403300  12.010000   ; qtot 190.976652
 7501         h1    269    ccc     H3   7501 0.13386900   1.008000   ; qtot 191.110521
 7502         h1    269    ccc     H4   7502 0.10146700   1.008000   ; qtot 191.211988
 7503         h2    269    ccc     H5   7503 0.10960400   1.008000   ; qtot 191.321592
 7504         os    269    ccc     O1   7504 -0.28650000  16.000000   ; qtot 191.035092
 7505         oh    269    ccc     O2   7505 -0.86012500  16.000000   ; qtot 190.174967
 7506         oh    269    ccc     O3   7506 -0.83772800  16.000000   ; qtot 189.337239
 7507         oh    269    ccc     O4   7507 -0.77449700  16.000000   ; qtot 188.562742
 7508         c3    269    ccc     C6   7508 0.37576500  12.010000   ; qtot 188.938507
 7509         ho    269    ccc     H6   7509 0.53656000   1.008000   ; qtot 189.475067
 7510         ho    269    ccc     H7   7510 0.49492100   1.008000   ; qtot 189.969988
 7511         ho    269    ccc     H8   7511 0.51297200   1.008000   ; qtot 190.482960
 7512         h1    269    ccc     H9   7512 0.05653400   1.008000   ; qtot 190.539494
 7513         h1    269    ccc    H10   7513 0.05653400   1.008000   ; qtot 190.596028
 7514         oh    269    ccc     O5   7514 -0.84113600  16.000000   ; qtot 189.754892
 7515         ho    269    ccc    H11   7515 0.51201600   1.008000   ; qtot 190.266908
 7516         os    269    ccc     O6   7516 -0.26013600  16.000000   ; qtot 190.006772
; residue  270 ccc rtp ccc q 0.0
 7517         c3    270    ccc     C1   7517 -0.33178800  12.010000   ; qtot 189.674984
 7518         c3    270    ccc     C2   7518 0.30606500  12.010000   ; qtot 189.981049
 7519         h1    270    ccc     H1   7519 0.11662300   1.008000   ; qtot 190.097672
 7520         h1    270    ccc     H2   7520 0.11526800   1.008000   ; qtot 190.212940
 7521         c3    270    ccc     C3   7521 0.15592700  12.010000   ; qtot 190.368867
 7522         c3    270    ccc     C4   7522 0.28383300  12.010000   ; qtot 190.652700
 7523         c3    270    ccc     C5   7523 0.32403300  12.010000   ; qtot 190.976733
 7524         h1    270    ccc     H3   7524 0.13386900   1.008000   ; qtot 191.110602
 7525         h1    270    ccc     H4   7525 0.10146700   1.008000   ; qtot 191.212069
 7526         h2    270    ccc     H5   7526 0.10960400   1.008000   ; qtot 191.321673
 7527         os    270    ccc     O1   7527 -0.28650000  16.000000   ; qtot 191.035173
 7528         oh    270    ccc     O2   7528 -0.86012500  16.000000   ; qtot 190.175048
 7529         oh    270    ccc     O3   7529 -0.83772800  16.000000   ; qtot 189.337320
 7530         oh    270    ccc     O4   7530 -0.77449700  16.000000   ; qtot 188.562823
 7531         c3    270    ccc     C6   7531 0.37576500  12.010000   ; qtot 188.938588
 7532         ho    270    ccc     H6   7532 0.53656000   1.008000   ; qtot 189.475148
 7533         ho    270    ccc     H7   7533 0.49492100   1.008000   ; qtot 189.970069
 7534         ho    270    ccc     H8   7534 0.51297200   1.008000   ; qtot 190.483041
 7535         h1    270    ccc     H9   7535 0.05653400   1.008000   ; qtot 190.539575
 7536         h1    270    ccc    H10   7536 0.05653400   1.008000   ; qtot 190.596109
 7537         oh    270    ccc     O5   7537 -0.84113600  16.000000   ; qtot 189.754973
 7538         ho    270    ccc    H11   7538 0.51201600   1.008000   ; qtot 190.266989
 7539         os    270    ccc     O6   7539 -0.26013600  16.000000   ; qtot 190.006853
; residue  271 ccc rtp ccc q 0.0
 7540         c3    271    ccc     C1   7540 -0.33178800  12.010000   ; qtot 189.675065
 7541         c3    271    ccc     C2   7541 0.30606500  12.010000   ; qtot 189.981130
 7542         h1    271    ccc     H1   7542 0.11662300   1.008000   ; qtot 190.097753
 7543         h1    271    ccc     H2   7543 0.11526800   1.008000   ; qtot 190.213021
 7544         c3    271    ccc     C3   7544 0.15592700  12.010000   ; qtot 190.368948
 7545         c3    271    ccc     C4   7545 0.28383300  12.010000   ; qtot 190.652781
 7546         c3    271    ccc     C5   7546 0.32403300  12.010000   ; qtot 190.976814
 7547         h1    271    ccc     H3   7547 0.13386900   1.008000   ; qtot 191.110683
 7548         h1    271    ccc     H4   7548 0.10146700   1.008000   ; qtot 191.212150
 7549         h2    271    ccc     H5   7549 0.10960400   1.008000   ; qtot 191.321754
 7550         os    271    ccc     O1   7550 -0.28650000  16.000000   ; qtot 191.035254
 7551         oh    271    ccc     O2   7551 -0.86012500  16.000000   ; qtot 190.175129
 7552         oh    271    ccc     O3   7552 -0.83772800  16.000000   ; qtot 189.337401
 7553         oh    271    ccc     O4   7553 -0.77449700  16.000000   ; qtot 188.562904
 7554         c3    271    ccc     C6   7554 0.37576500  12.010000   ; qtot 188.938669
 7555         ho    271    ccc     H6   7555 0.53656000   1.008000   ; qtot 189.475229
 7556         ho    271    ccc     H7   7556 0.49492100   1.008000   ; qtot 189.970150
 7557         ho    271    ccc     H8   7557 0.51297200   1.008000   ; qtot 190.483122
 7558         h1    271    ccc     H9   7558 0.05653400   1.008000   ; qtot 190.539656
 7559         h1    271    ccc    H10   7559 0.05653400   1.008000   ; qtot 190.596190
 7560         oh    271    ccc     O5   7560 -0.84113600  16.000000   ; qtot 189.755054
 7561         ho    271    ccc    H11   7561 0.51201600   1.008000   ; qtot 190.267070
 7562         os    271    ccc     O6   7562 -0.26013600  16.000000   ; qtot 190.006934
; residue  272 ccc rtp ccc q 0.0
 7563         c3    272    ccc     C1   7563 -0.33178800  12.010000   ; qtot 189.675146
 7564         c3    272    ccc     C2   7564 0.30606500  12.010000   ; qtot 189.981211
 7565         h1    272    ccc     H1   7565 0.11662300   1.008000   ; qtot 190.097834
 7566         h1    272    ccc     H2   7566 0.11526800   1.008000   ; qtot 190.213102
 7567         c3    272    ccc     C3   7567 0.15592700  12.010000   ; qtot 190.369029
 7568         c3    272    ccc     C4   7568 0.28383300  12.010000   ; qtot 190.652862
 7569         c3    272    ccc     C5   7569 0.32403300  12.010000   ; qtot 190.976895
 7570         h1    272    ccc     H3   7570 0.13386900   1.008000   ; qtot 191.110764
 7571         h1    272    ccc     H4   7571 0.10146700   1.008000   ; qtot 191.212231
 7572         h2    272    ccc     H5   7572 0.10960400   1.008000   ; qtot 191.321835
 7573         os    272    ccc     O1   7573 -0.28650000  16.000000   ; qtot 191.035335
 7574         oh    272    ccc     O2   7574 -0.86012500  16.000000   ; qtot 190.175210
 7575         oh    272    ccc     O3   7575 -0.83772800  16.000000   ; qtot 189.337482
 7576         oh    272    ccc     O4   7576 -0.77449700  16.000000   ; qtot 188.562985
 7577         c3    272    ccc     C6   7577 0.37576500  12.010000   ; qtot 188.938750
 7578         ho    272    ccc     H6   7578 0.53656000   1.008000   ; qtot 189.475310
 7579         ho    272    ccc     H7   7579 0.49492100   1.008000   ; qtot 189.970231
 7580         ho    272    ccc     H8   7580 0.51297200   1.008000   ; qtot 190.483203
 7581         h1    272    ccc     H9   7581 0.05653400   1.008000   ; qtot 190.539737
 7582         h1    272    ccc    H10   7582 0.05653400   1.008000   ; qtot 190.596271
 7583         oh    272    ccc     O5   7583 -0.84113600  16.000000   ; qtot 189.755135
 7584         ho    272    ccc    H11   7584 0.51201600   1.008000   ; qtot 190.267151
 7585         os    272    ccc     O6   7585 -0.26013600  16.000000   ; qtot 190.007015
; residue  273 ccc rtp ccc q 0.0
 7586         c3    273    ccc     C1   7586 -0.33178800  12.010000   ; qtot 189.675227
 7587         c3    273    ccc     C2   7587 0.30606500  12.010000   ; qtot 189.981292
 7588         h1    273    ccc     H1   7588 0.11662300   1.008000   ; qtot 190.097915
 7589         h1    273    ccc     H2   7589 0.11526800   1.008000   ; qtot 190.213183
 7590         c3    273    ccc     C3   7590 0.15592700  12.010000   ; qtot 190.369110
 7591         c3    273    ccc     C4   7591 0.28383300  12.010000   ; qtot 190.652943
 7592         c3    273    ccc     C5   7592 0.32403300  12.010000   ; qtot 190.976976
 7593         h1    273    ccc     H3   7593 0.13386900   1.008000   ; qtot 191.110845
 7594         h1    273    ccc     H4   7594 0.10146700   1.008000   ; qtot 191.212312
 7595         h2    273    ccc     H5   7595 0.10960400   1.008000   ; qtot 191.321916
 7596         os    273    ccc     O1   7596 -0.28650000  16.000000   ; qtot 191.035416
 7597         oh    273    ccc     O2   7597 -0.86012500  16.000000   ; qtot 190.175291
 7598         oh    273    ccc     O3   7598 -0.83772800  16.000000   ; qtot 189.337563
 7599         oh    273    ccc     O4   7599 -0.77449700  16.000000   ; qtot 188.563066
 7600         c3    273    ccc     C6   7600 0.37576500  12.010000   ; qtot 188.938831
 7601         ho    273    ccc     H6   7601 0.53656000   1.008000   ; qtot 189.475391
 7602         ho    273    ccc     H7   7602 0.49492100   1.008000   ; qtot 189.970312
 7603         ho    273    ccc     H8   7603 0.51297200   1.008000   ; qtot 190.483284
 7604         h1    273    ccc     H9   7604 0.05653400   1.008000   ; qtot 190.539818
 7605         h1    273    ccc    H10   7605 0.05653400   1.008000   ; qtot 190.596352
 7606         oh    273    ccc     O5   7606 -0.84113600  16.000000   ; qtot 189.755216
 7607         ho    273    ccc    H11   7607 0.51201600   1.008000   ; qtot 190.267232
 7608         os    273    ccc     O6   7608 -0.26013600  16.000000   ; qtot 190.007096
; residue  274 ccc rtp ccc q 0.0
 7609         c3    274    ccc     C1   7609 -0.33178800  12.010000   ; qtot 189.675308
 7610         c3    274    ccc     C2   7610 0.30606500  12.010000   ; qtot 189.981373
 7611         h1    274    ccc     H1   7611 0.11662300   1.008000   ; qtot 190.097996
 7612         h1    274    ccc     H2   7612 0.11526800   1.008000   ; qtot 190.213264
 7613         c3    274    ccc     C3   7613 0.15592700  12.010000   ; qtot 190.369191
 7614         c3    274    ccc     C4   7614 0.28383300  12.010000   ; qtot 190.653024
 7615         c3    274    ccc     C5   7615 0.32403300  12.010000   ; qtot 190.977057
 7616         h1    274    ccc     H3   7616 0.13386900   1.008000   ; qtot 191.110926
 7617         h1    274    ccc     H4   7617 0.10146700   1.008000   ; qtot 191.212393
 7618         h2    274    ccc     H5   7618 0.10960400   1.008000   ; qtot 191.321997
 7619         os    274    ccc     O1   7619 -0.28650000  16.000000   ; qtot 191.035497
 7620         oh    274    ccc     O2   7620 -0.86012500  16.000000   ; qtot 190.175372
 7621         oh    274    ccc     O3   7621 -0.83772800  16.000000   ; qtot 189.337644
 7622         oh    274    ccc     O4   7622 -0.77449700  16.000000   ; qtot 188.563147
 7623         c3    274    ccc     C6   7623 0.37576500  12.010000   ; qtot 188.938912
 7624         ho    274    ccc     H6   7624 0.53656000   1.008000   ; qtot 189.475472
 7625         ho    274    ccc     H7   7625 0.49492100   1.008000   ; qtot 189.970393
 7626         ho    274    ccc     H8   7626 0.51297200   1.008000   ; qtot 190.483365
 7627         h1    274    ccc     H9   7627 0.05653400   1.008000   ; qtot 190.539899
 7628         h1    274    ccc    H10   7628 0.05653400   1.008000   ; qtot 190.596433
 7629         oh    274    ccc     O5   7629 -0.84113600  16.000000   ; qtot 189.755297
 7630         ho    274    ccc    H11   7630 0.51201600   1.008000   ; qtot 190.267313
 7631         os    274    ccc     O6   7631 -0.26013600  16.000000   ; qtot 190.007177
; residue  275 ccc rtp ccc q 0.0
 7632         c3    275    ccc     C1   7632 -0.33178800  12.010000   ; qtot 189.675389
 7633         c3    275    ccc     C2   7633 0.30606500  12.010000   ; qtot 189.981454
 7634         h1    275    ccc     H1   7634 0.11662300   1.008000   ; qtot 190.098077
 7635         h1    275    ccc     H2   7635 0.11526800   1.008000   ; qtot 190.213345
 7636         c3    275    ccc     C3   7636 0.15592700  12.010000   ; qtot 190.369272
 7637         c3    275    ccc     C4   7637 0.28383300  12.010000   ; qtot 190.653105
 7638         c3    275    ccc     C5   7638 0.32403300  12.010000   ; qtot 190.977138
 7639         h1    275    ccc     H3   7639 0.13386900   1.008000   ; qtot 191.111007
 7640         h1    275    ccc     H4   7640 0.10146700   1.008000   ; qtot 191.212474
 7641         h2    275    ccc     H5   7641 0.10960400   1.008000   ; qtot 191.322078
 7642         os    275    ccc     O1   7642 -0.28650000  16.000000   ; qtot 191.035578
 7643         oh    275    ccc     O2   7643 -0.86012500  16.000000   ; qtot 190.175453
 7644         oh    275    ccc     O3   7644 -0.83772800  16.000000   ; qtot 189.337725
 7645         oh    275    ccc     O4   7645 -0.77449700  16.000000   ; qtot 188.563228
 7646         c3    275    ccc     C6   7646 0.37576500  12.010000   ; qtot 188.938993
 7647         ho    275    ccc     H6   7647 0.53656000   1.008000   ; qtot 189.475553
 7648         ho    275    ccc     H7   7648 0.49492100   1.008000   ; qtot 189.970474
 7649         ho    275    ccc     H8   7649 0.51297200   1.008000   ; qtot 190.483446
 7650         h1    275    ccc     H9   7650 0.05653400   1.008000   ; qtot 190.539980
 7651         h1    275    ccc    H10   7651 0.05653400   1.008000   ; qtot 190.596514
 7652         oh    275    ccc     O5   7652 -0.84113600  16.000000   ; qtot 189.755378
 7653         ho    275    ccc    H11   7653 0.51201600   1.008000   ; qtot 190.267394
 7654         os    275    ccc     O6   7654 -0.26013600  16.000000   ; qtot 190.007258
; residue  276 ccc rtp ccc q 0.0
 7655         c3    276    ccc     C1   7655 -0.33178800  12.010000   ; qtot 189.675470
 7656         c3    276    ccc     C2   7656 0.30606500  12.010000   ; qtot 189.981535
 7657         h1    276    ccc     H1   7657 0.11662300   1.008000   ; qtot 190.098158
 7658         h1    276    ccc     H2   7658 0.11526800   1.008000   ; qtot 190.213426
 7659         c3    276    ccc     C3   7659 0.15592700  12.010000   ; qtot 190.369353
 7660         c3    276    ccc     C4   7660 0.28383300  12.010000   ; qtot 190.653186
 7661         c3    276    ccc     C5   7661 0.32403300  12.010000   ; qtot 190.977219
 7662         h1    276    ccc     H3   7662 0.13386900   1.008000   ; qtot 191.111088
 7663         h1    276    ccc     H4   7663 0.10146700   1.008000   ; qtot 191.212555
 7664         h2    276    ccc     H5   7664 0.10960400   1.008000   ; qtot 191.322159
 7665         os    276    ccc     O1   7665 -0.28650000  16.000000   ; qtot 191.035659
 7666         oh    276    ccc     O2   7666 -0.86012500  16.000000   ; qtot 190.175534
 7667         oh    276    ccc     O3   7667 -0.83772800  16.000000   ; qtot 189.337806
 7668         oh    276    ccc     O4   7668 -0.77449700  16.000000   ; qtot 188.563309
 7669         c3    276    ccc     C6   7669 0.37576500  12.010000   ; qtot 188.939074
 7670         ho    276    ccc     H6   7670 0.53656000   1.008000   ; qtot 189.475634
 7671         ho    276    ccc     H7   7671 0.49492100   1.008000   ; qtot 189.970555
 7672         ho    276    ccc     H8   7672 0.51297200   1.008000   ; qtot 190.483527
 7673         h1    276    ccc     H9   7673 0.05653400   1.008000   ; qtot 190.540061
 7674         h1    276    ccc    H10   7674 0.05653400   1.008000   ; qtot 190.596595
 7675         oh    276    ccc     O5   7675 -0.84113600  16.000000   ; qtot 189.755459
 7676         ho    276    ccc    H11   7676 0.51201600   1.008000   ; qtot 190.267475
 7677         os    276    ccc     O6   7677 -0.26013600  16.000000   ; qtot 190.007339
; residue  277 ccc rtp ccc q 0.0
 7678         c3    277    ccc     C1   7678 -0.33178800  12.010000   ; qtot 189.675551
 7679         c3    277    ccc     C2   7679 0.30606500  12.010000   ; qtot 189.981616
 7680         h1    277    ccc     H1   7680 0.11662300   1.008000   ; qtot 190.098239
 7681         h1    277    ccc     H2   7681 0.11526800   1.008000   ; qtot 190.213507
 7682         c3    277    ccc     C3   7682 0.15592700  12.010000   ; qtot 190.369434
 7683         c3    277    ccc     C4   7683 0.28383300  12.010000   ; qtot 190.653267
 7684         c3    277    ccc     C5   7684 0.32403300  12.010000   ; qtot 190.977300
 7685         h1    277    ccc     H3   7685 0.13386900   1.008000   ; qtot 191.111169
 7686         h1    277    ccc     H4   7686 0.10146700   1.008000   ; qtot 191.212636
 7687         h2    277    ccc     H5   7687 0.10960400   1.008000   ; qtot 191.322240
 7688         os    277    ccc     O1   7688 -0.28650000  16.000000   ; qtot 191.035740
 7689         oh    277    ccc     O2   7689 -0.86012500  16.000000   ; qtot 190.175615
 7690         oh    277    ccc     O3   7690 -0.83772800  16.000000   ; qtot 189.337887
 7691         oh    277    ccc     O4   7691 -0.77449700  16.000000   ; qtot 188.563390
 7692         c3    277    ccc     C6   7692 0.37576500  12.010000   ; qtot 188.939155
 7693         ho    277    ccc     H6   7693 0.53656000   1.008000   ; qtot 189.475715
 7694         ho    277    ccc     H7   7694 0.49492100   1.008000   ; qtot 189.970636
 7695         ho    277    ccc     H8   7695 0.51297200   1.008000   ; qtot 190.483608
 7696         h1    277    ccc     H9   7696 0.05653400   1.008000   ; qtot 190.540142
 7697         h1    277    ccc    H10   7697 0.05653400   1.008000   ; qtot 190.596676
 7698         oh    277    ccc     O5   7698 -0.84113600  16.000000   ; qtot 189.755540
 7699         ho    277    ccc    H11   7699 0.51201600   1.008000   ; qtot 190.267556
 7700         os    277    ccc     O6   7700 -0.26013600  16.000000   ; qtot 190.007420
; residue  278 ccc rtp ccc q 0.0
 7701         c3    278    ccc     C1   7701 -0.33178800  12.010000   ; qtot 189.675632
 7702         c3    278    ccc     C2   7702 0.30606500  12.010000   ; qtot 189.981697
 7703         h1    278    ccc     H1   7703 0.11662300   1.008000   ; qtot 190.098320
 7704         h1    278    ccc     H2   7704 0.11526800   1.008000   ; qtot 190.213588
 7705         c3    278    ccc     C3   7705 0.15592700  12.010000   ; qtot 190.369515
 7706         c3    278    ccc     C4   7706 0.28383300  12.010000   ; qtot 190.653348
 7707         c3    278    ccc     C5   7707 0.32403300  12.010000   ; qtot 190.977381
 7708         h1    278    ccc     H3   7708 0.13386900   1.008000   ; qtot 191.111250
 7709         h1    278    ccc     H4   7709 0.10146700   1.008000   ; qtot 191.212717
 7710         h2    278    ccc     H5   7710 0.10960400   1.008000   ; qtot 191.322321
 7711         os    278    ccc     O1   7711 -0.28650000  16.000000   ; qtot 191.035821
 7712         oh    278    ccc     O2   7712 -0.86012500  16.000000   ; qtot 190.175696
 7713         oh    278    ccc     O3   7713 -0.83772800  16.000000   ; qtot 189.337968
 7714         oh    278    ccc     O4   7714 -0.77449700  16.000000   ; qtot 188.563471
 7715         c3    278    ccc     C6   7715 0.37576500  12.010000   ; qtot 188.939236
 7716         ho    278    ccc     H6   7716 0.53656000   1.008000   ; qtot 189.475796
 7717         ho    278    ccc     H7   7717 0.49492100   1.008000   ; qtot 189.970717
 7718         ho    278    ccc     H8   7718 0.51297200   1.008000   ; qtot 190.483689
 7719         h1    278    ccc     H9   7719 0.05653400   1.008000   ; qtot 190.540223
 7720         h1    278    ccc    H10   7720 0.05653400   1.008000   ; qtot 190.596757
 7721         oh    278    ccc     O5   7721 -0.84113600  16.000000   ; qtot 189.755621
 7722         ho    278    ccc    H11   7722 0.51201600   1.008000   ; qtot 190.267637
 7723         os    278    ccc     O6   7723 -0.26013600  16.000000   ; qtot 190.007501
; residue  279 ccc rtp ccc q 0.0
 7724         c3    279    ccc     C1   7724 -0.33178800  12.010000   ; qtot 189.675713
 7725         c3    279    ccc     C2   7725 0.30606500  12.010000   ; qtot 189.981778
 7726         h1    279    ccc     H1   7726 0.11662300   1.008000   ; qtot 190.098401
 7727         h1    279    ccc     H2   7727 0.11526800   1.008000   ; qtot 190.213669
 7728         c3    279    ccc     C3   7728 0.15592700  12.010000   ; qtot 190.369596
 7729         c3    279    ccc     C4   7729 0.28383300  12.010000   ; qtot 190.653429
 7730         c3    279    ccc     C5   7730 0.32403300  12.010000   ; qtot 190.977462
 7731         h1    279    ccc     H3   7731 0.13386900   1.008000   ; qtot 191.111331
 7732         h1    279    ccc     H4   7732 0.10146700   1.008000   ; qtot 191.212798
 7733         h2    279    ccc     H5   7733 0.10960400   1.008000   ; qtot 191.322402
 7734         os    279    ccc     O1   7734 -0.28650000  16.000000   ; qtot 191.035902
 7735         oh    279    ccc     O2   7735 -0.86012500  16.000000   ; qtot 190.175777
 7736         oh    279    ccc     O3   7736 -0.83772800  16.000000   ; qtot 189.338049
 7737         oh    279    ccc     O4   7737 -0.77449700  16.000000   ; qtot 188.563552
 7738         c3    279    ccc     C6   7738 0.37576500  12.010000   ; qtot 188.939317
 7739         ho    279    ccc     H6   7739 0.53656000   1.008000   ; qtot 189.475877
 7740         ho    279    ccc     H7   7740 0.49492100   1.008000   ; qtot 189.970798
 7741         ho    279    ccc     H8   7741 0.51297200   1.008000   ; qtot 190.483770
 7742         h1    279    ccc     H9   7742 0.05653400   1.008000   ; qtot 190.540304
 7743         h1    279    ccc    H10   7743 0.05653400   1.008000   ; qtot 190.596838
 7744         oh    279    ccc     O5   7744 -0.84113600  16.000000   ; qtot 189.755702
 7745         ho    279    ccc    H11   7745 0.51201600   1.008000   ; qtot 190.267718
 7746         os    279    ccc     O6   7746 -0.26013600  16.000000   ; qtot 190.007582
; residue  280 ccc rtp ccc q 0.0
 7747         c3    280    ccc     C1   7747 -0.33178800  12.010000   ; qtot 189.675794
 7748         c3    280    ccc     C2   7748 0.30606500  12.010000   ; qtot 189.981859
 7749         h1    280    ccc     H1   7749 0.11662300   1.008000   ; qtot 190.098482
 7750         h1    280    ccc     H2   7750 0.11526800   1.008000   ; qtot 190.213750
 7751         c3    280    ccc     C3   7751 0.15592700  12.010000   ; qtot 190.369677
 7752         c3    280    ccc     C4   7752 0.28383300  12.010000   ; qtot 190.653510
 7753         c3    280    ccc     C5   7753 0.32403300  12.010000   ; qtot 190.977543
 7754         h1    280    ccc     H3   7754 0.13386900   1.008000   ; qtot 191.111412
 7755         h1    280    ccc     H4   7755 0.10146700   1.008000   ; qtot 191.212879
 7756         h2    280    ccc     H5   7756 0.10960400   1.008000   ; qtot 191.322483
 7757         os    280    ccc     O1   7757 -0.28650000  16.000000   ; qtot 191.035983
 7758         oh    280    ccc     O2   7758 -0.86012500  16.000000   ; qtot 190.175858
 7759         oh    280    ccc     O3   7759 -0.83772800  16.000000   ; qtot 189.338130
 7760         oh    280    ccc     O4   7760 -0.77449700  16.000000   ; qtot 188.563633
 7761         c3    280    ccc     C6   7761 0.37576500  12.010000   ; qtot 188.939398
 7762         ho    280    ccc     H6   7762 0.53656000   1.008000   ; qtot 189.475958
 7763         ho    280    ccc     H7   7763 0.49492100   1.008000   ; qtot 189.970879
 7764         ho    280    ccc     H8   7764 0.51297200   1.008000   ; qtot 190.483851
 7765         h1    280    ccc     H9   7765 0.05653400   1.008000   ; qtot 190.540385
 7766         h1    280    ccc    H10   7766 0.05653400   1.008000   ; qtot 190.596919
 7767         oh    280    ccc     O5   7767 -0.84113600  16.000000   ; qtot 189.755783
 7768         ho    280    ccc    H11   7768 0.51201600   1.008000   ; qtot 190.267799
 7769         os    280    ccc     O6   7769 -0.26013600  16.000000   ; qtot 190.007663
; residue  281 ccc rtp ccc q 0.0
 7770         c3    281    ccc     C1   7770 -0.33178800  12.010000   ; qtot 189.675875
 7771         c3    281    ccc     C2   7771 0.30606500  12.010000   ; qtot 189.981940
 7772         h1    281    ccc     H1   7772 0.11662300   1.008000   ; qtot 190.098563
 7773         h1    281    ccc     H2   7773 0.11526800   1.008000   ; qtot 190.213831
 7774         c3    281    ccc     C3   7774 0.15592700  12.010000   ; qtot 190.369758
 7775         c3    281    ccc     C4   7775 0.28383300  12.010000   ; qtot 190.653591
 7776         c3    281    ccc     C5   7776 0.32403300  12.010000   ; qtot 190.977624
 7777         h1    281    ccc     H3   7777 0.13386900   1.008000   ; qtot 191.111493
 7778         h1    281    ccc     H4   7778 0.10146700   1.008000   ; qtot 191.212960
 7779         h2    281    ccc     H5   7779 0.10960400   1.008000   ; qtot 191.322564
 7780         os    281    ccc     O1   7780 -0.28650000  16.000000   ; qtot 191.036064
 7781         oh    281    ccc     O2   7781 -0.86012500  16.000000   ; qtot 190.175939
 7782         oh    281    ccc     O3   7782 -0.83772800  16.000000   ; qtot 189.338211
 7783         oh    281    ccc     O4   7783 -0.77449700  16.000000   ; qtot 188.563714
 7784         c3    281    ccc     C6   7784 0.37576500  12.010000   ; qtot 188.939479
 7785         ho    281    ccc     H6   7785 0.53656000   1.008000   ; qtot 189.476039
 7786         ho    281    ccc     H7   7786 0.49492100   1.008000   ; qtot 189.970960
 7787         ho    281    ccc     H8   7787 0.51297200   1.008000   ; qtot 190.483932
 7788         h1    281    ccc     H9   7788 0.05653400   1.008000   ; qtot 190.540466
 7789         h1    281    ccc    H10   7789 0.05653400   1.008000   ; qtot 190.597000
 7790         oh    281    ccc     O5   7790 -0.84113600  16.000000   ; qtot 189.755864
 7791         ho    281    ccc    H11   7791 0.51201600   1.008000   ; qtot 190.267880
 7792         os    281    ccc     O6   7792 -0.26013600  16.000000   ; qtot 190.007744
; residue  282 ccc rtp ccc q 0.0
 7793         c3    282    ccc     C1   7793 -0.33178800  12.010000   ; qtot 189.675956
 7794         c3    282    ccc     C2   7794 0.30606500  12.010000   ; qtot 189.982021
 7795         h1    282    ccc     H1   7795 0.11662300   1.008000   ; qtot 190.098644
 7796         h1    282    ccc     H2   7796 0.11526800   1.008000   ; qtot 190.213912
 7797         c3    282    ccc     C3   7797 0.15592700  12.010000   ; qtot 190.369839
 7798         c3    282    ccc     C4   7798 0.28383300  12.010000   ; qtot 190.653672
 7799         c3    282    ccc     C5   7799 0.32403300  12.010000   ; qtot 190.977705
 7800         h1    282    ccc     H3   7800 0.13386900   1.008000   ; qtot 191.111574
 7801         h1    282    ccc     H4   7801 0.10146700   1.008000   ; qtot 191.213041
 7802         h2    282    ccc     H5   7802 0.10960400   1.008000   ; qtot 191.322645
 7803         os    282    ccc     O1   7803 -0.28650000  16.000000   ; qtot 191.036145
 7804         oh    282    ccc     O2   7804 -0.86012500  16.000000   ; qtot 190.176020
 7805         oh    282    ccc     O3   7805 -0.83772800  16.000000   ; qtot 189.338292
 7806         oh    282    ccc     O4   7806 -0.77449700  16.000000   ; qtot 188.563795
 7807         c3    282    ccc     C6   7807 0.37576500  12.010000   ; qtot 188.939560
 7808         ho    282    ccc     H6   7808 0.53656000   1.008000   ; qtot 189.476120
 7809         ho    282    ccc     H7   7809 0.49492100   1.008000   ; qtot 189.971041
 7810         ho    282    ccc     H8   7810 0.51297200   1.008000   ; qtot 190.484013
 7811         h1    282    ccc     H9   7811 0.05653400   1.008000   ; qtot 190.540547
 7812         h1    282    ccc    H10   7812 0.05653400   1.008000   ; qtot 190.597081
 7813         oh    282    ccc     O5   7813 -0.84113600  16.000000   ; qtot 189.755945
 7814         ho    282    ccc    H11   7814 0.51201600   1.008000   ; qtot 190.267961
 7815         os    282    ccc     O6   7815 -0.26013600  16.000000   ; qtot 190.007825
; residue  283 ccc rtp ccc q 0.0
 7816         c3    283    ccc     C1   7816 -0.33178800  12.010000   ; qtot 189.676037
 7817         c3    283    ccc     C2   7817 0.30606500  12.010000   ; qtot 189.982102
 7818         h1    283    ccc     H1   7818 0.11662300   1.008000   ; qtot 190.098725
 7819         h1    283    ccc     H2   7819 0.11526800   1.008000   ; qtot 190.213993
 7820         c3    283    ccc     C3   7820 0.15592700  12.010000   ; qtot 190.369920
 7821         c3    283    ccc     C4   7821 0.28383300  12.010000   ; qtot 190.653753
 7822         c3    283    ccc     C5   7822 0.32403300  12.010000   ; qtot 190.977786
 7823         h1    283    ccc     H3   7823 0.13386900   1.008000   ; qtot 191.111655
 7824         h1    283    ccc     H4   7824 0.10146700   1.008000   ; qtot 191.213122
 7825         h2    283    ccc     H5   7825 0.10960400   1.008000   ; qtot 191.322726
 7826         os    283    ccc     O1   7826 -0.28650000  16.000000   ; qtot 191.036226
 7827         oh    283    ccc     O2   7827 -0.86012500  16.000000   ; qtot 190.176101
 7828         oh    283    ccc     O3   7828 -0.83772800  16.000000   ; qtot 189.338373
 7829         oh    283    ccc     O4   7829 -0.77449700  16.000000   ; qtot 188.563876
 7830         c3    283    ccc     C6   7830 0.37576500  12.010000   ; qtot 188.939641
 7831         ho    283    ccc     H6   7831 0.53656000   1.008000   ; qtot 189.476201
 7832         ho    283    ccc     H7   7832 0.49492100   1.008000   ; qtot 189.971122
 7833         ho    283    ccc     H8   7833 0.51297200   1.008000   ; qtot 190.484094
 7834         h1    283    ccc     H9   7834 0.05653400   1.008000   ; qtot 190.540628
 7835         h1    283    ccc    H10   7835 0.05653400   1.008000   ; qtot 190.597162
 7836         oh    283    ccc     O5   7836 -0.84113600  16.000000   ; qtot 189.756026
 7837         ho    283    ccc    H11   7837 0.51201600   1.008000   ; qtot 190.268042
 7838         os    283    ccc     O6   7838 -0.26013600  16.000000   ; qtot 190.007906
; residue  284 ccc rtp ccc q 0.0
 7839         c3    284    ccc     C1   7839 -0.33178800  12.010000   ; qtot 189.676118
 7840         c3    284    ccc     C2   7840 0.30606500  12.010000   ; qtot 189.982183
 7841         h1    284    ccc     H1   7841 0.11662300   1.008000   ; qtot 190.098806
 7842         h1    284    ccc     H2   7842 0.11526800   1.008000   ; qtot 190.214074
 7843         c3    284    ccc     C3   7843 0.15592700  12.010000   ; qtot 190.370001
 7844         c3    284    ccc     C4   7844 0.28383300  12.010000   ; qtot 190.653834
 7845         c3    284    ccc     C5   7845 0.32403300  12.010000   ; qtot 190.977867
 7846         h1    284    ccc     H3   7846 0.13386900   1.008000   ; qtot 191.111736
 7847         h1    284    ccc     H4   7847 0.10146700   1.008000   ; qtot 191.213203
 7848         h2    284    ccc     H5   7848 0.10960400   1.008000   ; qtot 191.322807
 7849         os    284    ccc     O1   7849 -0.28650000  16.000000   ; qtot 191.036307
 7850         oh    284    ccc     O2   7850 -0.86012500  16.000000   ; qtot 190.176182
 7851         oh    284    ccc     O3   7851 -0.83772800  16.000000   ; qtot 189.338454
 7852         oh    284    ccc     O4   7852 -0.77449700  16.000000   ; qtot 188.563957
 7853         c3    284    ccc     C6   7853 0.37576500  12.010000   ; qtot 188.939722
 7854         ho    284    ccc     H6   7854 0.53656000   1.008000   ; qtot 189.476282
 7855         ho    284    ccc     H7   7855 0.49492100   1.008000   ; qtot 189.971203
 7856         ho    284    ccc     H8   7856 0.51297200   1.008000   ; qtot 190.484175
 7857         h1    284    ccc     H9   7857 0.05653400   1.008000   ; qtot 190.540709
 7858         h1    284    ccc    H10   7858 0.05653400   1.008000   ; qtot 190.597243
 7859         oh    284    ccc     O5   7859 -0.84113600  16.000000   ; qtot 189.756107
 7860         ho    284    ccc    H11   7860 0.51201600   1.008000   ; qtot 190.268123
 7861         os    284    ccc     O6   7861 -0.26013600  16.000000   ; qtot 190.007987
; residue  285 ccc rtp ccc q 0.0
 7862         c3    285    ccc     C1   7862 -0.33178800  12.010000   ; qtot 189.676199
 7863         c3    285    ccc     C2   7863 0.30606500  12.010000   ; qtot 189.982264
 7864         h1    285    ccc     H1   7864 0.11662300   1.008000   ; qtot 190.098887
 7865         h1    285    ccc     H2   7865 0.11526800   1.008000   ; qtot 190.214155
 7866         c3    285    ccc     C3   7866 0.15592700  12.010000   ; qtot 190.370082
 7867         c3    285    ccc     C4   7867 0.28383300  12.010000   ; qtot 190.653915
 7868         c3    285    ccc     C5   7868 0.32403300  12.010000   ; qtot 190.977948
 7869         h1    285    ccc     H3   7869 0.13386900   1.008000   ; qtot 191.111817
 7870         h1    285    ccc     H4   7870 0.10146700   1.008000   ; qtot 191.213284
 7871         h2    285    ccc     H5   7871 0.10960400   1.008000   ; qtot 191.322888
 7872         os    285    ccc     O1   7872 -0.28650000  16.000000   ; qtot 191.036388
 7873         oh    285    ccc     O2   7873 -0.86012500  16.000000   ; qtot 190.176263
 7874         oh    285    ccc     O3   7874 -0.83772800  16.000000   ; qtot 189.338535
 7875         oh    285    ccc     O4   7875 -0.77449700  16.000000   ; qtot 188.564038
 7876         c3    285    ccc     C6   7876 0.37576500  12.010000   ; qtot 188.939803
 7877         ho    285    ccc     H6   7877 0.53656000   1.008000   ; qtot 189.476363
 7878         ho    285    ccc     H7   7878 0.49492100   1.008000   ; qtot 189.971284
 7879         ho    285    ccc     H8   7879 0.51297200   1.008000   ; qtot 190.484256
 7880         h1    285    ccc     H9   7880 0.05653400   1.008000   ; qtot 190.540790
 7881         h1    285    ccc    H10   7881 0.05653400   1.008000   ; qtot 190.597324
 7882         oh    285    ccc     O5   7882 -0.84113600  16.000000   ; qtot 189.756188
 7883         ho    285    ccc    H11   7883 0.51201600   1.008000   ; qtot 190.268204
 7884         os    285    ccc     O6   7884 -0.26013600  16.000000   ; qtot 190.008068
; residue  286 ccc rtp ccc q 0.0
 7885         c3    286    ccc     C1   7885 -0.33178800  12.010000   ; qtot 189.676280
 7886         c3    286    ccc     C2   7886 0.30606500  12.010000   ; qtot 189.982345
 7887         h1    286    ccc     H1   7887 0.11662300   1.008000   ; qtot 190.098968
 7888         h1    286    ccc     H2   7888 0.11526800   1.008000   ; qtot 190.214236
 7889         c3    286    ccc     C3   7889 0.15592700  12.010000   ; qtot 190.370163
 7890         c3    286    ccc     C4   7890 0.28383300  12.010000   ; qtot 190.653996
 7891         c3    286    ccc     C5   7891 0.32403300  12.010000   ; qtot 190.978029
 7892         h1    286    ccc     H3   7892 0.13386900   1.008000   ; qtot 191.111898
 7893         h1    286    ccc     H4   7893 0.10146700   1.008000   ; qtot 191.213365
 7894         h2    286    ccc     H5   7894 0.10960400   1.008000   ; qtot 191.322969
 7895         os    286    ccc     O1   7895 -0.28650000  16.000000   ; qtot 191.036469
 7896         oh    286    ccc     O2   7896 -0.86012500  16.000000   ; qtot 190.176344
 7897         oh    286    ccc     O3   7897 -0.83772800  16.000000   ; qtot 189.338616
 7898         oh    286    ccc     O4   7898 -0.77449700  16.000000   ; qtot 188.564119
 7899         c3    286    ccc     C6   7899 0.37576500  12.010000   ; qtot 188.939884
 7900         ho    286    ccc     H6   7900 0.53656000   1.008000   ; qtot 189.476444
 7901         ho    286    ccc     H7   7901 0.49492100   1.008000   ; qtot 189.971365
 7902         ho    286    ccc     H8   7902 0.51297200   1.008000   ; qtot 190.484337
 7903         h1    286    ccc     H9   7903 0.05653400   1.008000   ; qtot 190.540871
 7904         h1    286    ccc    H10   7904 0.05653400   1.008000   ; qtot 190.597405
 7905         oh    286    ccc     O5   7905 -0.84113600  16.000000   ; qtot 189.756269
 7906         ho    286    ccc    H11   7906 0.51201600   1.008000   ; qtot 190.268285
 7907         os    286    ccc     O6   7907 -0.26013600  16.000000   ; qtot 190.008149
; residue  287 ccc rtp ccc q 0.0
 7908         c3    287    ccc     C1   7908 -0.33178800  12.010000   ; qtot 189.676361
 7909         c3    287    ccc     C2   7909 0.30606500  12.010000   ; qtot 189.982426
 7910         h1    287    ccc     H1   7910 0.11662300   1.008000   ; qtot 190.099049
 7911         h1    287    ccc     H2   7911 0.11526800   1.008000   ; qtot 190.214317
 7912         c3    287    ccc     C3   7912 0.15592700  12.010000   ; qtot 190.370244
 7913         c3    287    ccc     C4   7913 0.28383300  12.010000   ; qtot 190.654077
 7914         c3    287    ccc     C5   7914 0.32403300  12.010000   ; qtot 190.978110
 7915         h1    287    ccc     H3   7915 0.13386900   1.008000   ; qtot 191.111979
 7916         h1    287    ccc     H4   7916 0.10146700   1.008000   ; qtot 191.213446
 7917         h2    287    ccc     H5   7917 0.10960400   1.008000   ; qtot 191.323050
 7918         os    287    ccc     O1   7918 -0.28650000  16.000000   ; qtot 191.036550
 7919         oh    287    ccc     O2   7919 -0.86012500  16.000000   ; qtot 190.176425
 7920         oh    287    ccc     O3   7920 -0.83772800  16.000000   ; qtot 189.338697
 7921         oh    287    ccc     O4   7921 -0.77449700  16.000000   ; qtot 188.564200
 7922         c3    287    ccc     C6   7922 0.37576500  12.010000   ; qtot 188.939965
 7923         ho    287    ccc     H6   7923 0.53656000   1.008000   ; qtot 189.476525
 7924         ho    287    ccc     H7   7924 0.49492100   1.008000   ; qtot 189.971446
 7925         ho    287    ccc     H8   7925 0.51297200   1.008000   ; qtot 190.484418
 7926         h1    287    ccc     H9   7926 0.05653400   1.008000   ; qtot 190.540952
 7927         h1    287    ccc    H10   7927 0.05653400   1.008000   ; qtot 190.597486
 7928         oh    287    ccc     O5   7928 -0.84113600  16.000000   ; qtot 189.756350
 7929         ho    287    ccc    H11   7929 0.51201600   1.008000   ; qtot 190.268366
 7930         os    287    ccc     O6   7930 -0.26013600  16.000000   ; qtot 190.008230
; residue  288 ccc rtp ccc q 0.0
 7931         c3    288    ccc     C1   7931 -0.33178800  12.010000   ; qtot 189.676442
 7932         c3    288    ccc     C2   7932 0.30606500  12.010000   ; qtot 189.982507
 7933         h1    288    ccc     H1   7933 0.11662300   1.008000   ; qtot 190.099130
 7934         h1    288    ccc     H2   7934 0.11526800   1.008000   ; qtot 190.214398
 7935         c3    288    ccc     C3   7935 0.15592700  12.010000   ; qtot 190.370325
 7936         c3    288    ccc     C4   7936 0.28383300  12.010000   ; qtot 190.654158
 7937         c3    288    ccc     C5   7937 0.32403300  12.010000   ; qtot 190.978191
 7938         h1    288    ccc     H3   7938 0.13386900   1.008000   ; qtot 191.112060
 7939         h1    288    ccc     H4   7939 0.10146700   1.008000   ; qtot 191.213527
 7940         h2    288    ccc     H5   7940 0.10960400   1.008000   ; qtot 191.323131
 7941         os    288    ccc     O1   7941 -0.28650000  16.000000   ; qtot 191.036631
 7942         oh    288    ccc     O2   7942 -0.86012500  16.000000   ; qtot 190.176506
 7943         oh    288    ccc     O3   7943 -0.83772800  16.000000   ; qtot 189.338778
 7944         oh    288    ccc     O4   7944 -0.77449700  16.000000   ; qtot 188.564281
 7945         c3    288    ccc     C6   7945 0.37576500  12.010000   ; qtot 188.940046
 7946         ho    288    ccc     H6   7946 0.53656000   1.008000   ; qtot 189.476606
 7947         ho    288    ccc     H7   7947 0.49492100   1.008000   ; qtot 189.971527
 7948         ho    288    ccc     H8   7948 0.51297200   1.008000   ; qtot 190.484499
 7949         h1    288    ccc     H9   7949 0.05653400   1.008000   ; qtot 190.541033
 7950         h1    288    ccc    H10   7950 0.05653400   1.008000   ; qtot 190.597567
 7951         oh    288    ccc     O5   7951 -0.84113600  16.000000   ; qtot 189.756431
 7952         ho    288    ccc    H11   7952 0.51201600   1.008000   ; qtot 190.268447
 7953         os    288    ccc     O6   7953 -0.26013600  16.000000   ; qtot 190.008311
; residue  289 ccc rtp ccc q 0.0
 7954         c3    289    ccc     C1   7954 -0.33178800  12.010000   ; qtot 189.676523
 7955         c3    289    ccc     C2   7955 0.30606500  12.010000   ; qtot 189.982588
 7956         h1    289    ccc     H1   7956 0.11662300   1.008000   ; qtot 190.099211
 7957         h1    289    ccc     H2   7957 0.11526800   1.008000   ; qtot 190.214479
 7958         c3    289    ccc     C3   7958 0.15592700  12.010000   ; qtot 190.370406
 7959         c3    289    ccc     C4   7959 0.28383300  12.010000   ; qtot 190.654239
 7960         c3    289    ccc     C5   7960 0.32403300  12.010000   ; qtot 190.978272
 7961         h1    289    ccc     H3   7961 0.13386900   1.008000   ; qtot 191.112141
 7962         h1    289    ccc     H4   7962 0.10146700   1.008000   ; qtot 191.213608
 7963         h2    289    ccc     H5   7963 0.10960400   1.008000   ; qtot 191.323212
 7964         os    289    ccc     O1   7964 -0.28650000  16.000000   ; qtot 191.036712
 7965         oh    289    ccc     O2   7965 -0.86012500  16.000000   ; qtot 190.176587
 7966         oh    289    ccc     O3   7966 -0.83772800  16.000000   ; qtot 189.338859
 7967         oh    289    ccc     O4   7967 -0.77449700  16.000000   ; qtot 188.564362
 7968         c3    289    ccc     C6   7968 0.37576500  12.010000   ; qtot 188.940127
 7969         ho    289    ccc     H6   7969 0.53656000   1.008000   ; qtot 189.476687
 7970         ho    289    ccc     H7   7970 0.49492100   1.008000   ; qtot 189.971608
 7971         ho    289    ccc     H8   7971 0.51297200   1.008000   ; qtot 190.484580
 7972         h1    289    ccc     H9   7972 0.05653400   1.008000   ; qtot 190.541114
 7973         h1    289    ccc    H10   7973 0.05653400   1.008000   ; qtot 190.597648
 7974         oh    289    ccc     O5   7974 -0.84113600  16.000000   ; qtot 189.756512
 7975         ho    289    ccc    H11   7975 0.51201600   1.008000   ; qtot 190.268528
 7976         os    289    ccc     O6   7976 -0.26013600  16.000000   ; qtot 190.008392
; residue  290 ccc rtp ccc q 0.0
 7977         c3    290    ccc     C1   7977 -0.33178800  12.010000   ; qtot 189.676604
 7978         c3    290    ccc     C2   7978 0.30606500  12.010000   ; qtot 189.982669
 7979         h1    290    ccc     H1   7979 0.11662300   1.008000   ; qtot 190.099292
 7980         h1    290    ccc     H2   7980 0.11526800   1.008000   ; qtot 190.214560
 7981         c3    290    ccc     C3   7981 0.15592700  12.010000   ; qtot 190.370487
 7982         c3    290    ccc     C4   7982 0.28383300  12.010000   ; qtot 190.654320
 7983         c3    290    ccc     C5   7983 0.32403300  12.010000   ; qtot 190.978353
 7984         h1    290    ccc     H3   7984 0.13386900   1.008000   ; qtot 191.112222
 7985         h1    290    ccc     H4   7985 0.10146700   1.008000   ; qtot 191.213689
 7986         h2    290    ccc     H5   7986 0.10960400   1.008000   ; qtot 191.323293
 7987         os    290    ccc     O1   7987 -0.28650000  16.000000   ; qtot 191.036793
 7988         oh    290    ccc     O2   7988 -0.86012500  16.000000   ; qtot 190.176668
 7989         oh    290    ccc     O3   7989 -0.83772800  16.000000   ; qtot 189.338940
 7990         oh    290    ccc     O4   7990 -0.77449700  16.000000   ; qtot 188.564443
 7991         c3    290    ccc     C6   7991 0.37576500  12.010000   ; qtot 188.940208
 7992         ho    290    ccc     H6   7992 0.53656000   1.008000   ; qtot 189.476768
 7993         ho    290    ccc     H7   7993 0.49492100   1.008000   ; qtot 189.971689
 7994         ho    290    ccc     H8   7994 0.51297200   1.008000   ; qtot 190.484661
 7995         h1    290    ccc     H9   7995 0.05653400   1.008000   ; qtot 190.541195
 7996         h1    290    ccc    H10   7996 0.05653400   1.008000   ; qtot 190.597729
 7997         oh    290    ccc     O5   7997 -0.84113600  16.000000   ; qtot 189.756593
 7998         ho    290    ccc    H11   7998 0.51201600   1.008000   ; qtot 190.268609
 7999         os    290    ccc     O6   7999 -0.26013600  16.000000   ; qtot 190.008473
; residue  291 ccc rtp ccc q 0.0
 8000         c3    291    ccc     C1   8000 -0.33178800  12.010000   ; qtot 189.676685
 8001         c3    291    ccc     C2   8001 0.30606500  12.010000   ; qtot 189.982750
 8002         h1    291    ccc     H1   8002 0.11662300   1.008000   ; qtot 190.099373
 8003         h1    291    ccc     H2   8003 0.11526800   1.008000   ; qtot 190.214641
 8004         c3    291    ccc     C3   8004 0.15592700  12.010000   ; qtot 190.370568
 8005         c3    291    ccc     C4   8005 0.28383300  12.010000   ; qtot 190.654401
 8006         c3    291    ccc     C5   8006 0.32403300  12.010000   ; qtot 190.978434
 8007         h1    291    ccc     H3   8007 0.13386900   1.008000   ; qtot 191.112303
 8008         h1    291    ccc     H4   8008 0.10146700   1.008000   ; qtot 191.213770
 8009         h2    291    ccc     H5   8009 0.10960400   1.008000   ; qtot 191.323374
 8010         os    291    ccc     O1   8010 -0.28650000  16.000000   ; qtot 191.036874
 8011         oh    291    ccc     O2   8011 -0.86012500  16.000000   ; qtot 190.176749
 8012         oh    291    ccc     O3   8012 -0.83772800  16.000000   ; qtot 189.339021
 8013         oh    291    ccc     O4   8013 -0.77449700  16.000000   ; qtot 188.564524
 8014         c3    291    ccc     C6   8014 0.37576500  12.010000   ; qtot 188.940289
 8015         ho    291    ccc     H6   8015 0.53656000   1.008000   ; qtot 189.476849
 8016         ho    291    ccc     H7   8016 0.49492100   1.008000   ; qtot 189.971770
 8017         ho    291    ccc     H8   8017 0.51297200   1.008000   ; qtot 190.484742
 8018         h1    291    ccc     H9   8018 0.05653400   1.008000   ; qtot 190.541276
 8019         h1    291    ccc    H10   8019 0.05653400   1.008000   ; qtot 190.597810
 8020         oh    291    ccc     O5   8020 -0.84113600  16.000000   ; qtot 189.756674
 8021         ho    291    ccc    H11   8021 0.51201600   1.008000   ; qtot 190.268690
 8022         os    291    ccc     O6   8022 -0.26013600  16.000000   ; qtot 190.008554
; residue  292 ccc rtp ccc q 0.0
 8023         c3    292    ccc     C1   8023 -0.33178800  12.010000   ; qtot 189.676766
 8024         c3    292    ccc     C2   8024 0.30606500  12.010000   ; qtot 189.982831
 8025         h1    292    ccc     H1   8025 0.11662300   1.008000   ; qtot 190.099454
 8026         h1    292    ccc     H2   8026 0.11526800   1.008000   ; qtot 190.214722
 8027         c3    292    ccc     C3   8027 0.15592700  12.010000   ; qtot 190.370649
 8028         c3    292    ccc     C4   8028 0.28383300  12.010000   ; qtot 190.654482
 8029         c3    292    ccc     C5   8029 0.32403300  12.010000   ; qtot 190.978515
 8030         h1    292    ccc     H3   8030 0.13386900   1.008000   ; qtot 191.112384
 8031         h1    292    ccc     H4   8031 0.10146700   1.008000   ; qtot 191.213851
 8032         h2    292    ccc     H5   8032 0.10960400   1.008000   ; qtot 191.323455
 8033         os    292    ccc     O1   8033 -0.28650000  16.000000   ; qtot 191.036955
 8034         oh    292    ccc     O2   8034 -0.86012500  16.000000   ; qtot 190.176830
 8035         oh    292    ccc     O3   8035 -0.83772800  16.000000   ; qtot 189.339102
 8036         oh    292    ccc     O4   8036 -0.77449700  16.000000   ; qtot 188.564605
 8037         c3    292    ccc     C6   8037 0.37576500  12.010000   ; qtot 188.940370
 8038         ho    292    ccc     H6   8038 0.53656000   1.008000   ; qtot 189.476930
 8039         ho    292    ccc     H7   8039 0.49492100   1.008000   ; qtot 189.971851
 8040         ho    292    ccc     H8   8040 0.51297200   1.008000   ; qtot 190.484823
 8041         h1    292    ccc     H9   8041 0.05653400   1.008000   ; qtot 190.541357
 8042         h1    292    ccc    H10   8042 0.05653400   1.008000   ; qtot 190.597891
 8043         oh    292    ccc     O5   8043 -0.84113600  16.000000   ; qtot 189.756755
 8044         ho    292    ccc    H11   8044 0.51201600   1.008000   ; qtot 190.268771
 8045         os    292    ccc     O6   8045 -0.26013600  16.000000   ; qtot 190.008635
; residue  293 ccc rtp ccc q 0.0
 8046         c3    293    ccc     C1   8046 -0.33178800  12.010000   ; qtot 189.676847
 8047         c3    293    ccc     C2   8047 0.30606500  12.010000   ; qtot 189.982912
 8048         h1    293    ccc     H1   8048 0.11662300   1.008000   ; qtot 190.099535
 8049         h1    293    ccc     H2   8049 0.11526800   1.008000   ; qtot 190.214803
 8050         c3    293    ccc     C3   8050 0.15592700  12.010000   ; qtot 190.370730
 8051         c3    293    ccc     C4   8051 0.28383300  12.010000   ; qtot 190.654563
 8052         c3    293    ccc     C5   8052 0.32403300  12.010000   ; qtot 190.978596
 8053         h1    293    ccc     H3   8053 0.13386900   1.008000   ; qtot 191.112465
 8054         h1    293    ccc     H4   8054 0.10146700   1.008000   ; qtot 191.213932
 8055         h2    293    ccc     H5   8055 0.10960400   1.008000   ; qtot 191.323536
 8056         os    293    ccc     O1   8056 -0.28650000  16.000000   ; qtot 191.037036
 8057         oh    293    ccc     O2   8057 -0.86012500  16.000000   ; qtot 190.176911
 8058         oh    293    ccc     O3   8058 -0.83772800  16.000000   ; qtot 189.339183
 8059         oh    293    ccc     O4   8059 -0.77449700  16.000000   ; qtot 188.564686
 8060         c3    293    ccc     C6   8060 0.37576500  12.010000   ; qtot 188.940451
 8061         ho    293    ccc     H6   8061 0.53656000   1.008000   ; qtot 189.477011
 8062         ho    293    ccc     H7   8062 0.49492100   1.008000   ; qtot 189.971932
 8063         ho    293    ccc     H8   8063 0.51297200   1.008000   ; qtot 190.484904
 8064         h1    293    ccc     H9   8064 0.05653400   1.008000   ; qtot 190.541438
 8065         h1    293    ccc    H10   8065 0.05653400   1.008000   ; qtot 190.597972
 8066         oh    293    ccc     O5   8066 -0.84113600  16.000000   ; qtot 189.756836
 8067         ho    293    ccc    H11   8067 0.51201600   1.008000   ; qtot 190.268852
 8068         os    293    ccc     O6   8068 -0.26013600  16.000000   ; qtot 190.008716
; residue  294 ccc rtp ccc q 0.0
 8069         c3    294    ccc     C1   8069 -0.33178800  12.010000   ; qtot 189.676928
 8070         c3    294    ccc     C2   8070 0.30606500  12.010000   ; qtot 189.982993
 8071         h1    294    ccc     H1   8071 0.11662300   1.008000   ; qtot 190.099616
 8072         h1    294    ccc     H2   8072 0.11526800   1.008000   ; qtot 190.214884
 8073         c3    294    ccc     C3   8073 0.15592700  12.010000   ; qtot 190.370811
 8074         c3    294    ccc     C4   8074 0.28383300  12.010000   ; qtot 190.654644
 8075         c3    294    ccc     C5   8075 0.32403300  12.010000   ; qtot 190.978677
 8076         h1    294    ccc     H3   8076 0.13386900   1.008000   ; qtot 191.112546
 8077         h1    294    ccc     H4   8077 0.10146700   1.008000   ; qtot 191.214013
 8078         h2    294    ccc     H5   8078 0.10960400   1.008000   ; qtot 191.323617
 8079         os    294    ccc     O1   8079 -0.28650000  16.000000   ; qtot 191.037117
 8080         oh    294    ccc     O2   8080 -0.86012500  16.000000   ; qtot 190.176992
 8081         oh    294    ccc     O3   8081 -0.83772800  16.000000   ; qtot 189.339264
 8082         oh    294    ccc     O4   8082 -0.77449700  16.000000   ; qtot 188.564767
 8083         c3    294    ccc     C6   8083 0.37576500  12.010000   ; qtot 188.940532
 8084         ho    294    ccc     H6   8084 0.53656000   1.008000   ; qtot 189.477092
 8085         ho    294    ccc     H7   8085 0.49492100   1.008000   ; qtot 189.972013
 8086         ho    294    ccc     H8   8086 0.51297200   1.008000   ; qtot 190.484985
 8087         h1    294    ccc     H9   8087 0.05653400   1.008000   ; qtot 190.541519
 8088         h1    294    ccc    H10   8088 0.05653400   1.008000   ; qtot 190.598053
 8089         oh    294    ccc     O5   8089 -0.84113600  16.000000   ; qtot 189.756917
 8090         ho    294    ccc    H11   8090 0.51201600   1.008000   ; qtot 190.268933
 8091         os    294    ccc     O6   8091 -0.26013600  16.000000   ; qtot 190.008797
; residue  295 ccc rtp ccc q 0.0
 8092         c3    295    ccc     C1   8092 -0.33178800  12.010000   ; qtot 189.677009
 8093         c3    295    ccc     C2   8093 0.30606500  12.010000   ; qtot 189.983074
 8094         h1    295    ccc     H1   8094 0.11662300   1.008000   ; qtot 190.099697
 8095         h1    295    ccc     H2   8095 0.11526800   1.008000   ; qtot 190.214965
 8096         c3    295    ccc     C3   8096 0.15592700  12.010000   ; qtot 190.370892
 8097         c3    295    ccc     C4   8097 0.28383300  12.010000   ; qtot 190.654725
 8098         c3    295    ccc     C5   8098 0.32403300  12.010000   ; qtot 190.978758
 8099         h1    295    ccc     H3   8099 0.13386900   1.008000   ; qtot 191.112627
 8100         h1    295    ccc     H4   8100 0.10146700   1.008000   ; qtot 191.214094
 8101         h2    295    ccc     H5   8101 0.10960400   1.008000   ; qtot 191.323698
 8102         os    295    ccc     O1   8102 -0.28650000  16.000000   ; qtot 191.037198
 8103         oh    295    ccc     O2   8103 -0.86012500  16.000000   ; qtot 190.177073
 8104         oh    295    ccc     O3   8104 -0.83772800  16.000000   ; qtot 189.339345
 8105         oh    295    ccc     O4   8105 -0.77449700  16.000000   ; qtot 188.564848
 8106         c3    295    ccc     C6   8106 0.37576500  12.010000   ; qtot 188.940613
 8107         ho    295    ccc     H6   8107 0.53656000   1.008000   ; qtot 189.477173
 8108         ho    295    ccc     H7   8108 0.49492100   1.008000   ; qtot 189.972094
 8109         ho    295    ccc     H8   8109 0.51297200   1.008000   ; qtot 190.485066
 8110         h1    295    ccc     H9   8110 0.05653400   1.008000   ; qtot 190.541600
 8111         h1    295    ccc    H10   8111 0.05653400   1.008000   ; qtot 190.598134
 8112         oh    295    ccc     O5   8112 -0.84113600  16.000000   ; qtot 189.756998
 8113         ho    295    ccc    H11   8113 0.51201600   1.008000   ; qtot 190.269014
 8114         os    295    ccc     O6   8114 -0.26013600  16.000000   ; qtot 190.008878
; residue  296 ccc rtp ccc q 0.0
 8115         c3    296    ccc     C1   8115 -0.33178800  12.010000   ; qtot 189.677090
 8116         c3    296    ccc     C2   8116 0.30606500  12.010000   ; qtot 189.983155
 8117         h1    296    ccc     H1   8117 0.11662300   1.008000   ; qtot 190.099778
 8118         h1    296    ccc     H2   8118 0.11526800   1.008000   ; qtot 190.215046
 8119         c3    296    ccc     C3   8119 0.15592700  12.010000   ; qtot 190.370973
 8120         c3    296    ccc     C4   8120 0.28383300  12.010000   ; qtot 190.654806
 8121         c3    296    ccc     C5   8121 0.32403300  12.010000   ; qtot 190.978839
 8122         h1    296    ccc     H3   8122 0.13386900   1.008000   ; qtot 191.112708
 8123         h1    296    ccc     H4   8123 0.10146700   1.008000   ; qtot 191.214175
 8124         h2    296    ccc     H5   8124 0.10960400   1.008000   ; qtot 191.323779
 8125         os    296    ccc     O1   8125 -0.28650000  16.000000   ; qtot 191.037279
 8126         oh    296    ccc     O2   8126 -0.86012500  16.000000   ; qtot 190.177154
 8127         oh    296    ccc     O3   8127 -0.83772800  16.000000   ; qtot 189.339426
 8128         oh    296    ccc     O4   8128 -0.77449700  16.000000   ; qtot 188.564929
 8129         c3    296    ccc     C6   8129 0.37576500  12.010000   ; qtot 188.940694
 8130         ho    296    ccc     H6   8130 0.53656000   1.008000   ; qtot 189.477254
 8131         ho    296    ccc     H7   8131 0.49492100   1.008000   ; qtot 189.972175
 8132         ho    296    ccc     H8   8132 0.51297200   1.008000   ; qtot 190.485147
 8133         h1    296    ccc     H9   8133 0.05653400   1.008000   ; qtot 190.541681
 8134         h1    296    ccc    H10   8134 0.05653400   1.008000   ; qtot 190.598215
 8135         oh    296    ccc     O5   8135 -0.84113600  16.000000   ; qtot 189.757079
 8136         ho    296    ccc    H11   8136 0.51201600   1.008000   ; qtot 190.269095
 8137         os    296    ccc     O6   8137 -0.26013600  16.000000   ; qtot 190.008959
; residue  297 ccc rtp ccc q 0.0
 8138         c3    297    ccc     C1   8138 -0.33178800  12.010000   ; qtot 189.677171
 8139         c3    297    ccc     C2   8139 0.30606500  12.010000   ; qtot 189.983236
 8140         h1    297    ccc     H1   8140 0.11662300   1.008000   ; qtot 190.099859
 8141         h1    297    ccc     H2   8141 0.11526800   1.008000   ; qtot 190.215127
 8142         c3    297    ccc     C3   8142 0.15592700  12.010000   ; qtot 190.371054
 8143         c3    297    ccc     C4   8143 0.28383300  12.010000   ; qtot 190.654887
 8144         c3    297    ccc     C5   8144 0.32403300  12.010000   ; qtot 190.978920
 8145         h1    297    ccc     H3   8145 0.13386900   1.008000   ; qtot 191.112789
 8146         h1    297    ccc     H4   8146 0.10146700   1.008000   ; qtot 191.214256
 8147         h2    297    ccc     H5   8147 0.10960400   1.008000   ; qtot 191.323860
 8148         os    297    ccc     O1   8148 -0.28650000  16.000000   ; qtot 191.037360
 8149         oh    297    ccc     O2   8149 -0.86012500  16.000000   ; qtot 190.177235
 8150         oh    297    ccc     O3   8150 -0.83772800  16.000000   ; qtot 189.339507
 8151         oh    297    ccc     O4   8151 -0.77449700  16.000000   ; qtot 188.565010
 8152         c3    297    ccc     C6   8152 0.37576500  12.010000   ; qtot 188.940775
 8153         ho    297    ccc     H6   8153 0.53656000   1.008000   ; qtot 189.477335
 8154         ho    297    ccc     H7   8154 0.49492100   1.008000   ; qtot 189.972256
 8155         ho    297    ccc     H8   8155 0.51297200   1.008000   ; qtot 190.485228
 8156         h1    297    ccc     H9   8156 0.05653400   1.008000   ; qtot 190.541762
 8157         h1    297    ccc    H10   8157 0.05653400   1.008000   ; qtot 190.598296
 8158         oh    297    ccc     O5   8158 -0.84113600  16.000000   ; qtot 189.757160
 8159         ho    297    ccc    H11   8159 0.51201600   1.008000   ; qtot 190.269176
 8160         os    297    ccc     O6   8160 -0.26013600  16.000000   ; qtot 190.009040
; residue  298 ccc rtp ccc q 0.0
 8161         c3    298    ccc     C1   8161 -0.33178800  12.010000   ; qtot 189.677252
 8162         c3    298    ccc     C2   8162 0.30606500  12.010000   ; qtot 189.983317
 8163         h1    298    ccc     H1   8163 0.11662300   1.008000   ; qtot 190.099940
 8164         h1    298    ccc     H2   8164 0.11526800   1.008000   ; qtot 190.215208
 8165         c3    298    ccc     C3   8165 0.15592700  12.010000   ; qtot 190.371135
 8166         c3    298    ccc     C4   8166 0.28383300  12.010000   ; qtot 190.654968
 8167         c3    298    ccc     C5   8167 0.32403300  12.010000   ; qtot 190.979001
 8168         h1    298    ccc     H3   8168 0.13386900   1.008000   ; qtot 191.112870
 8169         h1    298    ccc     H4   8169 0.10146700   1.008000   ; qtot 191.214337
 8170         h2    298    ccc     H5   8170 0.10960400   1.008000   ; qtot 191.323941
 8171         os    298    ccc     O1   8171 -0.28650000  16.000000   ; qtot 191.037441
 8172         oh    298    ccc     O2   8172 -0.86012500  16.000000   ; qtot 190.177316
 8173         oh    298    ccc     O3   8173 -0.83772800  16.000000   ; qtot 189.339588
 8174         oh    298    ccc     O4   8174 -0.77449700  16.000000   ; qtot 188.565091
 8175         c3    298    ccc     C6   8175 0.37576500  12.010000   ; qtot 188.940856
 8176         ho    298    ccc     H6   8176 0.53656000   1.008000   ; qtot 189.477416
 8177         ho    298    ccc     H7   8177 0.49492100   1.008000   ; qtot 189.972337
 8178         ho    298    ccc     H8   8178 0.51297200   1.008000   ; qtot 190.485309
 8179         h1    298    ccc     H9   8179 0.05653400   1.008000   ; qtot 190.541843
 8180         h1    298    ccc    H10   8180 0.05653400   1.008000   ; qtot 190.598377
 8181         oh    298    ccc     O5   8181 -0.84113600  16.000000   ; qtot 189.757241
 8182         ho    298    ccc    H11   8182 0.51201600   1.008000   ; qtot 190.269257
 8183         os    298    ccc     O6   8183 -0.26013600  16.000000   ; qtot 190.009121
; residue  299 ccc rtp ccc q 0.0
 8184         c3    299    ccc     C1   8184 -0.33178800  12.010000   ; qtot 189.677333
 8185         c3    299    ccc     C2   8185 0.30606500  12.010000   ; qtot 189.983398
 8186         h1    299    ccc     H1   8186 0.11662300   1.008000   ; qtot 190.100021
 8187         h1    299    ccc     H2   8187 0.11526800   1.008000   ; qtot 190.215289
 8188         c3    299    ccc     C3   8188 0.15592700  12.010000   ; qtot 190.371216
 8189         c3    299    ccc     C4   8189 0.28383300  12.010000   ; qtot 190.655049
 8190         c3    299    ccc     C5   8190 0.32403300  12.010000   ; qtot 190.979082
 8191         h1    299    ccc     H3   8191 0.13386900   1.008000   ; qtot 191.112951
 8192         h1    299    ccc     H4   8192 0.10146700   1.008000   ; qtot 191.214418
 8193         h2    299    ccc     H5   8193 0.10960400   1.008000   ; qtot 191.324022
 8194         os    299    ccc     O1   8194 -0.28650000  16.000000   ; qtot 191.037522
 8195         oh    299    ccc     O2   8195 -0.86012500  16.000000   ; qtot 190.177397
 8196         oh    299    ccc     O3   8196 -0.83772800  16.000000   ; qtot 189.339669
 8197         oh    299    ccc     O4   8197 -0.77449700  16.000000   ; qtot 188.565172
 8198         c3    299    ccc     C6   8198 0.37576500  12.010000   ; qtot 188.940937
 8199         ho    299    ccc     H6   8199 0.53656000   1.008000   ; qtot 189.477497
 8200         ho    299    ccc     H7   8200 0.49492100   1.008000   ; qtot 189.972418
 8201         ho    299    ccc     H8   8201 0.51297200   1.008000   ; qtot 190.485390
 8202         h1    299    ccc     H9   8202 0.05653400   1.008000   ; qtot 190.541924
 8203         h1    299    ccc    H10   8203 0.05653400   1.008000   ; qtot 190.598458
 8204         oh    299    ccc     O5   8204 -0.84113600  16.000000   ; qtot 189.757322
 8205         ho    299    ccc    H11   8205 0.51201600   1.008000   ; qtot 190.269338
 8206         os    299    ccc     O6   8206 -0.26013600  16.000000   ; qtot 190.009202
; residue  300 ccc rtp ccc q 0.0
 8207         c3    300    ccc     C1   8207 -0.33178800  12.010000   ; qtot 189.677414
 8208         c3    300    ccc     C2   8208 0.30606500  12.010000   ; qtot 189.983479
 8209         h1    300    ccc     H1   8209 0.11662300   1.008000   ; qtot 190.100102
 8210         h1    300    ccc     H2   8210 0.11526800   1.008000   ; qtot 190.215370
 8211         c3    300    ccc     C3   8211 0.15592700  12.010000   ; qtot 190.371297
 8212         c3    300    ccc     C4   8212 0.28383300  12.010000   ; qtot 190.655130
 8213         c3    300    ccc     C5   8213 0.32403300  12.010000   ; qtot 190.979163
 8214         h1    300    ccc     H3   8214 0.13386900   1.008000   ; qtot 191.113032
 8215         h1    300    ccc     H4   8215 0.10146700   1.008000   ; qtot 191.214499
 8216         h2    300    ccc     H5   8216 0.10960400   1.008000   ; qtot 191.324103
 8217         os    300    ccc     O1   8217 -0.28650000  16.000000   ; qtot 191.037603
 8218         oh    300    ccc     O2   8218 -0.86012500  16.000000   ; qtot 190.177478
 8219         oh    300    ccc     O3   8219 -0.83772800  16.000000   ; qtot 189.339750
 8220         oh    300    ccc     O4   8220 -0.77449700  16.000000   ; qtot 188.565253
 8221         c3    300    ccc     C6   8221 0.37576500  12.010000   ; qtot 188.941018
 8222         ho    300    ccc     H6   8222 0.53656000   1.008000   ; qtot 189.477578
 8223         ho    300    ccc     H7   8223 0.49492100   1.008000   ; qtot 189.972499
 8224         ho    300    ccc     H8   8224 0.51297200   1.008000   ; qtot 190.485471
 8225         h1    300    ccc     H9   8225 0.05653400   1.008000   ; qtot 190.542005
 8226         h1    300    ccc    H10   8226 0.05653400   1.008000   ; qtot 190.598539
 8227         oh    300    ccc     O5   8227 -0.84113600  16.000000   ; qtot 189.757403
 8228         ho    300    ccc    H11   8228 0.51201600   1.008000   ; qtot 190.269419
 8229         os    300    ccc     O6   8229 -0.26013600  16.000000   ; qtot 190.009283
; residue  301 ccc rtp ccc q 0.0
 8230         c3    301    ccc     C1   8230 -0.33178800  12.010000   ; qtot 189.677495
 8231         c3    301    ccc     C2   8231 0.30606500  12.010000   ; qtot 189.983560
 8232         h1    301    ccc     H1   8232 0.11662300   1.008000   ; qtot 190.100183
 8233         h1    301    ccc     H2   8233 0.11526800   1.008000   ; qtot 190.215451
 8234         c3    301    ccc     C3   8234 0.15592700  12.010000   ; qtot 190.371378
 8235         c3    301    ccc     C4   8235 0.28383300  12.010000   ; qtot 190.655211
 8236         c3    301    ccc     C5   8236 0.32403300  12.010000   ; qtot 190.979244
 8237         h1    301    ccc     H3   8237 0.13386900   1.008000   ; qtot 191.113113
 8238         h1    301    ccc     H4   8238 0.10146700   1.008000   ; qtot 191.214580
 8239         h2    301    ccc     H5   8239 0.10960400   1.008000   ; qtot 191.324184
 8240         os    301    ccc     O1   8240 -0.28650000  16.000000   ; qtot 191.037684
 8241         oh    301    ccc     O2   8241 -0.86012500  16.000000   ; qtot 190.177559
 8242         oh    301    ccc     O3   8242 -0.83772800  16.000000   ; qtot 189.339831
 8243         oh    301    ccc     O4   8243 -0.77449700  16.000000   ; qtot 188.565334
 8244         c3    301    ccc     C6   8244 0.37576500  12.010000   ; qtot 188.941099
 8245         ho    301    ccc     H6   8245 0.53656000   1.008000   ; qtot 189.477659
 8246         ho    301    ccc     H7   8246 0.49492100   1.008000   ; qtot 189.972580
 8247         ho    301    ccc     H8   8247 0.51297200   1.008000   ; qtot 190.485552
 8248         h1    301    ccc     H9   8248 0.05653400   1.008000   ; qtot 190.542086
 8249         h1    301    ccc    H10   8249 0.05653400   1.008000   ; qtot 190.598620
 8250         oh    301    ccc     O5   8250 -0.84113600  16.000000   ; qtot 189.757484
 8251         ho    301    ccc    H11   8251 0.51201600   1.008000   ; qtot 190.269500
 8252         os    301    ccc     O6   8252 -0.26013600  16.000000   ; qtot 190.009364
; residue  302 ccc rtp ccc q 0.0
 8253         c3    302    ccc     C1   8253 -0.33178800  12.010000   ; qtot 189.677576
 8254         c3    302    ccc     C2   8254 0.30606500  12.010000   ; qtot 189.983641
 8255         h1    302    ccc     H1   8255 0.11662300   1.008000   ; qtot 190.100264
 8256         h1    302    ccc     H2   8256 0.11526800   1.008000   ; qtot 190.215532
 8257         c3    302    ccc     C3   8257 0.15592700  12.010000   ; qtot 190.371459
 8258         c3    302    ccc     C4   8258 0.28383300  12.010000   ; qtot 190.655292
 8259         c3    302    ccc     C5   8259 0.32403300  12.010000   ; qtot 190.979325
 8260         h1    302    ccc     H3   8260 0.13386900   1.008000   ; qtot 191.113194
 8261         h1    302    ccc     H4   8261 0.10146700   1.008000   ; qtot 191.214661
 8262         h2    302    ccc     H5   8262 0.10960400   1.008000   ; qtot 191.324265
 8263         os    302    ccc     O1   8263 -0.28650000  16.000000   ; qtot 191.037765
 8264         oh    302    ccc     O2   8264 -0.86012500  16.000000   ; qtot 190.177640
 8265         oh    302    ccc     O3   8265 -0.83772800  16.000000   ; qtot 189.339912
 8266         oh    302    ccc     O4   8266 -0.77449700  16.000000   ; qtot 188.565415
 8267         c3    302    ccc     C6   8267 0.37576500  12.010000   ; qtot 188.941180
 8268         ho    302    ccc     H6   8268 0.53656000   1.008000   ; qtot 189.477740
 8269         ho    302    ccc     H7   8269 0.49492100   1.008000   ; qtot 189.972661
 8270         ho    302    ccc     H8   8270 0.51297200   1.008000   ; qtot 190.485633
 8271         h1    302    ccc     H9   8271 0.05653400   1.008000   ; qtot 190.542167
 8272         h1    302    ccc    H10   8272 0.05653400   1.008000   ; qtot 190.598701
 8273         oh    302    ccc     O5   8273 -0.84113600  16.000000   ; qtot 189.757565
 8274         ho    302    ccc    H11   8274 0.51201600   1.008000   ; qtot 190.269581
 8275         os    302    ccc     O6   8275 -0.26013600  16.000000   ; qtot 190.009445
; residue  303 ccc rtp ccc q 0.0
 8276         c3    303    ccc     C1   8276 -0.33178800  12.010000   ; qtot 189.677657
 8277         c3    303    ccc     C2   8277 0.30606500  12.010000   ; qtot 189.983722
 8278         h1    303    ccc     H1   8278 0.11662300   1.008000   ; qtot 190.100345
 8279         h1    303    ccc     H2   8279 0.11526800   1.008000   ; qtot 190.215613
 8280         c3    303    ccc     C3   8280 0.15592700  12.010000   ; qtot 190.371540
 8281         c3    303    ccc     C4   8281 0.28383300  12.010000   ; qtot 190.655373
 8282         c3    303    ccc     C5   8282 0.32403300  12.010000   ; qtot 190.979406
 8283         h1    303    ccc     H3   8283 0.13386900   1.008000   ; qtot 191.113275
 8284         h1    303    ccc     H4   8284 0.10146700   1.008000   ; qtot 191.214742
 8285         h2    303    ccc     H5   8285 0.10960400   1.008000   ; qtot 191.324346
 8286         os    303    ccc     O1   8286 -0.28650000  16.000000   ; qtot 191.037846
 8287         oh    303    ccc     O2   8287 -0.86012500  16.000000   ; qtot 190.177721
 8288         oh    303    ccc     O3   8288 -0.83772800  16.000000   ; qtot 189.339993
 8289         oh    303    ccc     O4   8289 -0.77449700  16.000000   ; qtot 188.565496
 8290         c3    303    ccc     C6   8290 0.37576500  12.010000   ; qtot 188.941261
 8291         ho    303    ccc     H6   8291 0.53656000   1.008000   ; qtot 189.477821
 8292         ho    303    ccc     H7   8292 0.49492100   1.008000   ; qtot 189.972742
 8293         ho    303    ccc     H8   8293 0.51297200   1.008000   ; qtot 190.485714
 8294         h1    303    ccc     H9   8294 0.05653400   1.008000   ; qtot 190.542248
 8295         h1    303    ccc    H10   8295 0.05653400   1.008000   ; qtot 190.598782
 8296         oh    303    ccc     O5   8296 -0.84113600  16.000000   ; qtot 189.757646
 8297         ho    303    ccc    H11   8297 0.51201600   1.008000   ; qtot 190.269662
 8298         os    303    ccc     O6   8298 -0.26013600  16.000000   ; qtot 190.009526
; residue  304 ccc rtp ccc q 0.0
 8299         c3    304    ccc     C1   8299 -0.33178800  12.010000   ; qtot 189.677738
 8300         c3    304    ccc     C2   8300 0.30606500  12.010000   ; qtot 189.983803
 8301         h1    304    ccc     H1   8301 0.11662300   1.008000   ; qtot 190.100426
 8302         h1    304    ccc     H2   8302 0.11526800   1.008000   ; qtot 190.215694
 8303         c3    304    ccc     C3   8303 0.15592700  12.010000   ; qtot 190.371621
 8304         c3    304    ccc     C4   8304 0.28383300  12.010000   ; qtot 190.655454
 8305         c3    304    ccc     C5   8305 0.32403300  12.010000   ; qtot 190.979487
 8306         h1    304    ccc     H3   8306 0.13386900   1.008000   ; qtot 191.113356
 8307         h1    304    ccc     H4   8307 0.10146700   1.008000   ; qtot 191.214823
 8308         h2    304    ccc     H5   8308 0.10960400   1.008000   ; qtot 191.324427
 8309         os    304    ccc     O1   8309 -0.28650000  16.000000   ; qtot 191.037927
 8310         oh    304    ccc     O2   8310 -0.86012500  16.000000   ; qtot 190.177802
 8311         oh    304    ccc     O3   8311 -0.83772800  16.000000   ; qtot 189.340074
 8312         oh    304    ccc     O4   8312 -0.77449700  16.000000   ; qtot 188.565577
 8313         c3    304    ccc     C6   8313 0.37576500  12.010000   ; qtot 188.941342
 8314         ho    304    ccc     H6   8314 0.53656000   1.008000   ; qtot 189.477902
 8315         ho    304    ccc     H7   8315 0.49492100   1.008000   ; qtot 189.972823
 8316         ho    304    ccc     H8   8316 0.51297200   1.008000   ; qtot 190.485795
 8317         h1    304    ccc     H9   8317 0.05653400   1.008000   ; qtot 190.542329
 8318         h1    304    ccc    H10   8318 0.05653400   1.008000   ; qtot 190.598863
 8319         oh    304    ccc     O5   8319 -0.84113600  16.000000   ; qtot 189.757727
 8320         ho    304    ccc    H11   8320 0.51201600   1.008000   ; qtot 190.269743
 8321         os    304    ccc     O6   8321 -0.26013600  16.000000   ; qtot 190.009607
; residue  305 ccc rtp ccc q 0.0
 8322         c3    305    ccc     C1   8322 -0.33178800  12.010000   ; qtot 189.677819
 8323         c3    305    ccc     C2   8323 0.30606500  12.010000   ; qtot 189.983884
 8324         h1    305    ccc     H1   8324 0.11662300   1.008000   ; qtot 190.100507
 8325         h1    305    ccc     H2   8325 0.11526800   1.008000   ; qtot 190.215775
 8326         c3    305    ccc     C3   8326 0.15592700  12.010000   ; qtot 190.371702
 8327         c3    305    ccc     C4   8327 0.28383300  12.010000   ; qtot 190.655535
 8328         c3    305    ccc     C5   8328 0.32403300  12.010000   ; qtot 190.979568
 8329         h1    305    ccc     H3   8329 0.13386900   1.008000   ; qtot 191.113437
 8330         h1    305    ccc     H4   8330 0.10146700   1.008000   ; qtot 191.214904
 8331         h2    305    ccc     H5   8331 0.10960400   1.008000   ; qtot 191.324508
 8332         os    305    ccc     O1   8332 -0.28650000  16.000000   ; qtot 191.038008
 8333         oh    305    ccc     O2   8333 -0.86012500  16.000000   ; qtot 190.177883
 8334         oh    305    ccc     O3   8334 -0.83772800  16.000000   ; qtot 189.340155
 8335         oh    305    ccc     O4   8335 -0.77449700  16.000000   ; qtot 188.565658
 8336         c3    305    ccc     C6   8336 0.37576500  12.010000   ; qtot 188.941423
 8337         ho    305    ccc     H6   8337 0.53656000   1.008000   ; qtot 189.477983
 8338         ho    305    ccc     H7   8338 0.49492100   1.008000   ; qtot 189.972904
 8339         ho    305    ccc     H8   8339 0.51297200   1.008000   ; qtot 190.485876
 8340         h1    305    ccc     H9   8340 0.05653400   1.008000   ; qtot 190.542410
 8341         h1    305    ccc    H10   8341 0.05653400   1.008000   ; qtot 190.598944
 8342         oh    305    ccc     O5   8342 -0.84113600  16.000000   ; qtot 189.757808
 8343         ho    305    ccc    H11   8343 0.51201600   1.008000   ; qtot 190.269824
 8344         os    305    ccc     O6   8344 -0.26013600  16.000000   ; qtot 190.009688
; residue  306 ccc rtp ccc q 0.0
 8345         c3    306    ccc     C1   8345 -0.33178800  12.010000   ; qtot 189.677900
 8346         c3    306    ccc     C2   8346 0.30606500  12.010000   ; qtot 189.983965
 8347         h1    306    ccc     H1   8347 0.11662300   1.008000   ; qtot 190.100588
 8348         h1    306    ccc     H2   8348 0.11526800   1.008000   ; qtot 190.215856
 8349         c3    306    ccc     C3   8349 0.15592700  12.010000   ; qtot 190.371783
 8350         c3    306    ccc     C4   8350 0.28383300  12.010000   ; qtot 190.655616
 8351         c3    306    ccc     C5   8351 0.32403300  12.010000   ; qtot 190.979649
 8352         h1    306    ccc     H3   8352 0.13386900   1.008000   ; qtot 191.113518
 8353         h1    306    ccc     H4   8353 0.10146700   1.008000   ; qtot 191.214985
 8354         h2    306    ccc     H5   8354 0.10960400   1.008000   ; qtot 191.324589
 8355         os    306    ccc     O1   8355 -0.28650000  16.000000   ; qtot 191.038089
 8356         oh    306    ccc     O2   8356 -0.86012500  16.000000   ; qtot 190.177964
 8357         oh    306    ccc     O3   8357 -0.83772800  16.000000   ; qtot 189.340236
 8358         oh    306    ccc     O4   8358 -0.77449700  16.000000   ; qtot 188.565739
 8359         c3    306    ccc     C6   8359 0.37576500  12.010000   ; qtot 188.941504
 8360         ho    306    ccc     H6   8360 0.53656000   1.008000   ; qtot 189.478064
 8361         ho    306    ccc     H7   8361 0.49492100   1.008000   ; qtot 189.972985
 8362         ho    306    ccc     H8   8362 0.51297200   1.008000   ; qtot 190.485957
 8363         h1    306    ccc     H9   8363 0.05653400   1.008000   ; qtot 190.542491
 8364         h1    306    ccc    H10   8364 0.05653400   1.008000   ; qtot 190.599025
 8365         oh    306    ccc     O5   8365 -0.84113600  16.000000   ; qtot 189.757889
 8366         ho    306    ccc    H11   8366 0.51201600   1.008000   ; qtot 190.269905
 8367         os    306    ccc     O6   8367 -0.26013600  16.000000   ; qtot 190.009769
; residue  307 ccc rtp ccc q 0.0
 8368         c3    307    ccc     C1   8368 -0.33178800  12.010000   ; qtot 189.677981
 8369         c3    307    ccc     C2   8369 0.30606500  12.010000   ; qtot 189.984046
 8370         h1    307    ccc     H1   8370 0.11662300   1.008000   ; qtot 190.100669
 8371         h1    307    ccc     H2   8371 0.11526800   1.008000   ; qtot 190.215937
 8372         c3    307    ccc     C3   8372 0.15592700  12.010000   ; qtot 190.371864
 8373         c3    307    ccc     C4   8373 0.28383300  12.010000   ; qtot 190.655697
 8374         c3    307    ccc     C5   8374 0.32403300  12.010000   ; qtot 190.979730
 8375         h1    307    ccc     H3   8375 0.13386900   1.008000   ; qtot 191.113599
 8376         h1    307    ccc     H4   8376 0.10146700   1.008000   ; qtot 191.215066
 8377         h2    307    ccc     H5   8377 0.10960400   1.008000   ; qtot 191.324670
 8378         os    307    ccc     O1   8378 -0.28650000  16.000000   ; qtot 191.038170
 8379         oh    307    ccc     O2   8379 -0.86012500  16.000000   ; qtot 190.178045
 8380         oh    307    ccc     O3   8380 -0.83772800  16.000000   ; qtot 189.340317
 8381         oh    307    ccc     O4   8381 -0.77449700  16.000000   ; qtot 188.565820
 8382         c3    307    ccc     C6   8382 0.37576500  12.010000   ; qtot 188.941585
 8383         ho    307    ccc     H6   8383 0.53656000   1.008000   ; qtot 189.478145
 8384         ho    307    ccc     H7   8384 0.49492100   1.008000   ; qtot 189.973066
 8385         ho    307    ccc     H8   8385 0.51297200   1.008000   ; qtot 190.486038
 8386         h1    307    ccc     H9   8386 0.05653400   1.008000   ; qtot 190.542572
 8387         h1    307    ccc    H10   8387 0.05653400   1.008000   ; qtot 190.599106
 8388         oh    307    ccc     O5   8388 -0.84113600  16.000000   ; qtot 189.757970
 8389         ho    307    ccc    H11   8389 0.51201600   1.008000   ; qtot 190.269986
 8390         os    307    ccc     O6   8390 -0.26013600  16.000000   ; qtot 190.009850
; residue  308 ccc rtp ccc q 0.0
 8391         c3    308    ccc     C1   8391 -0.33178800  12.010000   ; qtot 189.678062
 8392         c3    308    ccc     C2   8392 0.30606500  12.010000   ; qtot 189.984127
 8393         h1    308    ccc     H1   8393 0.11662300   1.008000   ; qtot 190.100750
 8394         h1    308    ccc     H2   8394 0.11526800   1.008000   ; qtot 190.216018
 8395         c3    308    ccc     C3   8395 0.15592700  12.010000   ; qtot 190.371945
 8396         c3    308    ccc     C4   8396 0.28383300  12.010000   ; qtot 190.655778
 8397         c3    308    ccc     C5   8397 0.32403300  12.010000   ; qtot 190.979811
 8398         h1    308    ccc     H3   8398 0.13386900   1.008000   ; qtot 191.113680
 8399         h1    308    ccc     H4   8399 0.10146700   1.008000   ; qtot 191.215147
 8400         h2    308    ccc     H5   8400 0.10960400   1.008000   ; qtot 191.324751
 8401         os    308    ccc     O1   8401 -0.28650000  16.000000   ; qtot 191.038251
 8402         oh    308    ccc     O2   8402 -0.86012500  16.000000   ; qtot 190.178126
 8403         oh    308    ccc     O3   8403 -0.83772800  16.000000   ; qtot 189.340398
 8404         oh    308    ccc     O4   8404 -0.77449700  16.000000   ; qtot 188.565901
 8405         c3    308    ccc     C6   8405 0.37576500  12.010000   ; qtot 188.941666
 8406         ho    308    ccc     H6   8406 0.53656000   1.008000   ; qtot 189.478226
 8407         ho    308    ccc     H7   8407 0.49492100   1.008000   ; qtot 189.973147
 8408         ho    308    ccc     H8   8408 0.51297200   1.008000   ; qtot 190.486119
 8409         h1    308    ccc     H9   8409 0.05653400   1.008000   ; qtot 190.542653
 8410         h1    308    ccc    H10   8410 0.05653400   1.008000   ; qtot 190.599187
 8411         oh    308    ccc     O5   8411 -0.84113600  16.000000   ; qtot 189.758051
 8412         ho    308    ccc    H11   8412 0.51201600   1.008000   ; qtot 190.270067
 8413         os    308    ccc     O6   8413 -0.26013600  16.000000   ; qtot 190.009931
; residue  309 ccc rtp ccc q 0.0
 8414         c3    309    ccc     C1   8414 -0.33178800  12.010000   ; qtot 189.678143
 8415         c3    309    ccc     C2   8415 0.30606500  12.010000   ; qtot 189.984208
 8416         h1    309    ccc     H1   8416 0.11662300   1.008000   ; qtot 190.100831
 8417         h1    309    ccc     H2   8417 0.11526800   1.008000   ; qtot 190.216099
 8418         c3    309    ccc     C3   8418 0.15592700  12.010000   ; qtot 190.372026
 8419         c3    309    ccc     C4   8419 0.28383300  12.010000   ; qtot 190.655859
 8420         c3    309    ccc     C5   8420 0.32403300  12.010000   ; qtot 190.979892
 8421         h1    309    ccc     H3   8421 0.13386900   1.008000   ; qtot 191.113761
 8422         h1    309    ccc     H4   8422 0.10146700   1.008000   ; qtot 191.215228
 8423         h2    309    ccc     H5   8423 0.10960400   1.008000   ; qtot 191.324832
 8424         os    309    ccc     O1   8424 -0.28650000  16.000000   ; qtot 191.038332
 8425         oh    309    ccc     O2   8425 -0.86012500  16.000000   ; qtot 190.178207
 8426         oh    309    ccc     O3   8426 -0.83772800  16.000000   ; qtot 189.340479
 8427         oh    309    ccc     O4   8427 -0.77449700  16.000000   ; qtot 188.565982
 8428         c3    309    ccc     C6   8428 0.37576500  12.010000   ; qtot 188.941747
 8429         ho    309    ccc     H6   8429 0.53656000   1.008000   ; qtot 189.478307
 8430         ho    309    ccc     H7   8430 0.49492100   1.008000   ; qtot 189.973228
 8431         ho    309    ccc     H8   8431 0.51297200   1.008000   ; qtot 190.486200
 8432         h1    309    ccc     H9   8432 0.05653400   1.008000   ; qtot 190.542734
 8433         h1    309    ccc    H10   8433 0.05653400   1.008000   ; qtot 190.599268
 8434         oh    309    ccc     O5   8434 -0.84113600  16.000000   ; qtot 189.758132
 8435         ho    309    ccc    H11   8435 0.51201600   1.008000   ; qtot 190.270148
 8436         os    309    ccc     O6   8436 -0.26013600  16.000000   ; qtot 190.010012
; residue  310 ccc rtp ccc q 0.0
 8437         c3    310    ccc     C1   8437 -0.33178800  12.010000   ; qtot 189.678224
 8438         c3    310    ccc     C2   8438 0.30606500  12.010000   ; qtot 189.984289
 8439         h1    310    ccc     H1   8439 0.11662300   1.008000   ; qtot 190.100912
 8440         h1    310    ccc     H2   8440 0.11526800   1.008000   ; qtot 190.216180
 8441         c3    310    ccc     C3   8441 0.15592700  12.010000   ; qtot 190.372107
 8442         c3    310    ccc     C4   8442 0.28383300  12.010000   ; qtot 190.655940
 8443         c3    310    ccc     C5   8443 0.32403300  12.010000   ; qtot 190.979973
 8444         h1    310    ccc     H3   8444 0.13386900   1.008000   ; qtot 191.113842
 8445         h1    310    ccc     H4   8445 0.10146700   1.008000   ; qtot 191.215309
 8446         h2    310    ccc     H5   8446 0.10960400   1.008000   ; qtot 191.324913
 8447         os    310    ccc     O1   8447 -0.28650000  16.000000   ; qtot 191.038413
 8448         oh    310    ccc     O2   8448 -0.86012500  16.000000   ; qtot 190.178288
 8449         oh    310    ccc     O3   8449 -0.83772800  16.000000   ; qtot 189.340560
 8450         oh    310    ccc     O4   8450 -0.77449700  16.000000   ; qtot 188.566063
 8451         c3    310    ccc     C6   8451 0.37576500  12.010000   ; qtot 188.941828
 8452         ho    310    ccc     H6   8452 0.53656000   1.008000   ; qtot 189.478388
 8453         ho    310    ccc     H7   8453 0.49492100   1.008000   ; qtot 189.973309
 8454         ho    310    ccc     H8   8454 0.51297200   1.008000   ; qtot 190.486281
 8455         h1    310    ccc     H9   8455 0.05653400   1.008000   ; qtot 190.542815
 8456         h1    310    ccc    H10   8456 0.05653400   1.008000   ; qtot 190.599349
 8457         oh    310    ccc     O5   8457 -0.84113600  16.000000   ; qtot 189.758213
 8458         ho    310    ccc    H11   8458 0.51201600   1.008000   ; qtot 190.270229
 8459         os    310    ccc     O6   8459 -0.26013600  16.000000   ; qtot 190.010093
; residue  311 ccc rtp ccc q 0.0
 8460         c3    311    ccc     C1   8460 -0.33178800  12.010000   ; qtot 189.678305
 8461         c3    311    ccc     C2   8461 0.30606500  12.010000   ; qtot 189.984370
 8462         h1    311    ccc     H1   8462 0.11662300   1.008000   ; qtot 190.100993
 8463         h1    311    ccc     H2   8463 0.11526800   1.008000   ; qtot 190.216261
 8464         c3    311    ccc     C3   8464 0.15592700  12.010000   ; qtot 190.372188
 8465         c3    311    ccc     C4   8465 0.28383300  12.010000   ; qtot 190.656021
 8466         c3    311    ccc     C5   8466 0.32403300  12.010000   ; qtot 190.980054
 8467         h1    311    ccc     H3   8467 0.13386900   1.008000   ; qtot 191.113923
 8468         h1    311    ccc     H4   8468 0.10146700   1.008000   ; qtot 191.215390
 8469         h2    311    ccc     H5   8469 0.10960400   1.008000   ; qtot 191.324994
 8470         os    311    ccc     O1   8470 -0.28650000  16.000000   ; qtot 191.038494
 8471         oh    311    ccc     O2   8471 -0.86012500  16.000000   ; qtot 190.178369
 8472         oh    311    ccc     O3   8472 -0.83772800  16.000000   ; qtot 189.340641
 8473         oh    311    ccc     O4   8473 -0.77449700  16.000000   ; qtot 188.566144
 8474         c3    311    ccc     C6   8474 0.37576500  12.010000   ; qtot 188.941909
 8475         ho    311    ccc     H6   8475 0.53656000   1.008000   ; qtot 189.478469
 8476         ho    311    ccc     H7   8476 0.49492100   1.008000   ; qtot 189.973390
 8477         ho    311    ccc     H8   8477 0.51297200   1.008000   ; qtot 190.486362
 8478         h1    311    ccc     H9   8478 0.05653400   1.008000   ; qtot 190.542896
 8479         h1    311    ccc    H10   8479 0.05653400   1.008000   ; qtot 190.599430
 8480         oh    311    ccc     O5   8480 -0.84113600  16.000000   ; qtot 189.758294
 8481         ho    311    ccc    H11   8481 0.51201600   1.008000   ; qtot 190.270310
 8482         os    311    ccc     O6   8482 -0.26013600  16.000000   ; qtot 190.010174
; residue  312 ccc rtp ccc q 0.0
 8483         c3    312    ccc     C1   8483 -0.33178800  12.010000   ; qtot 189.678386
 8484         c3    312    ccc     C2   8484 0.30606500  12.010000   ; qtot 189.984451
 8485         h1    312    ccc     H1   8485 0.11662300   1.008000   ; qtot 190.101074
 8486         h1    312    ccc     H2   8486 0.11526800   1.008000   ; qtot 190.216342
 8487         c3    312    ccc     C3   8487 0.15592700  12.010000   ; qtot 190.372269
 8488         c3    312    ccc     C4   8488 0.28383300  12.010000   ; qtot 190.656102
 8489         c3    312    ccc     C5   8489 0.32403300  12.010000   ; qtot 190.980135
 8490         h1    312    ccc     H3   8490 0.13386900   1.008000   ; qtot 191.114004
 8491         h1    312    ccc     H4   8491 0.10146700   1.008000   ; qtot 191.215471
 8492         h2    312    ccc     H5   8492 0.10960400   1.008000   ; qtot 191.325075
 8493         os    312    ccc     O1   8493 -0.28650000  16.000000   ; qtot 191.038575
 8494         oh    312    ccc     O2   8494 -0.86012500  16.000000   ; qtot 190.178450
 8495         oh    312    ccc     O3   8495 -0.83772800  16.000000   ; qtot 189.340722
 8496         oh    312    ccc     O4   8496 -0.77449700  16.000000   ; qtot 188.566225
 8497         c3    312    ccc     C6   8497 0.37576500  12.010000   ; qtot 188.941990
 8498         ho    312    ccc     H6   8498 0.53656000   1.008000   ; qtot 189.478550
 8499         ho    312    ccc     H7   8499 0.49492100   1.008000   ; qtot 189.973471
 8500         ho    312    ccc     H8   8500 0.51297200   1.008000   ; qtot 190.486443
 8501         h1    312    ccc     H9   8501 0.05653400   1.008000   ; qtot 190.542977
 8502         h1    312    ccc    H10   8502 0.05653400   1.008000   ; qtot 190.599511
 8503         oh    312    ccc     O5   8503 -0.84113600  16.000000   ; qtot 189.758375
 8504         ho    312    ccc    H11   8504 0.51201600   1.008000   ; qtot 190.270391
 8505         os    312    ccc     O6   8505 -0.26013600  16.000000   ; qtot 190.010255
; residue  313 ccc rtp ccc q 0.0
 8506         c3    313    ccc     C1   8506 -0.33178800  12.010000   ; qtot 189.678467
 8507         c3    313    ccc     C2   8507 0.30606500  12.010000   ; qtot 189.984532
 8508         h1    313    ccc     H1   8508 0.11662300   1.008000   ; qtot 190.101155
 8509         h1    313    ccc     H2   8509 0.11526800   1.008000   ; qtot 190.216423
 8510         c3    313    ccc     C3   8510 0.15592700  12.010000   ; qtot 190.372350
 8511         c3    313    ccc     C4   8511 0.28383300  12.010000   ; qtot 190.656183
 8512         c3    313    ccc     C5   8512 0.32403300  12.010000   ; qtot 190.980216
 8513         h1    313    ccc     H3   8513 0.13386900   1.008000   ; qtot 191.114085
 8514         h1    313    ccc     H4   8514 0.10146700   1.008000   ; qtot 191.215552
 8515         h2    313    ccc     H5   8515 0.10960400   1.008000   ; qtot 191.325156
 8516         os    313    ccc     O1   8516 -0.28650000  16.000000   ; qtot 191.038656
 8517         oh    313    ccc     O2   8517 -0.86012500  16.000000   ; qtot 190.178531
 8518         oh    313    ccc     O3   8518 -0.83772800  16.000000   ; qtot 189.340803
 8519         oh    313    ccc     O4   8519 -0.77449700  16.000000   ; qtot 188.566306
 8520         c3    313    ccc     C6   8520 0.37576500  12.010000   ; qtot 188.942071
 8521         ho    313    ccc     H6   8521 0.53656000   1.008000   ; qtot 189.478631
 8522         ho    313    ccc     H7   8522 0.49492100   1.008000   ; qtot 189.973552
 8523         ho    313    ccc     H8   8523 0.51297200   1.008000   ; qtot 190.486524
 8524         h1    313    ccc     H9   8524 0.05653400   1.008000   ; qtot 190.543058
 8525         h1    313    ccc    H10   8525 0.05653400   1.008000   ; qtot 190.599592
 8526         oh    313    ccc     O5   8526 -0.84113600  16.000000   ; qtot 189.758456
 8527         ho    313    ccc    H11   8527 0.51201600   1.008000   ; qtot 190.270472
 8528         os    313    ccc     O6   8528 -0.26013600  16.000000   ; qtot 190.010336
; residue  314 ccc rtp ccc q 0.0
 8529         c3    314    ccc     C1   8529 -0.33178800  12.010000   ; qtot 189.678548
 8530         c3    314    ccc     C2   8530 0.30606500  12.010000   ; qtot 189.984613
 8531         h1    314    ccc     H1   8531 0.11662300   1.008000   ; qtot 190.101236
 8532         h1    314    ccc     H2   8532 0.11526800   1.008000   ; qtot 190.216504
 8533         c3    314    ccc     C3   8533 0.15592700  12.010000   ; qtot 190.372431
 8534         c3    314    ccc     C4   8534 0.28383300  12.010000   ; qtot 190.656264
 8535         c3    314    ccc     C5   8535 0.32403300  12.010000   ; qtot 190.980297
 8536         h1    314    ccc     H3   8536 0.13386900   1.008000   ; qtot 191.114166
 8537         h1    314    ccc     H4   8537 0.10146700   1.008000   ; qtot 191.215633
 8538         h2    314    ccc     H5   8538 0.10960400   1.008000   ; qtot 191.325237
 8539         os    314    ccc     O1   8539 -0.28650000  16.000000   ; qtot 191.038737
 8540         oh    314    ccc     O2   8540 -0.86012500  16.000000   ; qtot 190.178612
 8541         oh    314    ccc     O3   8541 -0.83772800  16.000000   ; qtot 189.340884
 8542         oh    314    ccc     O4   8542 -0.77449700  16.000000   ; qtot 188.566387
 8543         c3    314    ccc     C6   8543 0.37576500  12.010000   ; qtot 188.942152
 8544         ho    314    ccc     H6   8544 0.53656000   1.008000   ; qtot 189.478712
 8545         ho    314    ccc     H7   8545 0.49492100   1.008000   ; qtot 189.973633
 8546         ho    314    ccc     H8   8546 0.51297200   1.008000   ; qtot 190.486605
 8547         h1    314    ccc     H9   8547 0.05653400   1.008000   ; qtot 190.543139
 8548         h1    314    ccc    H10   8548 0.05653400   1.008000   ; qtot 190.599673
 8549         oh    314    ccc     O5   8549 -0.84113600  16.000000   ; qtot 189.758537
 8550         ho    314    ccc    H11   8550 0.51201600   1.008000   ; qtot 190.270553
 8551         os    314    ccc     O6   8551 -0.26013600  16.000000   ; qtot 190.010417
; residue  315 ccc rtp ccc q 0.0
 8552         c3    315    ccc     C1   8552 -0.33178800  12.010000   ; qtot 189.678629
 8553         c3    315    ccc     C2   8553 0.30606500  12.010000   ; qtot 189.984694
 8554         h1    315    ccc     H1   8554 0.11662300   1.008000   ; qtot 190.101317
 8555         h1    315    ccc     H2   8555 0.11526800   1.008000   ; qtot 190.216585
 8556         c3    315    ccc     C3   8556 0.15592700  12.010000   ; qtot 190.372512
 8557         c3    315    ccc     C4   8557 0.28383300  12.010000   ; qtot 190.656345
 8558         c3    315    ccc     C5   8558 0.32403300  12.010000   ; qtot 190.980378
 8559         h1    315    ccc     H3   8559 0.13386900   1.008000   ; qtot 191.114247
 8560         h1    315    ccc     H4   8560 0.10146700   1.008000   ; qtot 191.215714
 8561         h2    315    ccc     H5   8561 0.10960400   1.008000   ; qtot 191.325318
 8562         os    315    ccc     O1   8562 -0.28650000  16.000000   ; qtot 191.038818
 8563         oh    315    ccc     O2   8563 -0.86012500  16.000000   ; qtot 190.178693
 8564         oh    315    ccc     O3   8564 -0.83772800  16.000000   ; qtot 189.340965
 8565         oh    315    ccc     O4   8565 -0.77449700  16.000000   ; qtot 188.566468
 8566         c3    315    ccc     C6   8566 0.37576500  12.010000   ; qtot 188.942233
 8567         ho    315    ccc     H6   8567 0.53656000   1.008000   ; qtot 189.478793
 8568         ho    315    ccc     H7   8568 0.49492100   1.008000   ; qtot 189.973714
 8569         ho    315    ccc     H8   8569 0.51297200   1.008000   ; qtot 190.486686
 8570         h1    315    ccc     H9   8570 0.05653400   1.008000   ; qtot 190.543220
 8571         h1    315    ccc    H10   8571 0.05653400   1.008000   ; qtot 190.599754
 8572         oh    315    ccc     O5   8572 -0.84113600  16.000000   ; qtot 189.758618
 8573         ho    315    ccc    H11   8573 0.51201600   1.008000   ; qtot 190.270634
 8574         os    315    ccc     O6   8574 -0.26013600  16.000000   ; qtot 190.010498
; residue  316 ccc rtp ccc q 0.0
 8575         c3    316    ccc     C1   8575 -0.33178800  12.010000   ; qtot 189.678710
 8576         c3    316    ccc     C2   8576 0.30606500  12.010000   ; qtot 189.984775
 8577         h1    316    ccc     H1   8577 0.11662300   1.008000   ; qtot 190.101398
 8578         h1    316    ccc     H2   8578 0.11526800   1.008000   ; qtot 190.216666
 8579         c3    316    ccc     C3   8579 0.15592700  12.010000   ; qtot 190.372593
 8580         c3    316    ccc     C4   8580 0.28383300  12.010000   ; qtot 190.656426
 8581         c3    316    ccc     C5   8581 0.32403300  12.010000   ; qtot 190.980459
 8582         h1    316    ccc     H3   8582 0.13386900   1.008000   ; qtot 191.114328
 8583         h1    316    ccc     H4   8583 0.10146700   1.008000   ; qtot 191.215795
 8584         h2    316    ccc     H5   8584 0.10960400   1.008000   ; qtot 191.325399
 8585         os    316    ccc     O1   8585 -0.28650000  16.000000   ; qtot 191.038899
 8586         oh    316    ccc     O2   8586 -0.86012500  16.000000   ; qtot 190.178774
 8587         oh    316    ccc     O3   8587 -0.83772800  16.000000   ; qtot 189.341046
 8588         oh    316    ccc     O4   8588 -0.77449700  16.000000   ; qtot 188.566549
 8589         c3    316    ccc     C6   8589 0.37576500  12.010000   ; qtot 188.942314
 8590         ho    316    ccc     H6   8590 0.53656000   1.008000   ; qtot 189.478874
 8591         ho    316    ccc     H7   8591 0.49492100   1.008000   ; qtot 189.973795
 8592         ho    316    ccc     H8   8592 0.51297200   1.008000   ; qtot 190.486767
 8593         h1    316    ccc     H9   8593 0.05653400   1.008000   ; qtot 190.543301
 8594         h1    316    ccc    H10   8594 0.05653400   1.008000   ; qtot 190.599835
 8595         oh    316    ccc     O5   8595 -0.84113600  16.000000   ; qtot 189.758699
 8596         ho    316    ccc    H11   8596 0.51201600   1.008000   ; qtot 190.270715
 8597         os    316    ccc     O6   8597 -0.26013600  16.000000   ; qtot 190.010579
; residue  317 ccc rtp ccc q 0.0
 8598         c3    317    ccc     C1   8598 -0.33178800  12.010000   ; qtot 189.678791
 8599         c3    317    ccc     C2   8599 0.30606500  12.010000   ; qtot 189.984856
 8600         h1    317    ccc     H1   8600 0.11662300   1.008000   ; qtot 190.101479
 8601         h1    317    ccc     H2   8601 0.11526800   1.008000   ; qtot 190.216747
 8602         c3    317    ccc     C3   8602 0.15592700  12.010000   ; qtot 190.372674
 8603         c3    317    ccc     C4   8603 0.28383300  12.010000   ; qtot 190.656507
 8604         c3    317    ccc     C5   8604 0.32403300  12.010000   ; qtot 190.980540
 8605         h1    317    ccc     H3   8605 0.13386900   1.008000   ; qtot 191.114409
 8606         h1    317    ccc     H4   8606 0.10146700   1.008000   ; qtot 191.215876
 8607         h2    317    ccc     H5   8607 0.10960400   1.008000   ; qtot 191.325480
 8608         os    317    ccc     O1   8608 -0.28650000  16.000000   ; qtot 191.038980
 8609         oh    317    ccc     O2   8609 -0.86012500  16.000000   ; qtot 190.178855
 8610         oh    317    ccc     O3   8610 -0.83772800  16.000000   ; qtot 189.341127
 8611         oh    317    ccc     O4   8611 -0.77449700  16.000000   ; qtot 188.566630
 8612         c3    317    ccc     C6   8612 0.37576500  12.010000   ; qtot 188.942395
 8613         ho    317    ccc     H6   8613 0.53656000   1.008000   ; qtot 189.478955
 8614         ho    317    ccc     H7   8614 0.49492100   1.008000   ; qtot 189.973876
 8615         ho    317    ccc     H8   8615 0.51297200   1.008000   ; qtot 190.486848
 8616         h1    317    ccc     H9   8616 0.05653400   1.008000   ; qtot 190.543382
 8617         h1    317    ccc    H10   8617 0.05653400   1.008000   ; qtot 190.599916
 8618         oh    317    ccc     O5   8618 -0.84113600  16.000000   ; qtot 189.758780
 8619         ho    317    ccc    H11   8619 0.51201600   1.008000   ; qtot 190.270796
 8620         os    317    ccc     O6   8620 -0.26013600  16.000000   ; qtot 190.010660
; residue  318 ccc rtp ccc q 0.0
 8621         c3    318    ccc     C1   8621 -0.33178800  12.010000   ; qtot 189.678872
 8622         c3    318    ccc     C2   8622 0.30606500  12.010000   ; qtot 189.984937
 8623         h1    318    ccc     H1   8623 0.11662300   1.008000   ; qtot 190.101560
 8624         h1    318    ccc     H2   8624 0.11526800   1.008000   ; qtot 190.216828
 8625         c3    318    ccc     C3   8625 0.15592700  12.010000   ; qtot 190.372755
 8626         c3    318    ccc     C4   8626 0.28383300  12.010000   ; qtot 190.656588
 8627         c3    318    ccc     C5   8627 0.32403300  12.010000   ; qtot 190.980621
 8628         h1    318    ccc     H3   8628 0.13386900   1.008000   ; qtot 191.114490
 8629         h1    318    ccc     H4   8629 0.10146700   1.008000   ; qtot 191.215957
 8630         h2    318    ccc     H5   8630 0.10960400   1.008000   ; qtot 191.325561
 8631         os    318    ccc     O1   8631 -0.28650000  16.000000   ; qtot 191.039061
 8632         oh    318    ccc     O2   8632 -0.86012500  16.000000   ; qtot 190.178936
 8633         oh    318    ccc     O3   8633 -0.83772800  16.000000   ; qtot 189.341208
 8634         oh    318    ccc     O4   8634 -0.77449700  16.000000   ; qtot 188.566711
 8635         c3    318    ccc     C6   8635 0.37576500  12.010000   ; qtot 188.942476
 8636         ho    318    ccc     H6   8636 0.53656000   1.008000   ; qtot 189.479036
 8637         ho    318    ccc     H7   8637 0.49492100   1.008000   ; qtot 189.973957
 8638         ho    318    ccc     H8   8638 0.51297200   1.008000   ; qtot 190.486929
 8639         h1    318    ccc     H9   8639 0.05653400   1.008000   ; qtot 190.543463
 8640         h1    318    ccc    H10   8640 0.05653400   1.008000   ; qtot 190.599997
 8641         oh    318    ccc     O5   8641 -0.84113600  16.000000   ; qtot 189.758861
 8642         ho    318    ccc    H11   8642 0.51201600   1.008000   ; qtot 190.270877
 8643         os    318    ccc     O6   8643 -0.26013600  16.000000   ; qtot 190.010741
; residue  319 ccc rtp ccc q 0.0
 8644         c3    319    ccc     C1   8644 -0.33178800  12.010000   ; qtot 189.678953
 8645         c3    319    ccc     C2   8645 0.30606500  12.010000   ; qtot 189.985018
 8646         h1    319    ccc     H1   8646 0.11662300   1.008000   ; qtot 190.101641
 8647         h1    319    ccc     H2   8647 0.11526800   1.008000   ; qtot 190.216909
 8648         c3    319    ccc     C3   8648 0.15592700  12.010000   ; qtot 190.372836
 8649         c3    319    ccc     C4   8649 0.28383300  12.010000   ; qtot 190.656669
 8650         c3    319    ccc     C5   8650 0.32403300  12.010000   ; qtot 190.980702
 8651         h1    319    ccc     H3   8651 0.13386900   1.008000   ; qtot 191.114571
 8652         h1    319    ccc     H4   8652 0.10146700   1.008000   ; qtot 191.216038
 8653         h2    319    ccc     H5   8653 0.10960400   1.008000   ; qtot 191.325642
 8654         os    319    ccc     O1   8654 -0.28650000  16.000000   ; qtot 191.039142
 8655         oh    319    ccc     O2   8655 -0.86012500  16.000000   ; qtot 190.179017
 8656         oh    319    ccc     O3   8656 -0.83772800  16.000000   ; qtot 189.341289
 8657         oh    319    ccc     O4   8657 -0.77449700  16.000000   ; qtot 188.566792
 8658         c3    319    ccc     C6   8658 0.37576500  12.010000   ; qtot 188.942557
 8659         ho    319    ccc     H6   8659 0.53656000   1.008000   ; qtot 189.479117
 8660         ho    319    ccc     H7   8660 0.49492100   1.008000   ; qtot 189.974038
 8661         ho    319    ccc     H8   8661 0.51297200   1.008000   ; qtot 190.487010
 8662         h1    319    ccc     H9   8662 0.05653400   1.008000   ; qtot 190.543544
 8663         h1    319    ccc    H10   8663 0.05653400   1.008000   ; qtot 190.600078
 8664         oh    319    ccc     O5   8664 -0.84113600  16.000000   ; qtot 189.758942
 8665         ho    319    ccc    H11   8665 0.51201600   1.008000   ; qtot 190.270958
 8666         os    319    ccc     O6   8666 -0.26013600  16.000000   ; qtot 190.010822
; residue  320 ccc rtp ccc q 0.0
 8667         c3    320    ccc     C1   8667 -0.33178800  12.010000   ; qtot 189.679034
 8668         c3    320    ccc     C2   8668 0.30606500  12.010000   ; qtot 189.985099
 8669         h1    320    ccc     H1   8669 0.11662300   1.008000   ; qtot 190.101722
 8670         h1    320    ccc     H2   8670 0.11526800   1.008000   ; qtot 190.216990
 8671         c3    320    ccc     C3   8671 0.15592700  12.010000   ; qtot 190.372917
 8672         c3    320    ccc     C4   8672 0.28383300  12.010000   ; qtot 190.656750
 8673         c3    320    ccc     C5   8673 0.32403300  12.010000   ; qtot 190.980783
 8674         h1    320    ccc     H3   8674 0.13386900   1.008000   ; qtot 191.114652
 8675         h1    320    ccc     H4   8675 0.10146700   1.008000   ; qtot 191.216119
 8676         h2    320    ccc     H5   8676 0.10960400   1.008000   ; qtot 191.325723
 8677         os    320    ccc     O1   8677 -0.28650000  16.000000   ; qtot 191.039223
 8678         oh    320    ccc     O2   8678 -0.86012500  16.000000   ; qtot 190.179098
 8679         oh    320    ccc     O3   8679 -0.83772800  16.000000   ; qtot 189.341370
 8680         oh    320    ccc     O4   8680 -0.77449700  16.000000   ; qtot 188.566873
 8681         c3    320    ccc     C6   8681 0.37576500  12.010000   ; qtot 188.942638
 8682         ho    320    ccc     H6   8682 0.53656000   1.008000   ; qtot 189.479198
 8683         ho    320    ccc     H7   8683 0.49492100   1.008000   ; qtot 189.974119
 8684         ho    320    ccc     H8   8684 0.51297200   1.008000   ; qtot 190.487091
 8685         h1    320    ccc     H9   8685 0.05653400   1.008000   ; qtot 190.543625
 8686         h1    320    ccc    H10   8686 0.05653400   1.008000   ; qtot 190.600159
 8687         oh    320    ccc     O5   8687 -0.84113600  16.000000   ; qtot 189.759023
 8688         ho    320    ccc    H11   8688 0.51201600   1.008000   ; qtot 190.271039
 8689         os    320    ccc     O6   8689 -0.26013600  16.000000   ; qtot 190.010903
; residue  321 ccc rtp ccc q 0.0
 8690         c3    321    ccc     C1   8690 -0.33178800  12.010000   ; qtot 189.679115
 8691         c3    321    ccc     C2   8691 0.30606500  12.010000   ; qtot 189.985180
 8692         h1    321    ccc     H1   8692 0.11662300   1.008000   ; qtot 190.101803
 8693         h1    321    ccc     H2   8693 0.11526800   1.008000   ; qtot 190.217071
 8694         c3    321    ccc     C3   8694 0.15592700  12.010000   ; qtot 190.372998
 8695         c3    321    ccc     C4   8695 0.28383300  12.010000   ; qtot 190.656831
 8696         c3    321    ccc     C5   8696 0.32403300  12.010000   ; qtot 190.980864
 8697         h1    321    ccc     H3   8697 0.13386900   1.008000   ; qtot 191.114733
 8698         h1    321    ccc     H4   8698 0.10146700   1.008000   ; qtot 191.216200
 8699         h2    321    ccc     H5   8699 0.10960400   1.008000   ; qtot 191.325804
 8700         os    321    ccc     O1   8700 -0.28650000  16.000000   ; qtot 191.039304
 8701         oh    321    ccc     O2   8701 -0.86012500  16.000000   ; qtot 190.179179
 8702         oh    321    ccc     O3   8702 -0.83772800  16.000000   ; qtot 189.341451
 8703         oh    321    ccc     O4   8703 -0.77449700  16.000000   ; qtot 188.566954
 8704         c3    321    ccc     C6   8704 0.37576500  12.010000   ; qtot 188.942719
 8705         ho    321    ccc     H6   8705 0.53656000   1.008000   ; qtot 189.479279
 8706         ho    321    ccc     H7   8706 0.49492100   1.008000   ; qtot 189.974200
 8707         ho    321    ccc     H8   8707 0.51297200   1.008000   ; qtot 190.487172
 8708         h1    321    ccc     H9   8708 0.05653400   1.008000   ; qtot 190.543706
 8709         h1    321    ccc    H10   8709 0.05653400   1.008000   ; qtot 190.600240
 8710         oh    321    ccc     O5   8710 -0.84113600  16.000000   ; qtot 189.759104
 8711         ho    321    ccc    H11   8711 0.51201600   1.008000   ; qtot 190.271120
 8712         os    321    ccc     O6   8712 -0.26013600  16.000000   ; qtot 190.010984
; residue  322 ccc rtp ccc q 0.0
 8713         c3    322    ccc     C1   8713 -0.33178800  12.010000   ; qtot 189.679196
 8714         c3    322    ccc     C2   8714 0.30606500  12.010000   ; qtot 189.985261
 8715         h1    322    ccc     H1   8715 0.11662300   1.008000   ; qtot 190.101884
 8716         h1    322    ccc     H2   8716 0.11526800   1.008000   ; qtot 190.217152
 8717         c3    322    ccc     C3   8717 0.15592700  12.010000   ; qtot 190.373079
 8718         c3    322    ccc     C4   8718 0.28383300  12.010000   ; qtot 190.656912
 8719         c3    322    ccc     C5   8719 0.32403300  12.010000   ; qtot 190.980945
 8720         h1    322    ccc     H3   8720 0.13386900   1.008000   ; qtot 191.114814
 8721         h1    322    ccc     H4   8721 0.10146700   1.008000   ; qtot 191.216281
 8722         h2    322    ccc     H5   8722 0.10960400   1.008000   ; qtot 191.325885
 8723         os    322    ccc     O1   8723 -0.28650000  16.000000   ; qtot 191.039385
 8724         oh    322    ccc     O2   8724 -0.86012500  16.000000   ; qtot 190.179260
 8725         oh    322    ccc     O3   8725 -0.83772800  16.000000   ; qtot 189.341532
 8726         oh    322    ccc     O4   8726 -0.77449700  16.000000   ; qtot 188.567035
 8727         c3    322    ccc     C6   8727 0.37576500  12.010000   ; qtot 188.942800
 8728         ho    322    ccc     H6   8728 0.53656000   1.008000   ; qtot 189.479360
 8729         ho    322    ccc     H7   8729 0.49492100   1.008000   ; qtot 189.974281
 8730         ho    322    ccc     H8   8730 0.51297200   1.008000   ; qtot 190.487253
 8731         h1    322    ccc     H9   8731 0.05653400   1.008000   ; qtot 190.543787
 8732         h1    322    ccc    H10   8732 0.05653400   1.008000   ; qtot 190.600321
 8733         oh    322    ccc     O5   8733 -0.84113600  16.000000   ; qtot 189.759185
 8734         ho    322    ccc    H11   8734 0.51201600   1.008000   ; qtot 190.271201
 8735         os    322    ccc     O6   8735 -0.26013600  16.000000   ; qtot 190.011065
; residue  323 ccc rtp ccc q 0.0
 8736         c3    323    ccc     C1   8736 -0.33178800  12.010000   ; qtot 189.679277
 8737         c3    323    ccc     C2   8737 0.30606500  12.010000   ; qtot 189.985342
 8738         h1    323    ccc     H1   8738 0.11662300   1.008000   ; qtot 190.101965
 8739         h1    323    ccc     H2   8739 0.11526800   1.008000   ; qtot 190.217233
 8740         c3    323    ccc     C3   8740 0.15592700  12.010000   ; qtot 190.373160
 8741         c3    323    ccc     C4   8741 0.28383300  12.010000   ; qtot 190.656993
 8742         c3    323    ccc     C5   8742 0.32403300  12.010000   ; qtot 190.981026
 8743         h1    323    ccc     H3   8743 0.13386900   1.008000   ; qtot 191.114895
 8744         h1    323    ccc     H4   8744 0.10146700   1.008000   ; qtot 191.216362
 8745         h2    323    ccc     H5   8745 0.10960400   1.008000   ; qtot 191.325966
 8746         os    323    ccc     O1   8746 -0.28650000  16.000000   ; qtot 191.039466
 8747         oh    323    ccc     O2   8747 -0.86012500  16.000000   ; qtot 190.179341
 8748         oh    323    ccc     O3   8748 -0.83772800  16.000000   ; qtot 189.341613
 8749         oh    323    ccc     O4   8749 -0.77449700  16.000000   ; qtot 188.567116
 8750         c3    323    ccc     C6   8750 0.37576500  12.010000   ; qtot 188.942881
 8751         ho    323    ccc     H6   8751 0.53656000   1.008000   ; qtot 189.479441
 8752         ho    323    ccc     H7   8752 0.49492100   1.008000   ; qtot 189.974362
 8753         ho    323    ccc     H8   8753 0.51297200   1.008000   ; qtot 190.487334
 8754         h1    323    ccc     H9   8754 0.05653400   1.008000   ; qtot 190.543868
 8755         h1    323    ccc    H10   8755 0.05653400   1.008000   ; qtot 190.600402
 8756         oh    323    ccc     O5   8756 -0.84113600  16.000000   ; qtot 189.759266
 8757         ho    323    ccc    H11   8757 0.51201600   1.008000   ; qtot 190.271282
 8758         os    323    ccc     O6   8758 -0.26013600  16.000000   ; qtot 190.011146
; residue  324 ccc rtp ccc q 0.0
 8759         c3    324    ccc     C1   8759 -0.33178800  12.010000   ; qtot 189.679358
 8760         c3    324    ccc     C2   8760 0.30606500  12.010000   ; qtot 189.985423
 8761         h1    324    ccc     H1   8761 0.11662300   1.008000   ; qtot 190.102046
 8762         h1    324    ccc     H2   8762 0.11526800   1.008000   ; qtot 190.217314
 8763         c3    324    ccc     C3   8763 0.15592700  12.010000   ; qtot 190.373241
 8764         c3    324    ccc     C4   8764 0.28383300  12.010000   ; qtot 190.657074
 8765         c3    324    ccc     C5   8765 0.32403300  12.010000   ; qtot 190.981107
 8766         h1    324    ccc     H3   8766 0.13386900   1.008000   ; qtot 191.114976
 8767         h1    324    ccc     H4   8767 0.10146700   1.008000   ; qtot 191.216443
 8768         h2    324    ccc     H5   8768 0.10960400   1.008000   ; qtot 191.326047
 8769         os    324    ccc     O1   8769 -0.28650000  16.000000   ; qtot 191.039547
 8770         oh    324    ccc     O2   8770 -0.86012500  16.000000   ; qtot 190.179422
 8771         oh    324    ccc     O3   8771 -0.83772800  16.000000   ; qtot 189.341694
 8772         oh    324    ccc     O4   8772 -0.77449700  16.000000   ; qtot 188.567197
 8773         c3    324    ccc     C6   8773 0.37576500  12.010000   ; qtot 188.942962
 8774         ho    324    ccc     H6   8774 0.53656000   1.008000   ; qtot 189.479522
 8775         ho    324    ccc     H7   8775 0.49492100   1.008000   ; qtot 189.974443
 8776         ho    324    ccc     H8   8776 0.51297200   1.008000   ; qtot 190.487415
 8777         h1    324    ccc     H9   8777 0.05653400   1.008000   ; qtot 190.543949
 8778         h1    324    ccc    H10   8778 0.05653400   1.008000   ; qtot 190.600483
 8779         oh    324    ccc     O5   8779 -0.84113600  16.000000   ; qtot 189.759347
 8780         ho    324    ccc    H11   8780 0.51201600   1.008000   ; qtot 190.271363
 8781         os    324    ccc     O6   8781 -0.26013600  16.000000   ; qtot 190.011227
; residue  325 ccc rtp ccc q 0.0
 8782         c3    325    ccc     C1   8782 -0.33178800  12.010000   ; qtot 189.679439
 8783         c3    325    ccc     C2   8783 0.30606500  12.010000   ; qtot 189.985504
 8784         h1    325    ccc     H1   8784 0.11662300   1.008000   ; qtot 190.102127
 8785         h1    325    ccc     H2   8785 0.11526800   1.008000   ; qtot 190.217395
 8786         c3    325    ccc     C3   8786 0.15592700  12.010000   ; qtot 190.373322
 8787         c3    325    ccc     C4   8787 0.28383300  12.010000   ; qtot 190.657155
 8788         c3    325    ccc     C5   8788 0.32403300  12.010000   ; qtot 190.981188
 8789         h1    325    ccc     H3   8789 0.13386900   1.008000   ; qtot 191.115057
 8790         h1    325    ccc     H4   8790 0.10146700   1.008000   ; qtot 191.216524
 8791         h2    325    ccc     H5   8791 0.10960400   1.008000   ; qtot 191.326128
 8792         os    325    ccc     O1   8792 -0.28650000  16.000000   ; qtot 191.039628
 8793         oh    325    ccc     O2   8793 -0.86012500  16.000000   ; qtot 190.179503
 8794         oh    325    ccc     O3   8794 -0.83772800  16.000000   ; qtot 189.341775
 8795         oh    325    ccc     O4   8795 -0.77449700  16.000000   ; qtot 188.567278
 8796         c3    325    ccc     C6   8796 0.37576500  12.010000   ; qtot 188.943043
 8797         ho    325    ccc     H6   8797 0.53656000   1.008000   ; qtot 189.479603
 8798         ho    325    ccc     H7   8798 0.49492100   1.008000   ; qtot 189.974524
 8799         ho    325    ccc     H8   8799 0.51297200   1.008000   ; qtot 190.487496
 8800         h1    325    ccc     H9   8800 0.05653400   1.008000   ; qtot 190.544030
 8801         h1    325    ccc    H10   8801 0.05653400   1.008000   ; qtot 190.600564
 8802         oh    325    ccc     O5   8802 -0.84113600  16.000000   ; qtot 189.759428
 8803         ho    325    ccc    H11   8803 0.51201600   1.008000   ; qtot 190.271444
 8804         os    325    ccc     O6   8804 -0.26013600  16.000000   ; qtot 190.011308
; residue  326 ccc rtp ccc q 0.0
 8805         c3    326    ccc     C1   8805 -0.33178800  12.010000   ; qtot 189.679520
 8806         c3    326    ccc     C2   8806 0.30606500  12.010000   ; qtot 189.985585
 8807         h1    326    ccc     H1   8807 0.11662300   1.008000   ; qtot 190.102208
 8808         h1    326    ccc     H2   8808 0.11526800   1.008000   ; qtot 190.217476
 8809         c3    326    ccc     C3   8809 0.15592700  12.010000   ; qtot 190.373403
 8810         c3    326    ccc     C4   8810 0.28383300  12.010000   ; qtot 190.657236
 8811         c3    326    ccc     C5   8811 0.32403300  12.010000   ; qtot 190.981269
 8812         h1    326    ccc     H3   8812 0.13386900   1.008000   ; qtot 191.115138
 8813         h1    326    ccc     H4   8813 0.10146700   1.008000   ; qtot 191.216605
 8814         h2    326    ccc     H5   8814 0.10960400   1.008000   ; qtot 191.326209
 8815         os    326    ccc     O1   8815 -0.28650000  16.000000   ; qtot 191.039709
 8816         oh    326    ccc     O2   8816 -0.86012500  16.000000   ; qtot 190.179584
 8817         oh    326    ccc     O3   8817 -0.83772800  16.000000   ; qtot 189.341856
 8818         oh    326    ccc     O4   8818 -0.77449700  16.000000   ; qtot 188.567359
 8819         c3    326    ccc     C6   8819 0.37576500  12.010000   ; qtot 188.943124
 8820         ho    326    ccc     H6   8820 0.53656000   1.008000   ; qtot 189.479684
 8821         ho    326    ccc     H7   8821 0.49492100   1.008000   ; qtot 189.974605
 8822         ho    326    ccc     H8   8822 0.51297200   1.008000   ; qtot 190.487577
 8823         h1    326    ccc     H9   8823 0.05653400   1.008000   ; qtot 190.544111
 8824         h1    326    ccc    H10   8824 0.05653400   1.008000   ; qtot 190.600645
 8825         oh    326    ccc     O5   8825 -0.84113600  16.000000   ; qtot 189.759509
 8826         ho    326    ccc    H11   8826 0.51201600   1.008000   ; qtot 190.271525
 8827         os    326    ccc     O6   8827 -0.26013600  16.000000   ; qtot 190.011389
; residue  327 ccc rtp ccc q 0.0
 8828         c3    327    ccc     C1   8828 -0.33178800  12.010000   ; qtot 189.679601
 8829         c3    327    ccc     C2   8829 0.30606500  12.010000   ; qtot 189.985666
 8830         h1    327    ccc     H1   8830 0.11662300   1.008000   ; qtot 190.102289
 8831         h1    327    ccc     H2   8831 0.11526800   1.008000   ; qtot 190.217557
 8832         c3    327    ccc     C3   8832 0.15592700  12.010000   ; qtot 190.373484
 8833         c3    327    ccc     C4   8833 0.28383300  12.010000   ; qtot 190.657317
 8834         c3    327    ccc     C5   8834 0.32403300  12.010000   ; qtot 190.981350
 8835         h1    327    ccc     H3   8835 0.13386900   1.008000   ; qtot 191.115219
 8836         h1    327    ccc     H4   8836 0.10146700   1.008000   ; qtot 191.216686
 8837         h2    327    ccc     H5   8837 0.10960400   1.008000   ; qtot 191.326290
 8838         os    327    ccc     O1   8838 -0.28650000  16.000000   ; qtot 191.039790
 8839         oh    327    ccc     O2   8839 -0.86012500  16.000000   ; qtot 190.179665
 8840         oh    327    ccc     O3   8840 -0.83772800  16.000000   ; qtot 189.341937
 8841         oh    327    ccc     O4   8841 -0.77449700  16.000000   ; qtot 188.567440
 8842         c3    327    ccc     C6   8842 0.37576500  12.010000   ; qtot 188.943205
 8843         ho    327    ccc     H6   8843 0.53656000   1.008000   ; qtot 189.479765
 8844         ho    327    ccc     H7   8844 0.49492100   1.008000   ; qtot 189.974686
 8845         ho    327    ccc     H8   8845 0.51297200   1.008000   ; qtot 190.487658
 8846         h1    327    ccc     H9   8846 0.05653400   1.008000   ; qtot 190.544192
 8847         h1    327    ccc    H10   8847 0.05653400   1.008000   ; qtot 190.600726
 8848         oh    327    ccc     O5   8848 -0.84113600  16.000000   ; qtot 189.759590
 8849         ho    327    ccc    H11   8849 0.51201600   1.008000   ; qtot 190.271606
 8850         os    327    ccc     O6   8850 -0.26013600  16.000000   ; qtot 190.011470
; residue  328 ccc rtp ccc q 0.0
 8851         c3    328    ccc     C1   8851 -0.33178800  12.010000   ; qtot 189.679682
 8852         c3    328    ccc     C2   8852 0.30606500  12.010000   ; qtot 189.985747
 8853         h1    328    ccc     H1   8853 0.11662300   1.008000   ; qtot 190.102370
 8854         h1    328    ccc     H2   8854 0.11526800   1.008000   ; qtot 190.217638
 8855         c3    328    ccc     C3   8855 0.15592700  12.010000   ; qtot 190.373565
 8856         c3    328    ccc     C4   8856 0.28383300  12.010000   ; qtot 190.657398
 8857         c3    328    ccc     C5   8857 0.32403300  12.010000   ; qtot 190.981431
 8858         h1    328    ccc     H3   8858 0.13386900   1.008000   ; qtot 191.115300
 8859         h1    328    ccc     H4   8859 0.10146700   1.008000   ; qtot 191.216767
 8860         h2    328    ccc     H5   8860 0.10960400   1.008000   ; qtot 191.326371
 8861         os    328    ccc     O1   8861 -0.28650000  16.000000   ; qtot 191.039871
 8862         oh    328    ccc     O2   8862 -0.86012500  16.000000   ; qtot 190.179746
 8863         oh    328    ccc     O3   8863 -0.83772800  16.000000   ; qtot 189.342018
 8864         oh    328    ccc     O4   8864 -0.77449700  16.000000   ; qtot 188.567521
 8865         c3    328    ccc     C6   8865 0.37576500  12.010000   ; qtot 188.943286
 8866         ho    328    ccc     H6   8866 0.53656000   1.008000   ; qtot 189.479846
 8867         ho    328    ccc     H7   8867 0.49492100   1.008000   ; qtot 189.974767
 8868         ho    328    ccc     H8   8868 0.51297200   1.008000   ; qtot 190.487739
 8869         h1    328    ccc     H9   8869 0.05653400   1.008000   ; qtot 190.544273
 8870         h1    328    ccc    H10   8870 0.05653400   1.008000   ; qtot 190.600807
 8871         oh    328    ccc     O5   8871 -0.84113600  16.000000   ; qtot 189.759671
 8872         ho    328    ccc    H11   8872 0.51201600   1.008000   ; qtot 190.271687
 8873         os    328    ccc     O6   8873 -0.26013600  16.000000   ; qtot 190.011551
; residue  329 ccc rtp ccc q 0.0
 8874         c3    329    ccc     C1   8874 -0.33178800  12.010000   ; qtot 189.679763
 8875         c3    329    ccc     C2   8875 0.30606500  12.010000   ; qtot 189.985828
 8876         h1    329    ccc     H1   8876 0.11662300   1.008000   ; qtot 190.102451
 8877         h1    329    ccc     H2   8877 0.11526800   1.008000   ; qtot 190.217719
 8878         c3    329    ccc     C3   8878 0.15592700  12.010000   ; qtot 190.373646
 8879         c3    329    ccc     C4   8879 0.28383300  12.010000   ; qtot 190.657479
 8880         c3    329    ccc     C5   8880 0.32403300  12.010000   ; qtot 190.981512
 8881         h1    329    ccc     H3   8881 0.13386900   1.008000   ; qtot 191.115381
 8882         h1    329    ccc     H4   8882 0.10146700   1.008000   ; qtot 191.216848
 8883         h2    329    ccc     H5   8883 0.10960400   1.008000   ; qtot 191.326452
 8884         os    329    ccc     O1   8884 -0.28650000  16.000000   ; qtot 191.039952
 8885         oh    329    ccc     O2   8885 -0.86012500  16.000000   ; qtot 190.179827
 8886         oh    329    ccc     O3   8886 -0.83772800  16.000000   ; qtot 189.342099
 8887         oh    329    ccc     O4   8887 -0.77449700  16.000000   ; qtot 188.567602
 8888         c3    329    ccc     C6   8888 0.37576500  12.010000   ; qtot 188.943367
 8889         ho    329    ccc     H6   8889 0.53656000   1.008000   ; qtot 189.479927
 8890         ho    329    ccc     H7   8890 0.49492100   1.008000   ; qtot 189.974848
 8891         ho    329    ccc     H8   8891 0.51297200   1.008000   ; qtot 190.487820
 8892         h1    329    ccc     H9   8892 0.05653400   1.008000   ; qtot 190.544354
 8893         h1    329    ccc    H10   8893 0.05653400   1.008000   ; qtot 190.600888
 8894         oh    329    ccc     O5   8894 -0.84113600  16.000000   ; qtot 189.759752
 8895         ho    329    ccc    H11   8895 0.51201600   1.008000   ; qtot 190.271768
 8896         os    329    ccc     O6   8896 -0.26013600  16.000000   ; qtot 190.011632
; residue  330 ccc rtp ccc q 0.0
 8897         c3    330    ccc     C1   8897 -0.33178800  12.010000   ; qtot 189.679844
 8898         c3    330    ccc     C2   8898 0.30606500  12.010000   ; qtot 189.985909
 8899         h1    330    ccc     H1   8899 0.11662300   1.008000   ; qtot 190.102532
 8900         h1    330    ccc     H2   8900 0.11526800   1.008000   ; qtot 190.217800
 8901         c3    330    ccc     C3   8901 0.15592700  12.010000   ; qtot 190.373727
 8902         c3    330    ccc     C4   8902 0.28383300  12.010000   ; qtot 190.657560
 8903         c3    330    ccc     C5   8903 0.32403300  12.010000   ; qtot 190.981593
 8904         h1    330    ccc     H3   8904 0.13386900   1.008000   ; qtot 191.115462
 8905         h1    330    ccc     H4   8905 0.10146700   1.008000   ; qtot 191.216929
 8906         h2    330    ccc     H5   8906 0.10960400   1.008000   ; qtot 191.326533
 8907         os    330    ccc     O1   8907 -0.28650000  16.000000   ; qtot 191.040033
 8908         oh    330    ccc     O2   8908 -0.86012500  16.000000   ; qtot 190.179908
 8909         oh    330    ccc     O3   8909 -0.83772800  16.000000   ; qtot 189.342180
 8910         oh    330    ccc     O4   8910 -0.77449700  16.000000   ; qtot 188.567683
 8911         c3    330    ccc     C6   8911 0.37576500  12.010000   ; qtot 188.943448
 8912         ho    330    ccc     H6   8912 0.53656000   1.008000   ; qtot 189.480008
 8913         ho    330    ccc     H7   8913 0.49492100   1.008000   ; qtot 189.974929
 8914         ho    330    ccc     H8   8914 0.51297200   1.008000   ; qtot 190.487901
 8915         h1    330    ccc     H9   8915 0.05653400   1.008000   ; qtot 190.544435
 8916         h1    330    ccc    H10   8916 0.05653400   1.008000   ; qtot 190.600969
 8917         oh    330    ccc     O5   8917 -0.84113600  16.000000   ; qtot 189.759833
 8918         ho    330    ccc    H11   8918 0.51201600   1.008000   ; qtot 190.271849
 8919         os    330    ccc     O6   8919 -0.26013600  16.000000   ; qtot 190.011713
; residue  331 ccc rtp ccc q 0.0
 8920         c3    331    ccc     C1   8920 -0.33178800  12.010000   ; qtot 189.679925
 8921         c3    331    ccc     C2   8921 0.30606500  12.010000   ; qtot 189.985990
 8922         h1    331    ccc     H1   8922 0.11662300   1.008000   ; qtot 190.102613
 8923         h1    331    ccc     H2   8923 0.11526800   1.008000   ; qtot 190.217881
 8924         c3    331    ccc     C3   8924 0.15592700  12.010000   ; qtot 190.373808
 8925         c3    331    ccc     C4   8925 0.28383300  12.010000   ; qtot 190.657641
 8926         c3    331    ccc     C5   8926 0.32403300  12.010000   ; qtot 190.981674
 8927         h1    331    ccc     H3   8927 0.13386900   1.008000   ; qtot 191.115543
 8928         h1    331    ccc     H4   8928 0.10146700   1.008000   ; qtot 191.217010
 8929         h2    331    ccc     H5   8929 0.10960400   1.008000   ; qtot 191.326614
 8930         os    331    ccc     O1   8930 -0.28650000  16.000000   ; qtot 191.040114
 8931         oh    331    ccc     O2   8931 -0.86012500  16.000000   ; qtot 190.179989
 8932         oh    331    ccc     O3   8932 -0.83772800  16.000000   ; qtot 189.342261
 8933         oh    331    ccc     O4   8933 -0.77449700  16.000000   ; qtot 188.567764
 8934         c3    331    ccc     C6   8934 0.37576500  12.010000   ; qtot 188.943529
 8935         ho    331    ccc     H6   8935 0.53656000   1.008000   ; qtot 189.480089
 8936         ho    331    ccc     H7   8936 0.49492100   1.008000   ; qtot 189.975010
 8937         ho    331    ccc     H8   8937 0.51297200   1.008000   ; qtot 190.487982
 8938         h1    331    ccc     H9   8938 0.05653400   1.008000   ; qtot 190.544516
 8939         h1    331    ccc    H10   8939 0.05653400   1.008000   ; qtot 190.601050
 8940         oh    331    ccc     O5   8940 -0.84113600  16.000000   ; qtot 189.759914
 8941         ho    331    ccc    H11   8941 0.51201600   1.008000   ; qtot 190.271930
 8942         os    331    ccc     O6   8942 -0.26013600  16.000000   ; qtot 190.011794
; residue  332 ccc rtp ccc q 0.0
 8943         c3    332    ccc     C1   8943 -0.33178800  12.010000   ; qtot 189.680006
 8944         c3    332    ccc     C2   8944 0.30606500  12.010000   ; qtot 189.986071
 8945         h1    332    ccc     H1   8945 0.11662300   1.008000   ; qtot 190.102694
 8946         h1    332    ccc     H2   8946 0.11526800   1.008000   ; qtot 190.217962
 8947         c3    332    ccc     C3   8947 0.15592700  12.010000   ; qtot 190.373889
 8948         c3    332    ccc     C4   8948 0.28383300  12.010000   ; qtot 190.657722
 8949         c3    332    ccc     C5   8949 0.32403300  12.010000   ; qtot 190.981755
 8950         h1    332    ccc     H3   8950 0.13386900   1.008000   ; qtot 191.115624
 8951         h1    332    ccc     H4   8951 0.10146700   1.008000   ; qtot 191.217091
 8952         h2    332    ccc     H5   8952 0.10960400   1.008000   ; qtot 191.326695
 8953         os    332    ccc     O1   8953 -0.28650000  16.000000   ; qtot 191.040195
 8954         oh    332    ccc     O2   8954 -0.86012500  16.000000   ; qtot 190.180070
 8955         oh    332    ccc     O3   8955 -0.83772800  16.000000   ; qtot 189.342342
 8956         oh    332    ccc     O4   8956 -0.77449700  16.000000   ; qtot 188.567845
 8957         c3    332    ccc     C6   8957 0.37576500  12.010000   ; qtot 188.943610
 8958         ho    332    ccc     H6   8958 0.53656000   1.008000   ; qtot 189.480170
 8959         ho    332    ccc     H7   8959 0.49492100   1.008000   ; qtot 189.975091
 8960         ho    332    ccc     H8   8960 0.51297200   1.008000   ; qtot 190.488063
 8961         h1    332    ccc     H9   8961 0.05653400   1.008000   ; qtot 190.544597
 8962         h1    332    ccc    H10   8962 0.05653400   1.008000   ; qtot 190.601131
 8963         oh    332    ccc     O5   8963 -0.84113600  16.000000   ; qtot 189.759995
 8964         ho    332    ccc    H11   8964 0.51201600   1.008000   ; qtot 190.272011
 8965         os    332    ccc     O6   8965 -0.26013600  16.000000   ; qtot 190.011875
; residue  333 ccc rtp ccc q 0.0
 8966         c3    333    ccc     C1   8966 -0.33178800  12.010000   ; qtot 189.680087
 8967         c3    333    ccc     C2   8967 0.30606500  12.010000   ; qtot 189.986152
 8968         h1    333    ccc     H1   8968 0.11662300   1.008000   ; qtot 190.102775
 8969         h1    333    ccc     H2   8969 0.11526800   1.008000   ; qtot 190.218043
 8970         c3    333    ccc     C3   8970 0.15592700  12.010000   ; qtot 190.373970
 8971         c3    333    ccc     C4   8971 0.28383300  12.010000   ; qtot 190.657803
 8972         c3    333    ccc     C5   8972 0.32403300  12.010000   ; qtot 190.981836
 8973         h1    333    ccc     H3   8973 0.13386900   1.008000   ; qtot 191.115705
 8974         h1    333    ccc     H4   8974 0.10146700   1.008000   ; qtot 191.217172
 8975         h2    333    ccc     H5   8975 0.10960400   1.008000   ; qtot 191.326776
 8976         os    333    ccc     O1   8976 -0.28650000  16.000000   ; qtot 191.040276
 8977         oh    333    ccc     O2   8977 -0.86012500  16.000000   ; qtot 190.180151
 8978         oh    333    ccc     O3   8978 -0.83772800  16.000000   ; qtot 189.342423
 8979         oh    333    ccc     O4   8979 -0.77449700  16.000000   ; qtot 188.567926
 8980         c3    333    ccc     C6   8980 0.37576500  12.010000   ; qtot 188.943691
 8981         ho    333    ccc     H6   8981 0.53656000   1.008000   ; qtot 189.480251
 8982         ho    333    ccc     H7   8982 0.49492100   1.008000   ; qtot 189.975172
 8983         ho    333    ccc     H8   8983 0.51297200   1.008000   ; qtot 190.488144
 8984         h1    333    ccc     H9   8984 0.05653400   1.008000   ; qtot 190.544678
 8985         h1    333    ccc    H10   8985 0.05653400   1.008000   ; qtot 190.601212
 8986         oh    333    ccc     O5   8986 -0.84113600  16.000000   ; qtot 189.760076
 8987         ho    333    ccc    H11   8987 0.51201600   1.008000   ; qtot 190.272092
 8988         os    333    ccc     O6   8988 -0.26013600  16.000000   ; qtot 190.011956
; residue  334 ccc rtp ccc q 0.0
 8989         c3    334    ccc     C1   8989 -0.33178800  12.010000   ; qtot 189.680168
 8990         c3    334    ccc     C2   8990 0.30606500  12.010000   ; qtot 189.986233
 8991         h1    334    ccc     H1   8991 0.11662300   1.008000   ; qtot 190.102856
 8992         h1    334    ccc     H2   8992 0.11526800   1.008000   ; qtot 190.218124
 8993         c3    334    ccc     C3   8993 0.15592700  12.010000   ; qtot 190.374051
 8994         c3    334    ccc     C4   8994 0.28383300  12.010000   ; qtot 190.657884
 8995         c3    334    ccc     C5   8995 0.32403300  12.010000   ; qtot 190.981917
 8996         h1    334    ccc     H3   8996 0.13386900   1.008000   ; qtot 191.115786
 8997         h1    334    ccc     H4   8997 0.10146700   1.008000   ; qtot 191.217253
 8998         h2    334    ccc     H5   8998 0.10960400   1.008000   ; qtot 191.326857
 8999         os    334    ccc     O1   8999 -0.28650000  16.000000   ; qtot 191.040357
 9000         oh    334    ccc     O2   9000 -0.86012500  16.000000   ; qtot 190.180232
 9001         oh    334    ccc     O3   9001 -0.83772800  16.000000   ; qtot 189.342504
 9002         oh    334    ccc     O4   9002 -0.77449700  16.000000   ; qtot 188.568007
 9003         c3    334    ccc     C6   9003 0.37576500  12.010000   ; qtot 188.943772
 9004         ho    334    ccc     H6   9004 0.53656000   1.008000   ; qtot 189.480332
 9005         ho    334    ccc     H7   9005 0.49492100   1.008000   ; qtot 189.975253
 9006         ho    334    ccc     H8   9006 0.51297200   1.008000   ; qtot 190.488225
 9007         h1    334    ccc     H9   9007 0.05653400   1.008000   ; qtot 190.544759
 9008         h1    334    ccc    H10   9008 0.05653400   1.008000   ; qtot 190.601293
 9009         oh    334    ccc     O5   9009 -0.84113600  16.000000   ; qtot 189.760157
 9010         ho    334    ccc    H11   9010 0.51201600   1.008000   ; qtot 190.272173
 9011         os    334    ccc     O6   9011 -0.26013600  16.000000   ; qtot 190.012037
; residue  335 ccc rtp ccc q 0.0
 9012         c3    335    ccc     C1   9012 -0.33178800  12.010000   ; qtot 189.680249
 9013         c3    335    ccc     C2   9013 0.30606500  12.010000   ; qtot 189.986314
 9014         h1    335    ccc     H1   9014 0.11662300   1.008000   ; qtot 190.102937
 9015         h1    335    ccc     H2   9015 0.11526800   1.008000   ; qtot 190.218205
 9016         c3    335    ccc     C3   9016 0.15592700  12.010000   ; qtot 190.374132
 9017         c3    335    ccc     C4   9017 0.28383300  12.010000   ; qtot 190.657965
 9018         c3    335    ccc     C5   9018 0.32403300  12.010000   ; qtot 190.981998
 9019         h1    335    ccc     H3   9019 0.13386900   1.008000   ; qtot 191.115867
 9020         h1    335    ccc     H4   9020 0.10146700   1.008000   ; qtot 191.217334
 9021         h2    335    ccc     H5   9021 0.10960400   1.008000   ; qtot 191.326938
 9022         os    335    ccc     O1   9022 -0.28650000  16.000000   ; qtot 191.040438
 9023         oh    335    ccc     O2   9023 -0.86012500  16.000000   ; qtot 190.180313
 9024         oh    335    ccc     O3   9024 -0.83772800  16.000000   ; qtot 189.342585
 9025         oh    335    ccc     O4   9025 -0.77449700  16.000000   ; qtot 188.568088
 9026         c3    335    ccc     C6   9026 0.37576500  12.010000   ; qtot 188.943853
 9027         ho    335    ccc     H6   9027 0.53656000   1.008000   ; qtot 189.480413
 9028         ho    335    ccc     H7   9028 0.49492100   1.008000   ; qtot 189.975334
 9029         ho    335    ccc     H8   9029 0.51297200   1.008000   ; qtot 190.488306
 9030         h1    335    ccc     H9   9030 0.05653400   1.008000   ; qtot 190.544840
 9031         h1    335    ccc    H10   9031 0.05653400   1.008000   ; qtot 190.601374
 9032         oh    335    ccc     O5   9032 -0.84113600  16.000000   ; qtot 189.760238
 9033         ho    335    ccc    H11   9033 0.51201600   1.008000   ; qtot 190.272254
 9034         os    335    ccc     O6   9034 -0.26013600  16.000000   ; qtot 190.012118
; residue  336 ccc rtp ccc q 0.0
 9035         c3    336    ccc     C1   9035 -0.33178800  12.010000   ; qtot 189.680330
 9036         c3    336    ccc     C2   9036 0.30606500  12.010000   ; qtot 189.986395
 9037         h1    336    ccc     H1   9037 0.11662300   1.008000   ; qtot 190.103018
 9038         h1    336    ccc     H2   9038 0.11526800   1.008000   ; qtot 190.218286
 9039         c3    336    ccc     C3   9039 0.15592700  12.010000   ; qtot 190.374213
 9040         c3    336    ccc     C4   9040 0.28383300  12.010000   ; qtot 190.658046
 9041         c3    336    ccc     C5   9041 0.32403300  12.010000   ; qtot 190.982079
 9042         h1    336    ccc     H3   9042 0.13386900   1.008000   ; qtot 191.115948
 9043         h1    336    ccc     H4   9043 0.10146700   1.008000   ; qtot 191.217415
 9044         h2    336    ccc     H5   9044 0.10960400   1.008000   ; qtot 191.327019
 9045         os    336    ccc     O1   9045 -0.28650000  16.000000   ; qtot 191.040519
 9046         oh    336    ccc     O2   9046 -0.86012500  16.000000   ; qtot 190.180394
 9047         oh    336    ccc     O3   9047 -0.83772800  16.000000   ; qtot 189.342666
 9048         oh    336    ccc     O4   9048 -0.77449700  16.000000   ; qtot 188.568169
 9049         c3    336    ccc     C6   9049 0.37576500  12.010000   ; qtot 188.943934
 9050         ho    336    ccc     H6   9050 0.53656000   1.008000   ; qtot 189.480494
 9051         ho    336    ccc     H7   9051 0.49492100   1.008000   ; qtot 189.975415
 9052         ho    336    ccc     H8   9052 0.51297200   1.008000   ; qtot 190.488387
 9053         h1    336    ccc     H9   9053 0.05653400   1.008000   ; qtot 190.544921
 9054         h1    336    ccc    H10   9054 0.05653400   1.008000   ; qtot 190.601455
 9055         oh    336    ccc     O5   9055 -0.84113600  16.000000   ; qtot 189.760319
 9056         ho    336    ccc    H11   9056 0.51201600   1.008000   ; qtot 190.272335
 9057         os    336    ccc     O6   9057 -0.26013600  16.000000   ; qtot 190.012199
; residue  337 ccc rtp ccc q 0.0
 9058         c3    337    ccc     C1   9058 -0.33178800  12.010000   ; qtot 189.680411
 9059         c3    337    ccc     C2   9059 0.30606500  12.010000   ; qtot 189.986476
 9060         h1    337    ccc     H1   9060 0.11662300   1.008000   ; qtot 190.103099
 9061         h1    337    ccc     H2   9061 0.11526800   1.008000   ; qtot 190.218367
 9062         c3    337    ccc     C3   9062 0.15592700  12.010000   ; qtot 190.374294
 9063         c3    337    ccc     C4   9063 0.28383300  12.010000   ; qtot 190.658127
 9064         c3    337    ccc     C5   9064 0.32403300  12.010000   ; qtot 190.982160
 9065         h1    337    ccc     H3   9065 0.13386900   1.008000   ; qtot 191.116029
 9066         h1    337    ccc     H4   9066 0.10146700   1.008000   ; qtot 191.217496
 9067         h2    337    ccc     H5   9067 0.10960400   1.008000   ; qtot 191.327100
 9068         os    337    ccc     O1   9068 -0.28650000  16.000000   ; qtot 191.040600
 9069         oh    337    ccc     O2   9069 -0.86012500  16.000000   ; qtot 190.180475
 9070         oh    337    ccc     O3   9070 -0.83772800  16.000000   ; qtot 189.342747
 9071         oh    337    ccc     O4   9071 -0.77449700  16.000000   ; qtot 188.568250
 9072         c3    337    ccc     C6   9072 0.37576500  12.010000   ; qtot 188.944015
 9073         ho    337    ccc     H6   9073 0.53656000   1.008000   ; qtot 189.480575
 9074         ho    337    ccc     H7   9074 0.49492100   1.008000   ; qtot 189.975496
 9075         ho    337    ccc     H8   9075 0.51297200   1.008000   ; qtot 190.488468
 9076         h1    337    ccc     H9   9076 0.05653400   1.008000   ; qtot 190.545002
 9077         h1    337    ccc    H10   9077 0.05653400   1.008000   ; qtot 190.601536
 9078         oh    337    ccc     O5   9078 -0.84113600  16.000000   ; qtot 189.760400
 9079         ho    337    ccc    H11   9079 0.51201600   1.008000   ; qtot 190.272416
 9080         os    337    ccc     O6   9080 -0.26013600  16.000000   ; qtot 190.012280
; residue  338 ccc rtp ccc q 0.0
 9081         c3    338    ccc     C1   9081 -0.33178800  12.010000   ; qtot 189.680492
 9082         c3    338    ccc     C2   9082 0.30606500  12.010000   ; qtot 189.986557
 9083         h1    338    ccc     H1   9083 0.11662300   1.008000   ; qtot 190.103180
 9084         h1    338    ccc     H2   9084 0.11526800   1.008000   ; qtot 190.218448
 9085         c3    338    ccc     C3   9085 0.15592700  12.010000   ; qtot 190.374375
 9086         c3    338    ccc     C4   9086 0.28383300  12.010000   ; qtot 190.658208
 9087         c3    338    ccc     C5   9087 0.32403300  12.010000   ; qtot 190.982241
 9088         h1    338    ccc     H3   9088 0.13386900   1.008000   ; qtot 191.116110
 9089         h1    338    ccc     H4   9089 0.10146700   1.008000   ; qtot 191.217577
 9090         h2    338    ccc     H5   9090 0.10960400   1.008000   ; qtot 191.327181
 9091         os    338    ccc     O1   9091 -0.28650000  16.000000   ; qtot 191.040681
 9092         oh    338    ccc     O2   9092 -0.86012500  16.000000   ; qtot 190.180556
 9093         oh    338    ccc     O3   9093 -0.83772800  16.000000   ; qtot 189.342828
 9094         oh    338    ccc     O4   9094 -0.77449700  16.000000   ; qtot 188.568331
 9095         c3    338    ccc     C6   9095 0.37576500  12.010000   ; qtot 188.944096
 9096         ho    338    ccc     H6   9096 0.53656000   1.008000   ; qtot 189.480656
 9097         ho    338    ccc     H7   9097 0.49492100   1.008000   ; qtot 189.975577
 9098         ho    338    ccc     H8   9098 0.51297200   1.008000   ; qtot 190.488549
 9099         h1    338    ccc     H9   9099 0.05653400   1.008000   ; qtot 190.545083
 9100         h1    338    ccc    H10   9100 0.05653400   1.008000   ; qtot 190.601617
 9101         oh    338    ccc     O5   9101 -0.84113600  16.000000   ; qtot 189.760481
 9102         ho    338    ccc    H11   9102 0.51201600   1.008000   ; qtot 190.272497
 9103         os    338    ccc     O6   9103 -0.26013600  16.000000   ; qtot 190.012361
; residue  339 ccc rtp ccc q 0.0
 9104         c3    339    ccc     C1   9104 -0.33178800  12.010000   ; qtot 189.680573
 9105         c3    339    ccc     C2   9105 0.30606500  12.010000   ; qtot 189.986638
 9106         h1    339    ccc     H1   9106 0.11662300   1.008000   ; qtot 190.103261
 9107         h1    339    ccc     H2   9107 0.11526800   1.008000   ; qtot 190.218529
 9108         c3    339    ccc     C3   9108 0.15592700  12.010000   ; qtot 190.374456
 9109         c3    339    ccc     C4   9109 0.28383300  12.010000   ; qtot 190.658289
 9110         c3    339    ccc     C5   9110 0.32403300  12.010000   ; qtot 190.982322
 9111         h1    339    ccc     H3   9111 0.13386900   1.008000   ; qtot 191.116191
 9112         h1    339    ccc     H4   9112 0.10146700   1.008000   ; qtot 191.217658
 9113         h2    339    ccc     H5   9113 0.10960400   1.008000   ; qtot 191.327262
 9114         os    339    ccc     O1   9114 -0.28650000  16.000000   ; qtot 191.040762
 9115         oh    339    ccc     O2   9115 -0.86012500  16.000000   ; qtot 190.180637
 9116         oh    339    ccc     O3   9116 -0.83772800  16.000000   ; qtot 189.342909
 9117         oh    339    ccc     O4   9117 -0.77449700  16.000000   ; qtot 188.568412
 9118         c3    339    ccc     C6   9118 0.37576500  12.010000   ; qtot 188.944177
 9119         ho    339    ccc     H6   9119 0.53656000   1.008000   ; qtot 189.480737
 9120         ho    339    ccc     H7   9120 0.49492100   1.008000   ; qtot 189.975658
 9121         ho    339    ccc     H8   9121 0.51297200   1.008000   ; qtot 190.488630
 9122         h1    339    ccc     H9   9122 0.05653400   1.008000   ; qtot 190.545164
 9123         h1    339    ccc    H10   9123 0.05653400   1.008000   ; qtot 190.601698
 9124         oh    339    ccc     O5   9124 -0.84113600  16.000000   ; qtot 189.760562
 9125         ho    339    ccc    H11   9125 0.51201600   1.008000   ; qtot 190.272578
 9126         os    339    ccc     O6   9126 -0.26013600  16.000000   ; qtot 190.012442
; residue  340 ccc rtp ccc q 0.0
 9127         c3    340    ccc     C1   9127 -0.33178800  12.010000   ; qtot 189.680654
 9128         c3    340    ccc     C2   9128 0.30606500  12.010000   ; qtot 189.986719
 9129         h1    340    ccc     H1   9129 0.11662300   1.008000   ; qtot 190.103342
 9130         h1    340    ccc     H2   9130 0.11526800   1.008000   ; qtot 190.218610
 9131         c3    340    ccc     C3   9131 0.15592700  12.010000   ; qtot 190.374537
 9132         c3    340    ccc     C4   9132 0.28383300  12.010000   ; qtot 190.658370
 9133         c3    340    ccc     C5   9133 0.32403300  12.010000   ; qtot 190.982403
 9134         h1    340    ccc     H3   9134 0.13386900   1.008000   ; qtot 191.116272
 9135         h1    340    ccc     H4   9135 0.10146700   1.008000   ; qtot 191.217739
 9136         h2    340    ccc     H5   9136 0.10960400   1.008000   ; qtot 191.327343
 9137         os    340    ccc     O1   9137 -0.28650000  16.000000   ; qtot 191.040843
 9138         oh    340    ccc     O2   9138 -0.86012500  16.000000   ; qtot 190.180718
 9139         oh    340    ccc     O3   9139 -0.83772800  16.000000   ; qtot 189.342990
 9140         oh    340    ccc     O4   9140 -0.77449700  16.000000   ; qtot 188.568493
 9141         c3    340    ccc     C6   9141 0.37576500  12.010000   ; qtot 188.944258
 9142         ho    340    ccc     H6   9142 0.53656000   1.008000   ; qtot 189.480818
 9143         ho    340    ccc     H7   9143 0.49492100   1.008000   ; qtot 189.975739
 9144         ho    340    ccc     H8   9144 0.51297200   1.008000   ; qtot 190.488711
 9145         h1    340    ccc     H9   9145 0.05653400   1.008000   ; qtot 190.545245
 9146         h1    340    ccc    H10   9146 0.05653400   1.008000   ; qtot 190.601779
 9147         oh    340    ccc     O5   9147 -0.84113600  16.000000   ; qtot 189.760643
 9148         ho    340    ccc    H11   9148 0.51201600   1.008000   ; qtot 190.272659
 9149         os    340    ccc     O6   9149 -0.26013600  16.000000   ; qtot 190.012523
; residue  341 ccc rtp ccc q 0.0
 9150         c3    341    ccc     C1   9150 -0.33178800  12.010000   ; qtot 189.680735
 9151         c3    341    ccc     C2   9151 0.30606500  12.010000   ; qtot 189.986800
 9152         h1    341    ccc     H1   9152 0.11662300   1.008000   ; qtot 190.103423
 9153         h1    341    ccc     H2   9153 0.11526800   1.008000   ; qtot 190.218691
 9154         c3    341    ccc     C3   9154 0.15592700  12.010000   ; qtot 190.374618
 9155         c3    341    ccc     C4   9155 0.28383300  12.010000   ; qtot 190.658451
 9156         c3    341    ccc     C5   9156 0.32403300  12.010000   ; qtot 190.982484
 9157         h1    341    ccc     H3   9157 0.13386900   1.008000   ; qtot 191.116353
 9158         h1    341    ccc     H4   9158 0.10146700   1.008000   ; qtot 191.217820
 9159         h2    341    ccc     H5   9159 0.10960400   1.008000   ; qtot 191.327424
 9160         os    341    ccc     O1   9160 -0.28650000  16.000000   ; qtot 191.040924
 9161         oh    341    ccc     O2   9161 -0.86012500  16.000000   ; qtot 190.180799
 9162         oh    341    ccc     O3   9162 -0.83772800  16.000000   ; qtot 189.343071
 9163         oh    341    ccc     O4   9163 -0.77449700  16.000000   ; qtot 188.568574
 9164         c3    341    ccc     C6   9164 0.37576500  12.010000   ; qtot 188.944339
 9165         ho    341    ccc     H6   9165 0.53656000   1.008000   ; qtot 189.480899
 9166         ho    341    ccc     H7   9166 0.49492100   1.008000   ; qtot 189.975820
 9167         ho    341    ccc     H8   9167 0.51297200   1.008000   ; qtot 190.488792
 9168         h1    341    ccc     H9   9168 0.05653400   1.008000   ; qtot 190.545326
 9169         h1    341    ccc    H10   9169 0.05653400   1.008000   ; qtot 190.601860
 9170         oh    341    ccc     O5   9170 -0.84113600  16.000000   ; qtot 189.760724
 9171         ho    341    ccc    H11   9171 0.51201600   1.008000   ; qtot 190.272740
 9172         os    341    ccc     O6   9172 -0.26013600  16.000000   ; qtot 190.012604
; residue  342 ccc rtp ccc q 0.0
 9173         c3    342    ccc     C1   9173 -0.33178800  12.010000   ; qtot 189.680816
 9174         c3    342    ccc     C2   9174 0.30606500  12.010000   ; qtot 189.986881
 9175         h1    342    ccc     H1   9175 0.11662300   1.008000   ; qtot 190.103504
 9176         h1    342    ccc     H2   9176 0.11526800   1.008000   ; qtot 190.218772
 9177         c3    342    ccc     C3   9177 0.15592700  12.010000   ; qtot 190.374699
 9178         c3    342    ccc     C4   9178 0.28383300  12.010000   ; qtot 190.658532
 9179         c3    342    ccc     C5   9179 0.32403300  12.010000   ; qtot 190.982565
 9180         h1    342    ccc     H3   9180 0.13386900   1.008000   ; qtot 191.116434
 9181         h1    342    ccc     H4   9181 0.10146700   1.008000   ; qtot 191.217901
 9182         h2    342    ccc     H5   9182 0.10960400   1.008000   ; qtot 191.327505
 9183         os    342    ccc     O1   9183 -0.28650000  16.000000   ; qtot 191.041005
 9184         oh    342    ccc     O2   9184 -0.86012500  16.000000   ; qtot 190.180880
 9185         oh    342    ccc     O3   9185 -0.83772800  16.000000   ; qtot 189.343152
 9186         oh    342    ccc     O4   9186 -0.77449700  16.000000   ; qtot 188.568655
 9187         c3    342    ccc     C6   9187 0.37576500  12.010000   ; qtot 188.944420
 9188         ho    342    ccc     H6   9188 0.53656000   1.008000   ; qtot 189.480980
 9189         ho    342    ccc     H7   9189 0.49492100   1.008000   ; qtot 189.975901
 9190         ho    342    ccc     H8   9190 0.51297200   1.008000   ; qtot 190.488873
 9191         h1    342    ccc     H9   9191 0.05653400   1.008000   ; qtot 190.545407
 9192         h1    342    ccc    H10   9192 0.05653400   1.008000   ; qtot 190.601941
 9193         oh    342    ccc     O5   9193 -0.84113600  16.000000   ; qtot 189.760805
 9194         ho    342    ccc    H11   9194 0.51201600   1.008000   ; qtot 190.272821
 9195         os    342    ccc     O6   9195 -0.26013600  16.000000   ; qtot 190.012685
; residue  343 ccc rtp ccc q 0.0
 9196         c3    343    ccc     C1   9196 -0.33178800  12.010000   ; qtot 189.680897
 9197         c3    343    ccc     C2   9197 0.30606500  12.010000   ; qtot 189.986962
 9198         h1    343    ccc     H1   9198 0.11662300   1.008000   ; qtot 190.103585
 9199         h1    343    ccc     H2   9199 0.11526800   1.008000   ; qtot 190.218853
 9200         c3    343    ccc     C3   9200 0.15592700  12.010000   ; qtot 190.374780
 9201         c3    343    ccc     C4   9201 0.28383300  12.010000   ; qtot 190.658613
 9202         c3    343    ccc     C5   9202 0.32403300  12.010000   ; qtot 190.982646
 9203         h1    343    ccc     H3   9203 0.13386900   1.008000   ; qtot 191.116515
 9204         h1    343    ccc     H4   9204 0.10146700   1.008000   ; qtot 191.217982
 9205         h2    343    ccc     H5   9205 0.10960400   1.008000   ; qtot 191.327586
 9206         os    343    ccc     O1   9206 -0.28650000  16.000000   ; qtot 191.041086
 9207         oh    343    ccc     O2   9207 -0.86012500  16.000000   ; qtot 190.180961
 9208         oh    343    ccc     O3   9208 -0.83772800  16.000000   ; qtot 189.343233
 9209         oh    343    ccc     O4   9209 -0.77449700  16.000000   ; qtot 188.568736
 9210         c3    343    ccc     C6   9210 0.37576500  12.010000   ; qtot 188.944501
 9211         ho    343    ccc     H6   9211 0.53656000   1.008000   ; qtot 189.481061
 9212         ho    343    ccc     H7   9212 0.49492100   1.008000   ; qtot 189.975982
 9213         ho    343    ccc     H8   9213 0.51297200   1.008000   ; qtot 190.488954
 9214         h1    343    ccc     H9   9214 0.05653400   1.008000   ; qtot 190.545488
 9215         h1    343    ccc    H10   9215 0.05653400   1.008000   ; qtot 190.602022
 9216         oh    343    ccc     O5   9216 -0.84113600  16.000000   ; qtot 189.760886
 9217         ho    343    ccc    H11   9217 0.51201600   1.008000   ; qtot 190.272902
 9218         os    343    ccc     O6   9218 -0.26013600  16.000000   ; qtot 190.012766
; residue  344 ccc rtp ccc q 0.0
 9219         c3    344    ccc     C1   9219 -0.33178800  12.010000   ; qtot 189.680978
 9220         c3    344    ccc     C2   9220 0.30606500  12.010000   ; qtot 189.987043
 9221         h1    344    ccc     H1   9221 0.11662300   1.008000   ; qtot 190.103666
 9222         h1    344    ccc     H2   9222 0.11526800   1.008000   ; qtot 190.218934
 9223         c3    344    ccc     C3   9223 0.15592700  12.010000   ; qtot 190.374861
 9224         c3    344    ccc     C4   9224 0.28383300  12.010000   ; qtot 190.658694
 9225         c3    344    ccc     C5   9225 0.32403300  12.010000   ; qtot 190.982727
 9226         h1    344    ccc     H3   9226 0.13386900   1.008000   ; qtot 191.116596
 9227         h1    344    ccc     H4   9227 0.10146700   1.008000   ; qtot 191.218063
 9228         h2    344    ccc     H5   9228 0.10960400   1.008000   ; qtot 191.327667
 9229         os    344    ccc     O1   9229 -0.28650000  16.000000   ; qtot 191.041167
 9230         oh    344    ccc     O2   9230 -0.86012500  16.000000   ; qtot 190.181042
 9231         oh    344    ccc     O3   9231 -0.83772800  16.000000   ; qtot 189.343314
 9232         oh    344    ccc     O4   9232 -0.77449700  16.000000   ; qtot 188.568817
 9233         c3    344    ccc     C6   9233 0.37576500  12.010000   ; qtot 188.944582
 9234         ho    344    ccc     H6   9234 0.53656000   1.008000   ; qtot 189.481142
 9235         ho    344    ccc     H7   9235 0.49492100   1.008000   ; qtot 189.976063
 9236         ho    344    ccc     H8   9236 0.51297200   1.008000   ; qtot 190.489035
 9237         h1    344    ccc     H9   9237 0.05653400   1.008000   ; qtot 190.545569
 9238         h1    344    ccc    H10   9238 0.05653400   1.008000   ; qtot 190.602103
 9239         oh    344    ccc     O5   9239 -0.84113600  16.000000   ; qtot 189.760967
 9240         ho    344    ccc    H11   9240 0.51201600   1.008000   ; qtot 190.272983
 9241         os    344    ccc     O6   9241 -0.26013600  16.000000   ; qtot 190.012847
; residue  345 ccc rtp ccc q 0.0
 9242         c3    345    ccc     C1   9242 -0.33178800  12.010000   ; qtot 189.681059
 9243         c3    345    ccc     C2   9243 0.30606500  12.010000   ; qtot 189.987124
 9244         h1    345    ccc     H1   9244 0.11662300   1.008000   ; qtot 190.103747
 9245         h1    345    ccc     H2   9245 0.11526800   1.008000   ; qtot 190.219015
 9246         c3    345    ccc     C3   9246 0.15592700  12.010000   ; qtot 190.374942
 9247         c3    345    ccc     C4   9247 0.28383300  12.010000   ; qtot 190.658775
 9248         c3    345    ccc     C5   9248 0.32403300  12.010000   ; qtot 190.982808
 9249         h1    345    ccc     H3   9249 0.13386900   1.008000   ; qtot 191.116677
 9250         h1    345    ccc     H4   9250 0.10146700   1.008000   ; qtot 191.218144
 9251         h2    345    ccc     H5   9251 0.10960400   1.008000   ; qtot 191.327748
 9252         os    345    ccc     O1   9252 -0.28650000  16.000000   ; qtot 191.041248
 9253         oh    345    ccc     O2   9253 -0.86012500  16.000000   ; qtot 190.181123
 9254         oh    345    ccc     O3   9254 -0.83772800  16.000000   ; qtot 189.343395
 9255         oh    345    ccc     O4   9255 -0.77449700  16.000000   ; qtot 188.568898
 9256         c3    345    ccc     C6   9256 0.37576500  12.010000   ; qtot 188.944663
 9257         ho    345    ccc     H6   9257 0.53656000   1.008000   ; qtot 189.481223
 9258         ho    345    ccc     H7   9258 0.49492100   1.008000   ; qtot 189.976144
 9259         ho    345    ccc     H8   9259 0.51297200   1.008000   ; qtot 190.489116
 9260         h1    345    ccc     H9   9260 0.05653400   1.008000   ; qtot 190.545650
 9261         h1    345    ccc    H10   9261 0.05653400   1.008000   ; qtot 190.602184
 9262         oh    345    ccc     O5   9262 -0.84113600  16.000000   ; qtot 189.761048
 9263         ho    345    ccc    H11   9263 0.51201600   1.008000   ; qtot 190.273064
 9264         os    345    ccc     O6   9264 -0.26013600  16.000000   ; qtot 190.012928
; residue  346 ccc rtp ccc q 0.0
 9265         c3    346    ccc     C1   9265 -0.33178800  12.010000   ; qtot 189.681140
 9266         c3    346    ccc     C2   9266 0.30606500  12.010000   ; qtot 189.987205
 9267         h1    346    ccc     H1   9267 0.11662300   1.008000   ; qtot 190.103828
 9268         h1    346    ccc     H2   9268 0.11526800   1.008000   ; qtot 190.219096
 9269         c3    346    ccc     C3   9269 0.15592700  12.010000   ; qtot 190.375023
 9270         c3    346    ccc     C4   9270 0.28383300  12.010000   ; qtot 190.658856
 9271         c3    346    ccc     C5   9271 0.32403300  12.010000   ; qtot 190.982889
 9272         h1    346    ccc     H3   9272 0.13386900   1.008000   ; qtot 191.116758
 9273         h1    346    ccc     H4   9273 0.10146700   1.008000   ; qtot 191.218225
 9274         h2    346    ccc     H5   9274 0.10960400   1.008000   ; qtot 191.327829
 9275         os    346    ccc     O1   9275 -0.28650000  16.000000   ; qtot 191.041329
 9276         oh    346    ccc     O2   9276 -0.86012500  16.000000   ; qtot 190.181204
 9277         oh    346    ccc     O3   9277 -0.83772800  16.000000   ; qtot 189.343476
 9278         oh    346    ccc     O4   9278 -0.77449700  16.000000   ; qtot 188.568979
 9279         c3    346    ccc     C6   9279 0.37576500  12.010000   ; qtot 188.944744
 9280         ho    346    ccc     H6   9280 0.53656000   1.008000   ; qtot 189.481304
 9281         ho    346    ccc     H7   9281 0.49492100   1.008000   ; qtot 189.976225
 9282         ho    346    ccc     H8   9282 0.51297200   1.008000   ; qtot 190.489197
 9283         h1    346    ccc     H9   9283 0.05653400   1.008000   ; qtot 190.545731
 9284         h1    346    ccc    H10   9284 0.05653400   1.008000   ; qtot 190.602265
 9285         oh    346    ccc     O5   9285 -0.84113600  16.000000   ; qtot 189.761129
 9286         ho    346    ccc    H11   9286 0.51201600   1.008000   ; qtot 190.273145
 9287         os    346    ccc     O6   9287 -0.26013600  16.000000   ; qtot 190.013009
; residue  347 ccc rtp ccc q 0.0
 9288         c3    347    ccc     C1   9288 -0.33178800  12.010000   ; qtot 189.681221
 9289         c3    347    ccc     C2   9289 0.30606500  12.010000   ; qtot 189.987286
 9290         h1    347    ccc     H1   9290 0.11662300   1.008000   ; qtot 190.103909
 9291         h1    347    ccc     H2   9291 0.11526800   1.008000   ; qtot 190.219177
 9292         c3    347    ccc     C3   9292 0.15592700  12.010000   ; qtot 190.375104
 9293         c3    347    ccc     C4   9293 0.28383300  12.010000   ; qtot 190.658937
 9294         c3    347    ccc     C5   9294 0.32403300  12.010000   ; qtot 190.982970
 9295         h1    347    ccc     H3   9295 0.13386900   1.008000   ; qtot 191.116839
 9296         h1    347    ccc     H4   9296 0.10146700   1.008000   ; qtot 191.218306
 9297         h2    347    ccc     H5   9297 0.10960400   1.008000   ; qtot 191.327910
 9298         os    347    ccc     O1   9298 -0.28650000  16.000000   ; qtot 191.041410
 9299         oh    347    ccc     O2   9299 -0.86012500  16.000000   ; qtot 190.181285
 9300         oh    347    ccc     O3   9300 -0.83772800  16.000000   ; qtot 189.343557
 9301         oh    347    ccc     O4   9301 -0.77449700  16.000000   ; qtot 188.569060
 9302         c3    347    ccc     C6   9302 0.37576500  12.010000   ; qtot 188.944825
 9303         ho    347    ccc     H6   9303 0.53656000   1.008000   ; qtot 189.481385
 9304         ho    347    ccc     H7   9304 0.49492100   1.008000   ; qtot 189.976306
 9305         ho    347    ccc     H8   9305 0.51297200   1.008000   ; qtot 190.489278
 9306         h1    347    ccc     H9   9306 0.05653400   1.008000   ; qtot 190.545812
 9307         h1    347    ccc    H10   9307 0.05653400   1.008000   ; qtot 190.602346
 9308         oh    347    ccc     O5   9308 -0.84113600  16.000000   ; qtot 189.761210
 9309         ho    347    ccc    H11   9309 0.51201600   1.008000   ; qtot 190.273226
 9310         os    347    ccc     O6   9310 -0.26013600  16.000000   ; qtot 190.013090
; residue  348 ccc rtp ccc q 0.0
 9311         c3    348    ccc     C1   9311 -0.33178800  12.010000   ; qtot 189.681302
 9312         c3    348    ccc     C2   9312 0.30606500  12.010000   ; qtot 189.987367
 9313         h1    348    ccc     H1   9313 0.11662300   1.008000   ; qtot 190.103990
 9314         h1    348    ccc     H2   9314 0.11526800   1.008000   ; qtot 190.219258
 9315         c3    348    ccc     C3   9315 0.15592700  12.010000   ; qtot 190.375185
 9316         c3    348    ccc     C4   9316 0.28383300  12.010000   ; qtot 190.659018
 9317         c3    348    ccc     C5   9317 0.32403300  12.010000   ; qtot 190.983051
 9318         h1    348    ccc     H3   9318 0.13386900   1.008000   ; qtot 191.116920
 9319         h1    348    ccc     H4   9319 0.10146700   1.008000   ; qtot 191.218387
 9320         h2    348    ccc     H5   9320 0.10960400   1.008000   ; qtot 191.327991
 9321         os    348    ccc     O1   9321 -0.28650000  16.000000   ; qtot 191.041491
 9322         oh    348    ccc     O2   9322 -0.86012500  16.000000   ; qtot 190.181366
 9323         oh    348    ccc     O3   9323 -0.83772800  16.000000   ; qtot 189.343638
 9324         oh    348    ccc     O4   9324 -0.77449700  16.000000   ; qtot 188.569141
 9325         c3    348    ccc     C6   9325 0.37576500  12.010000   ; qtot 188.944906
 9326         ho    348    ccc     H6   9326 0.53656000   1.008000   ; qtot 189.481466
 9327         ho    348    ccc     H7   9327 0.49492100   1.008000   ; qtot 189.976387
 9328         ho    348    ccc     H8   9328 0.51297200   1.008000   ; qtot 190.489359
 9329         h1    348    ccc     H9   9329 0.05653400   1.008000   ; qtot 190.545893
 9330         h1    348    ccc    H10   9330 0.05653400   1.008000   ; qtot 190.602427
 9331         oh    348    ccc     O5   9331 -0.84113600  16.000000   ; qtot 189.761291
 9332         ho    348    ccc    H11   9332 0.51201600   1.008000   ; qtot 190.273307
 9333         os    348    ccc     O6   9333 -0.26013600  16.000000   ; qtot 190.013171
; residue  349 ccc rtp ccc q 0.0
 9334         c3    349    ccc     C1   9334 -0.33178800  12.010000   ; qtot 189.681383
 9335         c3    349    ccc     C2   9335 0.30606500  12.010000   ; qtot 189.987448
 9336         h1    349    ccc     H1   9336 0.11662300   1.008000   ; qtot 190.104071
 9337         h1    349    ccc     H2   9337 0.11526800   1.008000   ; qtot 190.219339
 9338         c3    349    ccc     C3   9338 0.15592700  12.010000   ; qtot 190.375266
 9339         c3    349    ccc     C4   9339 0.28383300  12.010000   ; qtot 190.659099
 9340         c3    349    ccc     C5   9340 0.32403300  12.010000   ; qtot 190.983132
 9341         h1    349    ccc     H3   9341 0.13386900   1.008000   ; qtot 191.117001
 9342         h1    349    ccc     H4   9342 0.10146700   1.008000   ; qtot 191.218468
 9343         h2    349    ccc     H5   9343 0.10960400   1.008000   ; qtot 191.328072
 9344         os    349    ccc     O1   9344 -0.28650000  16.000000   ; qtot 191.041572
 9345         oh    349    ccc     O2   9345 -0.86012500  16.000000   ; qtot 190.181447
 9346         oh    349    ccc     O3   9346 -0.83772800  16.000000   ; qtot 189.343719
 9347         oh    349    ccc     O4   9347 -0.77449700  16.000000   ; qtot 188.569222
 9348         c3    349    ccc     C6   9348 0.37576500  12.010000   ; qtot 188.944987
 9349         ho    349    ccc     H6   9349 0.53656000   1.008000   ; qtot 189.481547
 9350         ho    349    ccc     H7   9350 0.49492100   1.008000   ; qtot 189.976468
 9351         ho    349    ccc     H8   9351 0.51297200   1.008000   ; qtot 190.489440
 9352         h1    349    ccc     H9   9352 0.05653400   1.008000   ; qtot 190.545974
 9353         h1    349    ccc    H10   9353 0.05653400   1.008000   ; qtot 190.602508
 9354         oh    349    ccc     O5   9354 -0.84113600  16.000000   ; qtot 189.761372
 9355         ho    349    ccc    H11   9355 0.51201600   1.008000   ; qtot 190.273388
 9356         os    349    ccc     O6   9356 -0.26013600  16.000000   ; qtot 190.013252
; residue  350 ccc rtp ccc q 0.0
 9357         c3    350    ccc     C1   9357 -0.33178800  12.010000   ; qtot 189.681464
 9358         c3    350    ccc     C2   9358 0.30606500  12.010000   ; qtot 189.987529
 9359         h1    350    ccc     H1   9359 0.11662300   1.008000   ; qtot 190.104152
 9360         h1    350    ccc     H2   9360 0.11526800   1.008000   ; qtot 190.219420
 9361         c3    350    ccc     C3   9361 0.15592700  12.010000   ; qtot 190.375347
 9362         c3    350    ccc     C4   9362 0.28383300  12.010000   ; qtot 190.659180
 9363         c3    350    ccc     C5   9363 0.32403300  12.010000   ; qtot 190.983213
 9364         h1    350    ccc     H3   9364 0.13386900   1.008000   ; qtot 191.117082
 9365         h1    350    ccc     H4   9365 0.10146700   1.008000   ; qtot 191.218549
 9366         h2    350    ccc     H5   9366 0.10960400   1.008000   ; qtot 191.328153
 9367         os    350    ccc     O1   9367 -0.28650000  16.000000   ; qtot 191.041653
 9368         oh    350    ccc     O2   9368 -0.86012500  16.000000   ; qtot 190.181528
 9369         oh    350    ccc     O3   9369 -0.83772800  16.000000   ; qtot 189.343800
 9370         oh    350    ccc     O4   9370 -0.77449700  16.000000   ; qtot 188.569303
 9371         c3    350    ccc     C6   9371 0.37576500  12.010000   ; qtot 188.945068
 9372         ho    350    ccc     H6   9372 0.53656000   1.008000   ; qtot 189.481628
 9373         ho    350    ccc     H7   9373 0.49492100   1.008000   ; qtot 189.976549
 9374         ho    350    ccc     H8   9374 0.51297200   1.008000   ; qtot 190.489521
 9375         h1    350    ccc     H9   9375 0.05653400   1.008000   ; qtot 190.546055
 9376         h1    350    ccc    H10   9376 0.05653400   1.008000   ; qtot 190.602589
 9377         oh    350    ccc     O5   9377 -0.84113600  16.000000   ; qtot 189.761453
 9378         ho    350    ccc    H11   9378 0.51201600   1.008000   ; qtot 190.273469
 9379         os    350    ccc     O6   9379 -0.26013600  16.000000   ; qtot 190.013333
; residue  351 ccc rtp ccc q 0.0
 9380         c3    351    ccc     C1   9380 -0.33178800  12.010000   ; qtot 189.681545
 9381         c3    351    ccc     C2   9381 0.30606500  12.010000   ; qtot 189.987610
 9382         h1    351    ccc     H1   9382 0.11662300   1.008000   ; qtot 190.104233
 9383         h1    351    ccc     H2   9383 0.11526800   1.008000   ; qtot 190.219501
 9384         c3    351    ccc     C3   9384 0.15592700  12.010000   ; qtot 190.375428
 9385         c3    351    ccc     C4   9385 0.28383300  12.010000   ; qtot 190.659261
 9386         c3    351    ccc     C5   9386 0.32403300  12.010000   ; qtot 190.983294
 9387         h1    351    ccc     H3   9387 0.13386900   1.008000   ; qtot 191.117163
 9388         h1    351    ccc     H4   9388 0.10146700   1.008000   ; qtot 191.218630
 9389         h2    351    ccc     H5   9389 0.10960400   1.008000   ; qtot 191.328234
 9390         os    351    ccc     O1   9390 -0.28650000  16.000000   ; qtot 191.041734
 9391         oh    351    ccc     O2   9391 -0.86012500  16.000000   ; qtot 190.181609
 9392         oh    351    ccc     O3   9392 -0.83772800  16.000000   ; qtot 189.343881
 9393         oh    351    ccc     O4   9393 -0.77449700  16.000000   ; qtot 188.569384
 9394         c3    351    ccc     C6   9394 0.37576500  12.010000   ; qtot 188.945149
 9395         ho    351    ccc     H6   9395 0.53656000   1.008000   ; qtot 189.481709
 9396         ho    351    ccc     H7   9396 0.49492100   1.008000   ; qtot 189.976630
 9397         ho    351    ccc     H8   9397 0.51297200   1.008000   ; qtot 190.489602
 9398         h1    351    ccc     H9   9398 0.05653400   1.008000   ; qtot 190.546136
 9399         h1    351    ccc    H10   9399 0.05653400   1.008000   ; qtot 190.602670
 9400         oh    351    ccc     O5   9400 -0.84113600  16.000000   ; qtot 189.761534
 9401         ho    351    ccc    H11   9401 0.51201600   1.008000   ; qtot 190.273550
 9402         os    351    ccc     O6   9402 -0.26013600  16.000000   ; qtot 190.013414
; residue  352 ccc rtp ccc q 0.0
 9403         c3    352    ccc     C1   9403 -0.33178800  12.010000   ; qtot 189.681626
 9404         c3    352    ccc     C2   9404 0.30606500  12.010000   ; qtot 189.987691
 9405         h1    352    ccc     H1   9405 0.11662300   1.008000   ; qtot 190.104314
 9406         h1    352    ccc     H2   9406 0.11526800   1.008000   ; qtot 190.219582
 9407         c3    352    ccc     C3   9407 0.15592700  12.010000   ; qtot 190.375509
 9408         c3    352    ccc     C4   9408 0.28383300  12.010000   ; qtot 190.659342
 9409         c3    352    ccc     C5   9409 0.32403300  12.010000   ; qtot 190.983375
 9410         h1    352    ccc     H3   9410 0.13386900   1.008000   ; qtot 191.117244
 9411         h1    352    ccc     H4   9411 0.10146700   1.008000   ; qtot 191.218711
 9412         h2    352    ccc     H5   9412 0.10960400   1.008000   ; qtot 191.328315
 9413         os    352    ccc     O1   9413 -0.28650000  16.000000   ; qtot 191.041815
 9414         oh    352    ccc     O2   9414 -0.86012500  16.000000   ; qtot 190.181690
 9415         oh    352    ccc     O3   9415 -0.83772800  16.000000   ; qtot 189.343962
 9416         oh    352    ccc     O4   9416 -0.77449700  16.000000   ; qtot 188.569465
 9417         c3    352    ccc     C6   9417 0.37576500  12.010000   ; qtot 188.945230
 9418         ho    352    ccc     H6   9418 0.53656000   1.008000   ; qtot 189.481790
 9419         ho    352    ccc     H7   9419 0.49492100   1.008000   ; qtot 189.976711
 9420         ho    352    ccc     H8   9420 0.51297200   1.008000   ; qtot 190.489683
 9421         h1    352    ccc     H9   9421 0.05653400   1.008000   ; qtot 190.546217
 9422         h1    352    ccc    H10   9422 0.05653400   1.008000   ; qtot 190.602751
 9423         oh    352    ccc     O5   9423 -0.84113600  16.000000   ; qtot 189.761615
 9424         ho    352    ccc    H11   9424 0.51201600   1.008000   ; qtot 190.273631
 9425         os    352    ccc     O6   9425 -0.26013600  16.000000   ; qtot 190.013495
; residue  353 ccc rtp ccc q 0.0
 9426         c3    353    ccc     C1   9426 -0.33178800  12.010000   ; qtot 189.681707
 9427         c3    353    ccc     C2   9427 0.30606500  12.010000   ; qtot 189.987772
 9428         h1    353    ccc     H1   9428 0.11662300   1.008000   ; qtot 190.104395
 9429         h1    353    ccc     H2   9429 0.11526800   1.008000   ; qtot 190.219663
 9430         c3    353    ccc     C3   9430 0.15592700  12.010000   ; qtot 190.375590
 9431         c3    353    ccc     C4   9431 0.28383300  12.010000   ; qtot 190.659423
 9432         c3    353    ccc     C5   9432 0.32403300  12.010000   ; qtot 190.983456
 9433         h1    353    ccc     H3   9433 0.13386900   1.008000   ; qtot 191.117325
 9434         h1    353    ccc     H4   9434 0.10146700   1.008000   ; qtot 191.218792
 9435         h2    353    ccc     H5   9435 0.10960400   1.008000   ; qtot 191.328396
 9436         os    353    ccc     O1   9436 -0.28650000  16.000000   ; qtot 191.041896
 9437         oh    353    ccc     O2   9437 -0.86012500  16.000000   ; qtot 190.181771
 9438         oh    353    ccc     O3   9438 -0.83772800  16.000000   ; qtot 189.344043
 9439         oh    353    ccc     O4   9439 -0.77449700  16.000000   ; qtot 188.569546
 9440         c3    353    ccc     C6   9440 0.37576500  12.010000   ; qtot 188.945311
 9441         ho    353    ccc     H6   9441 0.53656000   1.008000   ; qtot 189.481871
 9442         ho    353    ccc     H7   9442 0.49492100   1.008000   ; qtot 189.976792
 9443         ho    353    ccc     H8   9443 0.51297200   1.008000   ; qtot 190.489764
 9444         h1    353    ccc     H9   9444 0.05653400   1.008000   ; qtot 190.546298
 9445         h1    353    ccc    H10   9445 0.05653400   1.008000   ; qtot 190.602832
 9446         oh    353    ccc     O5   9446 -0.84113600  16.000000   ; qtot 189.761696
 9447         ho    353    ccc    H11   9447 0.51201600   1.008000   ; qtot 190.273712
 9448         os    353    ccc     O6   9448 -0.26013600  16.000000   ; qtot 190.013576
; residue  354 ccc rtp ccc q 0.0
 9449         c3    354    ccc     C1   9449 -0.33178800  12.010000   ; qtot 189.681788
 9450         c3    354    ccc     C2   9450 0.30606500  12.010000   ; qtot 189.987853
 9451         h1    354    ccc     H1   9451 0.11662300   1.008000   ; qtot 190.104476
 9452         h1    354    ccc     H2   9452 0.11526800   1.008000   ; qtot 190.219744
 9453         c3    354    ccc     C3   9453 0.15592700  12.010000   ; qtot 190.375671
 9454         c3    354    ccc     C4   9454 0.28383300  12.010000   ; qtot 190.659504
 9455         c3    354    ccc     C5   9455 0.32403300  12.010000   ; qtot 190.983537
 9456         h1    354    ccc     H3   9456 0.13386900   1.008000   ; qtot 191.117406
 9457         h1    354    ccc     H4   9457 0.10146700   1.008000   ; qtot 191.218873
 9458         h2    354    ccc     H5   9458 0.10960400   1.008000   ; qtot 191.328477
 9459         os    354    ccc     O1   9459 -0.28650000  16.000000   ; qtot 191.041977
 9460         oh    354    ccc     O2   9460 -0.86012500  16.000000   ; qtot 190.181852
 9461         oh    354    ccc     O3   9461 -0.83772800  16.000000   ; qtot 189.344124
 9462         oh    354    ccc     O4   9462 -0.77449700  16.000000   ; qtot 188.569627
 9463         c3    354    ccc     C6   9463 0.37576500  12.010000   ; qtot 188.945392
 9464         ho    354    ccc     H6   9464 0.53656000   1.008000   ; qtot 189.481952
 9465         ho    354    ccc     H7   9465 0.49492100   1.008000   ; qtot 189.976873
 9466         ho    354    ccc     H8   9466 0.51297200   1.008000   ; qtot 190.489845
 9467         h1    354    ccc     H9   9467 0.05653400   1.008000   ; qtot 190.546379
 9468         h1    354    ccc    H10   9468 0.05653400   1.008000   ; qtot 190.602913
 9469         oh    354    ccc     O5   9469 -0.84113600  16.000000   ; qtot 189.761777
 9470         ho    354    ccc    H11   9470 0.51201600   1.008000   ; qtot 190.273793
 9471         os    354    ccc     O6   9471 -0.26013600  16.000000   ; qtot 190.013657
; residue  355 ccc rtp ccc q 0.0
 9472         c3    355    ccc     C1   9472 -0.33178800  12.010000   ; qtot 189.681869
 9473         c3    355    ccc     C2   9473 0.30606500  12.010000   ; qtot 189.987934
 9474         h1    355    ccc     H1   9474 0.11662300   1.008000   ; qtot 190.104557
 9475         h1    355    ccc     H2   9475 0.11526800   1.008000   ; qtot 190.219825
 9476         c3    355    ccc     C3   9476 0.15592700  12.010000   ; qtot 190.375752
 9477         c3    355    ccc     C4   9477 0.28383300  12.010000   ; qtot 190.659585
 9478         c3    355    ccc     C5   9478 0.32403300  12.010000   ; qtot 190.983618
 9479         h1    355    ccc     H3   9479 0.13386900   1.008000   ; qtot 191.117487
 9480         h1    355    ccc     H4   9480 0.10146700   1.008000   ; qtot 191.218954
 9481         h2    355    ccc     H5   9481 0.10960400   1.008000   ; qtot 191.328558
 9482         os    355    ccc     O1   9482 -0.28650000  16.000000   ; qtot 191.042058
 9483         oh    355    ccc     O2   9483 -0.86012500  16.000000   ; qtot 190.181933
 9484         oh    355    ccc     O3   9484 -0.83772800  16.000000   ; qtot 189.344205
 9485         oh    355    ccc     O4   9485 -0.77449700  16.000000   ; qtot 188.569708
 9486         c3    355    ccc     C6   9486 0.37576500  12.010000   ; qtot 188.945473
 9487         ho    355    ccc     H6   9487 0.53656000   1.008000   ; qtot 189.482033
 9488         ho    355    ccc     H7   9488 0.49492100   1.008000   ; qtot 189.976954
 9489         ho    355    ccc     H8   9489 0.51297200   1.008000   ; qtot 190.489926
 9490         h1    355    ccc     H9   9490 0.05653400   1.008000   ; qtot 190.546460
 9491         h1    355    ccc    H10   9491 0.05653400   1.008000   ; qtot 190.602994
 9492         oh    355    ccc     O5   9492 -0.84113600  16.000000   ; qtot 189.761858
 9493         ho    355    ccc    H11   9493 0.51201600   1.008000   ; qtot 190.273874
 9494         os    355    ccc     O6   9494 -0.26013600  16.000000   ; qtot 190.013738
; residue  356 ccc rtp ccc q 0.0
 9495         c3    356    ccc     C1   9495 -0.33178800  12.010000   ; qtot 189.681950
 9496         c3    356    ccc     C2   9496 0.30606500  12.010000   ; qtot 189.988015
 9497         h1    356    ccc     H1   9497 0.11662300   1.008000   ; qtot 190.104638
 9498         h1    356    ccc     H2   9498 0.11526800   1.008000   ; qtot 190.219906
 9499         c3    356    ccc     C3   9499 0.15592700  12.010000   ; qtot 190.375833
 9500         c3    356    ccc     C4   9500 0.28383300  12.010000   ; qtot 190.659666
 9501         c3    356    ccc     C5   9501 0.32403300  12.010000   ; qtot 190.983699
 9502         h1    356    ccc     H3   9502 0.13386900   1.008000   ; qtot 191.117568
 9503         h1    356    ccc     H4   9503 0.10146700   1.008000   ; qtot 191.219035
 9504         h2    356    ccc     H5   9504 0.10960400   1.008000   ; qtot 191.328639
 9505         os    356    ccc     O1   9505 -0.28650000  16.000000   ; qtot 191.042139
 9506         oh    356    ccc     O2   9506 -0.86012500  16.000000   ; qtot 190.182014
 9507         oh    356    ccc     O3   9507 -0.83772800  16.000000   ; qtot 189.344286
 9508         oh    356    ccc     O4   9508 -0.77449700  16.000000   ; qtot 188.569789
 9509         c3    356    ccc     C6   9509 0.37576500  12.010000   ; qtot 188.945554
 9510         ho    356    ccc     H6   9510 0.53656000   1.008000   ; qtot 189.482114
 9511         ho    356    ccc     H7   9511 0.49492100   1.008000   ; qtot 189.977035
 9512         ho    356    ccc     H8   9512 0.51297200   1.008000   ; qtot 190.490007
 9513         h1    356    ccc     H9   9513 0.05653400   1.008000   ; qtot 190.546541
 9514         h1    356    ccc    H10   9514 0.05653400   1.008000   ; qtot 190.603075
 9515         oh    356    ccc     O5   9515 -0.84113600  16.000000   ; qtot 189.761939
 9516         ho    356    ccc    H11   9516 0.51201600   1.008000   ; qtot 190.273955
 9517         os    356    ccc     O6   9517 -0.26013600  16.000000   ; qtot 190.013819
; residue  357 ccc rtp ccc q 0.0
 9518         c3    357    ccc     C1   9518 -0.33178800  12.010000   ; qtot 189.682031
 9519         c3    357    ccc     C2   9519 0.30606500  12.010000   ; qtot 189.988096
 9520         h1    357    ccc     H1   9520 0.11662300   1.008000   ; qtot 190.104719
 9521         h1    357    ccc     H2   9521 0.11526800   1.008000   ; qtot 190.219987
 9522         c3    357    ccc     C3   9522 0.15592700  12.010000   ; qtot 190.375914
 9523         c3    357    ccc     C4   9523 0.28383300  12.010000   ; qtot 190.659747
 9524         c3    357    ccc     C5   9524 0.32403300  12.010000   ; qtot 190.983780
 9525         h1    357    ccc     H3   9525 0.13386900   1.008000   ; qtot 191.117649
 9526         h1    357    ccc     H4   9526 0.10146700   1.008000   ; qtot 191.219116
 9527         h2    357    ccc     H5   9527 0.10960400   1.008000   ; qtot 191.328720
 9528         os    357    ccc     O1   9528 -0.28650000  16.000000   ; qtot 191.042220
 9529         oh    357    ccc     O2   9529 -0.86012500  16.000000   ; qtot 190.182095
 9530         oh    357    ccc     O3   9530 -0.83772800  16.000000   ; qtot 189.344367
 9531         oh    357    ccc     O4   9531 -0.77449700  16.000000   ; qtot 188.569870
 9532         c3    357    ccc     C6   9532 0.37576500  12.010000   ; qtot 188.945635
 9533         ho    357    ccc     H6   9533 0.53656000   1.008000   ; qtot 189.482195
 9534         ho    357    ccc     H7   9534 0.49492100   1.008000   ; qtot 189.977116
 9535         ho    357    ccc     H8   9535 0.51297200   1.008000   ; qtot 190.490088
 9536         h1    357    ccc     H9   9536 0.05653400   1.008000   ; qtot 190.546622
 9537         h1    357    ccc    H10   9537 0.05653400   1.008000   ; qtot 190.603156
 9538         oh    357    ccc     O5   9538 -0.84113600  16.000000   ; qtot 189.762020
 9539         ho    357    ccc    H11   9539 0.51201600   1.008000   ; qtot 190.274036
 9540         os    357    ccc     O6   9540 -0.26013600  16.000000   ; qtot 190.013900
; residue  358 ccc rtp ccc q 0.0
 9541         c3    358    ccc     C1   9541 -0.33178800  12.010000   ; qtot 189.682112
 9542         c3    358    ccc     C2   9542 0.30606500  12.010000   ; qtot 189.988177
 9543         h1    358    ccc     H1   9543 0.11662300   1.008000   ; qtot 190.104800
 9544         h1    358    ccc     H2   9544 0.11526800   1.008000   ; qtot 190.220068
 9545         c3    358    ccc     C3   9545 0.15592700  12.010000   ; qtot 190.375995
 9546         c3    358    ccc     C4   9546 0.28383300  12.010000   ; qtot 190.659828
 9547         c3    358    ccc     C5   9547 0.32403300  12.010000   ; qtot 190.983861
 9548         h1    358    ccc     H3   9548 0.13386900   1.008000   ; qtot 191.117730
 9549         h1    358    ccc     H4   9549 0.10146700   1.008000   ; qtot 191.219197
 9550         h2    358    ccc     H5   9550 0.10960400   1.008000   ; qtot 191.328801
 9551         os    358    ccc     O1   9551 -0.28650000  16.000000   ; qtot 191.042301
 9552         oh    358    ccc     O2   9552 -0.86012500  16.000000   ; qtot 190.182176
 9553         oh    358    ccc     O3   9553 -0.83772800  16.000000   ; qtot 189.344448
 9554         oh    358    ccc     O4   9554 -0.77449700  16.000000   ; qtot 188.569951
 9555         c3    358    ccc     C6   9555 0.37576500  12.010000   ; qtot 188.945716
 9556         ho    358    ccc     H6   9556 0.53656000   1.008000   ; qtot 189.482276
 9557         ho    358    ccc     H7   9557 0.49492100   1.008000   ; qtot 189.977197
 9558         ho    358    ccc     H8   9558 0.51297200   1.008000   ; qtot 190.490169
 9559         h1    358    ccc     H9   9559 0.05653400   1.008000   ; qtot 190.546703
 9560         h1    358    ccc    H10   9560 0.05653400   1.008000   ; qtot 190.603237
 9561         oh    358    ccc     O5   9561 -0.84113600  16.000000   ; qtot 189.762101
 9562         ho    358    ccc    H11   9562 0.51201600   1.008000   ; qtot 190.274117
 9563         os    358    ccc     O6   9563 -0.26013600  16.000000   ; qtot 190.013981
; residue  359 ccc rtp ccc q 0.0
 9564         c3    359    ccc     C1   9564 -0.33178800  12.010000   ; qtot 189.682193
 9565         c3    359    ccc     C2   9565 0.30606500  12.010000   ; qtot 189.988258
 9566         h1    359    ccc     H1   9566 0.11662300   1.008000   ; qtot 190.104881
 9567         h1    359    ccc     H2   9567 0.11526800   1.008000   ; qtot 190.220149
 9568         c3    359    ccc     C3   9568 0.15592700  12.010000   ; qtot 190.376076
 9569         c3    359    ccc     C4   9569 0.28383300  12.010000   ; qtot 190.659909
 9570         c3    359    ccc     C5   9570 0.32403300  12.010000   ; qtot 190.983942
 9571         h1    359    ccc     H3   9571 0.13386900   1.008000   ; qtot 191.117811
 9572         h1    359    ccc     H4   9572 0.10146700   1.008000   ; qtot 191.219278
 9573         h2    359    ccc     H5   9573 0.10960400   1.008000   ; qtot 191.328882
 9574         os    359    ccc     O1   9574 -0.28650000  16.000000   ; qtot 191.042382
 9575         oh    359    ccc     O2   9575 -0.86012500  16.000000   ; qtot 190.182257
 9576         oh    359    ccc     O3   9576 -0.83772800  16.000000   ; qtot 189.344529
 9577         oh    359    ccc     O4   9577 -0.77449700  16.000000   ; qtot 188.570032
 9578         c3    359    ccc     C6   9578 0.37576500  12.010000   ; qtot 188.945797
 9579         ho    359    ccc     H6   9579 0.53656000   1.008000   ; qtot 189.482357
 9580         ho    359    ccc     H7   9580 0.49492100   1.008000   ; qtot 189.977278
 9581         ho    359    ccc     H8   9581 0.51297200   1.008000   ; qtot 190.490250
 9582         h1    359    ccc     H9   9582 0.05653400   1.008000   ; qtot 190.546784
 9583         h1    359    ccc    H10   9583 0.05653400   1.008000   ; qtot 190.603318
 9584         oh    359    ccc     O5   9584 -0.84113600  16.000000   ; qtot 189.762182
 9585         ho    359    ccc    H11   9585 0.51201600   1.008000   ; qtot 190.274198
 9586         os    359    ccc     O6   9586 -0.26013600  16.000000   ; qtot 190.014062
; residue  360 ccc rtp ccc q 0.0
 9587         c3    360    ccc     C1   9587 -0.33178800  12.010000   ; qtot 189.682274
 9588         c3    360    ccc     C2   9588 0.30606500  12.010000   ; qtot 189.988339
 9589         h1    360    ccc     H1   9589 0.11662300   1.008000   ; qtot 190.104962
 9590         h1    360    ccc     H2   9590 0.11526800   1.008000   ; qtot 190.220230
 9591         c3    360    ccc     C3   9591 0.15592700  12.010000   ; qtot 190.376157
 9592         c3    360    ccc     C4   9592 0.28383300  12.010000   ; qtot 190.659990
 9593         c3    360    ccc     C5   9593 0.32403300  12.010000   ; qtot 190.984023
 9594         h1    360    ccc     H3   9594 0.13386900   1.008000   ; qtot 191.117892
 9595         h1    360    ccc     H4   9595 0.10146700   1.008000   ; qtot 191.219359
 9596         h2    360    ccc     H5   9596 0.10960400   1.008000   ; qtot 191.328963
 9597         os    360    ccc     O1   9597 -0.28650000  16.000000   ; qtot 191.042463
 9598         oh    360    ccc     O2   9598 -0.86012500  16.000000   ; qtot 190.182338
 9599         oh    360    ccc     O3   9599 -0.83772800  16.000000   ; qtot 189.344610
 9600         oh    360    ccc     O4   9600 -0.77449700  16.000000   ; qtot 188.570113
 9601         c3    360    ccc     C6   9601 0.37576500  12.010000   ; qtot 188.945878
 9602         ho    360    ccc     H6   9602 0.53656000   1.008000   ; qtot 189.482438
 9603         ho    360    ccc     H7   9603 0.49492100   1.008000   ; qtot 189.977359
 9604         ho    360    ccc     H8   9604 0.51297200   1.008000   ; qtot 190.490331
 9605         h1    360    ccc     H9   9605 0.05653400   1.008000   ; qtot 190.546865
 9606         h1    360    ccc    H10   9606 0.05653400   1.008000   ; qtot 190.603399
 9607         oh    360    ccc     O5   9607 -0.84113600  16.000000   ; qtot 189.762263
 9608         ho    360    ccc    H11   9608 0.51201600   1.008000   ; qtot 190.274279
 9609         os    360    ccc     O6   9609 -0.26013600  16.000000   ; qtot 190.014143
; residue  361 ccc rtp ccc q 0.0
 9610         c3    361    ccc     C1   9610 -0.33178800  12.010000   ; qtot 189.682355
 9611         c3    361    ccc     C2   9611 0.30606500  12.010000   ; qtot 189.988420
 9612         h1    361    ccc     H1   9612 0.11662300   1.008000   ; qtot 190.105043
 9613         h1    361    ccc     H2   9613 0.11526800   1.008000   ; qtot 190.220311
 9614         c3    361    ccc     C3   9614 0.15592700  12.010000   ; qtot 190.376238
 9615         c3    361    ccc     C4   9615 0.28383300  12.010000   ; qtot 190.660071
 9616         c3    361    ccc     C5   9616 0.32403300  12.010000   ; qtot 190.984104
 9617         h1    361    ccc     H3   9617 0.13386900   1.008000   ; qtot 191.117973
 9618         h1    361    ccc     H4   9618 0.10146700   1.008000   ; qtot 191.219440
 9619         h2    361    ccc     H5   9619 0.10960400   1.008000   ; qtot 191.329044
 9620         os    361    ccc     O1   9620 -0.28650000  16.000000   ; qtot 191.042544
 9621         oh    361    ccc     O2   9621 -0.86012500  16.000000   ; qtot 190.182419
 9622         oh    361    ccc     O3   9622 -0.83772800  16.000000   ; qtot 189.344691
 9623         oh    361    ccc     O4   9623 -0.77449700  16.000000   ; qtot 188.570194
 9624         c3    361    ccc     C6   9624 0.37576500  12.010000   ; qtot 188.945959
 9625         ho    361    ccc     H6   9625 0.53656000   1.008000   ; qtot 189.482519
 9626         ho    361    ccc     H7   9626 0.49492100   1.008000   ; qtot 189.977440
 9627         ho    361    ccc     H8   9627 0.51297200   1.008000   ; qtot 190.490412
 9628         h1    361    ccc     H9   9628 0.05653400   1.008000   ; qtot 190.546946
 9629         h1    361    ccc    H10   9629 0.05653400   1.008000   ; qtot 190.603480
 9630         oh    361    ccc     O5   9630 -0.84113600  16.000000   ; qtot 189.762344
 9631         ho    361    ccc    H11   9631 0.51201600   1.008000   ; qtot 190.274360
 9632         os    361    ccc     O6   9632 -0.26013600  16.000000   ; qtot 190.014224
; residue  362 ccc rtp ccc q 0.0
 9633         c3    362    ccc     C1   9633 -0.33178800  12.010000   ; qtot 189.682436
 9634         c3    362    ccc     C2   9634 0.30606500  12.010000   ; qtot 189.988501
 9635         h1    362    ccc     H1   9635 0.11662300   1.008000   ; qtot 190.105124
 9636         h1    362    ccc     H2   9636 0.11526800   1.008000   ; qtot 190.220392
 9637         c3    362    ccc     C3   9637 0.15592700  12.010000   ; qtot 190.376319
 9638         c3    362    ccc     C4   9638 0.28383300  12.010000   ; qtot 190.660152
 9639         c3    362    ccc     C5   9639 0.32403300  12.010000   ; qtot 190.984185
 9640         h1    362    ccc     H3   9640 0.13386900   1.008000   ; qtot 191.118054
 9641         h1    362    ccc     H4   9641 0.10146700   1.008000   ; qtot 191.219521
 9642         h2    362    ccc     H5   9642 0.10960400   1.008000   ; qtot 191.329125
 9643         os    362    ccc     O1   9643 -0.28650000  16.000000   ; qtot 191.042625
 9644         oh    362    ccc     O2   9644 -0.86012500  16.000000   ; qtot 190.182500
 9645         oh    362    ccc     O3   9645 -0.83772800  16.000000   ; qtot 189.344772
 9646         oh    362    ccc     O4   9646 -0.77449700  16.000000   ; qtot 188.570275
 9647         c3    362    ccc     C6   9647 0.37576500  12.010000   ; qtot 188.946040
 9648         ho    362    ccc     H6   9648 0.53656000   1.008000   ; qtot 189.482600
 9649         ho    362    ccc     H7   9649 0.49492100   1.008000   ; qtot 189.977521
 9650         ho    362    ccc     H8   9650 0.51297200   1.008000   ; qtot 190.490493
 9651         h1    362    ccc     H9   9651 0.05653400   1.008000   ; qtot 190.547027
 9652         h1    362    ccc    H10   9652 0.05653400   1.008000   ; qtot 190.603561
 9653         oh    362    ccc     O5   9653 -0.84113600  16.000000   ; qtot 189.762425
 9654         ho    362    ccc    H11   9654 0.51201600   1.008000   ; qtot 190.274441
 9655         os    362    ccc     O6   9655 -0.26013600  16.000000   ; qtot 190.014305
; residue  363 ccc rtp ccc q 0.0
 9656         c3    363    ccc     C1   9656 -0.33178800  12.010000   ; qtot 189.682517
 9657         c3    363    ccc     C2   9657 0.30606500  12.010000   ; qtot 189.988582
 9658         h1    363    ccc     H1   9658 0.11662300   1.008000   ; qtot 190.105205
 9659         h1    363    ccc     H2   9659 0.11526800   1.008000   ; qtot 190.220473
 9660         c3    363    ccc     C3   9660 0.15592700  12.010000   ; qtot 190.376400
 9661         c3    363    ccc     C4   9661 0.28383300  12.010000   ; qtot 190.660233
 9662         c3    363    ccc     C5   9662 0.32403300  12.010000   ; qtot 190.984266
 9663         h1    363    ccc     H3   9663 0.13386900   1.008000   ; qtot 191.118135
 9664         h1    363    ccc     H4   9664 0.10146700   1.008000   ; qtot 191.219602
 9665         h2    363    ccc     H5   9665 0.10960400   1.008000   ; qtot 191.329206
 9666         os    363    ccc     O1   9666 -0.28650000  16.000000   ; qtot 191.042706
 9667         oh    363    ccc     O2   9667 -0.86012500  16.000000   ; qtot 190.182581
 9668         oh    363    ccc     O3   9668 -0.83772800  16.000000   ; qtot 189.344853
 9669         oh    363    ccc     O4   9669 -0.77449700  16.000000   ; qtot 188.570356
 9670         c3    363    ccc     C6   9670 0.37576500  12.010000   ; qtot 188.946121
 9671         ho    363    ccc     H6   9671 0.53656000   1.008000   ; qtot 189.482681
 9672         ho    363    ccc     H7   9672 0.49492100   1.008000   ; qtot 189.977602
 9673         ho    363    ccc     H8   9673 0.51297200   1.008000   ; qtot 190.490574
 9674         h1    363    ccc     H9   9674 0.05653400   1.008000   ; qtot 190.547108
 9675         h1    363    ccc    H10   9675 0.05653400   1.008000   ; qtot 190.603642
 9676         oh    363    ccc     O5   9676 -0.84113600  16.000000   ; qtot 189.762506
 9677         ho    363    ccc    H11   9677 0.51201600   1.008000   ; qtot 190.274522
 9678         os    363    ccc     O6   9678 -0.26013600  16.000000   ; qtot 190.014386
; residue  364 ccc rtp ccc q 0.0
 9679         c3    364    ccc     C1   9679 -0.33178800  12.010000   ; qtot 189.682598
 9680         c3    364    ccc     C2   9680 0.30606500  12.010000   ; qtot 189.988663
 9681         h1    364    ccc     H1   9681 0.11662300   1.008000   ; qtot 190.105286
 9682         h1    364    ccc     H2   9682 0.11526800   1.008000   ; qtot 190.220554
 9683         c3    364    ccc     C3   9683 0.15592700  12.010000   ; qtot 190.376481
 9684         c3    364    ccc     C4   9684 0.28383300  12.010000   ; qtot 190.660314
 9685         c3    364    ccc     C5   9685 0.32403300  12.010000   ; qtot 190.984347
 9686         h1    364    ccc     H3   9686 0.13386900   1.008000   ; qtot 191.118216
 9687         h1    364    ccc     H4   9687 0.10146700   1.008000   ; qtot 191.219683
 9688         h2    364    ccc     H5   9688 0.10960400   1.008000   ; qtot 191.329287
 9689         os    364    ccc     O1   9689 -0.28650000  16.000000   ; qtot 191.042787
 9690         oh    364    ccc     O2   9690 -0.86012500  16.000000   ; qtot 190.182662
 9691         oh    364    ccc     O3   9691 -0.83772800  16.000000   ; qtot 189.344934
 9692         oh    364    ccc     O4   9692 -0.77449700  16.000000   ; qtot 188.570437
 9693         c3    364    ccc     C6   9693 0.37576500  12.010000   ; qtot 188.946202
 9694         ho    364    ccc     H6   9694 0.53656000   1.008000   ; qtot 189.482762
 9695         ho    364    ccc     H7   9695 0.49492100   1.008000   ; qtot 189.977683
 9696         ho    364    ccc     H8   9696 0.51297200   1.008000   ; qtot 190.490655
 9697         h1    364    ccc     H9   9697 0.05653400   1.008000   ; qtot 190.547189
 9698         h1    364    ccc    H10   9698 0.05653400   1.008000   ; qtot 190.603723
 9699         oh    364    ccc     O5   9699 -0.84113600  16.000000   ; qtot 189.762587
 9700         ho    364    ccc    H11   9700 0.51201600   1.008000   ; qtot 190.274603
 9701         os    364    ccc     O6   9701 -0.26013600  16.000000   ; qtot 190.014467
; residue  365 ccc rtp ccc q 0.0
 9702         c3    365    ccc     C1   9702 -0.33178800  12.010000   ; qtot 189.682679
 9703         c3    365    ccc     C2   9703 0.30606500  12.010000   ; qtot 189.988744
 9704         h1    365    ccc     H1   9704 0.11662300   1.008000   ; qtot 190.105367
 9705         h1    365    ccc     H2   9705 0.11526800   1.008000   ; qtot 190.220635
 9706         c3    365    ccc     C3   9706 0.15592700  12.010000   ; qtot 190.376562
 9707         c3    365    ccc     C4   9707 0.28383300  12.010000   ; qtot 190.660395
 9708         c3    365    ccc     C5   9708 0.32403300  12.010000   ; qtot 190.984428
 9709         h1    365    ccc     H3   9709 0.13386900   1.008000   ; qtot 191.118297
 9710         h1    365    ccc     H4   9710 0.10146700   1.008000   ; qtot 191.219764
 9711         h2    365    ccc     H5   9711 0.10960400   1.008000   ; qtot 191.329368
 9712         os    365    ccc     O1   9712 -0.28650000  16.000000   ; qtot 191.042868
 9713         oh    365    ccc     O2   9713 -0.86012500  16.000000   ; qtot 190.182743
 9714         oh    365    ccc     O3   9714 -0.83772800  16.000000   ; qtot 189.345015
 9715         oh    365    ccc     O4   9715 -0.77449700  16.000000   ; qtot 188.570518
 9716         c3    365    ccc     C6   9716 0.37576500  12.010000   ; qtot 188.946283
 9717         ho    365    ccc     H6   9717 0.53656000   1.008000   ; qtot 189.482843
 9718         ho    365    ccc     H7   9718 0.49492100   1.008000   ; qtot 189.977764
 9719         ho    365    ccc     H8   9719 0.51297200   1.008000   ; qtot 190.490736
 9720         h1    365    ccc     H9   9720 0.05653400   1.008000   ; qtot 190.547270
 9721         h1    365    ccc    H10   9721 0.05653400   1.008000   ; qtot 190.603804
 9722         oh    365    ccc     O5   9722 -0.84113600  16.000000   ; qtot 189.762668
 9723         ho    365    ccc    H11   9723 0.51201600   1.008000   ; qtot 190.274684
 9724         os    365    ccc     O6   9724 -0.26013600  16.000000   ; qtot 190.014548
; residue  366 ccc rtp ccc q 0.0
 9725         c3    366    ccc     C1   9725 -0.33178800  12.010000   ; qtot 189.682760
 9726         c3    366    ccc     C2   9726 0.30606500  12.010000   ; qtot 189.988825
 9727         h1    366    ccc     H1   9727 0.11662300   1.008000   ; qtot 190.105448
 9728         h1    366    ccc     H2   9728 0.11526800   1.008000   ; qtot 190.220716
 9729         c3    366    ccc     C3   9729 0.15592700  12.010000   ; qtot 190.376643
 9730         c3    366    ccc     C4   9730 0.28383300  12.010000   ; qtot 190.660476
 9731         c3    366    ccc     C5   9731 0.32403300  12.010000   ; qtot 190.984509
 9732         h1    366    ccc     H3   9732 0.13386900   1.008000   ; qtot 191.118378
 9733         h1    366    ccc     H4   9733 0.10146700   1.008000   ; qtot 191.219845
 9734         h2    366    ccc     H5   9734 0.10960400   1.008000   ; qtot 191.329449
 9735         os    366    ccc     O1   9735 -0.28650000  16.000000   ; qtot 191.042949
 9736         oh    366    ccc     O2   9736 -0.86012500  16.000000   ; qtot 190.182824
 9737         oh    366    ccc     O3   9737 -0.83772800  16.000000   ; qtot 189.345096
 9738         oh    366    ccc     O4   9738 -0.77449700  16.000000   ; qtot 188.570599
 9739         c3    366    ccc     C6   9739 0.37576500  12.010000   ; qtot 188.946364
 9740         ho    366    ccc     H6   9740 0.53656000   1.008000   ; qtot 189.482924
 9741         ho    366    ccc     H7   9741 0.49492100   1.008000   ; qtot 189.977845
 9742         ho    366    ccc     H8   9742 0.51297200   1.008000   ; qtot 190.490817
 9743         h1    366    ccc     H9   9743 0.05653400   1.008000   ; qtot 190.547351
 9744         h1    366    ccc    H10   9744 0.05653400   1.008000   ; qtot 190.603885
 9745         oh    366    ccc     O5   9745 -0.84113600  16.000000   ; qtot 189.762749
 9746         ho    366    ccc    H11   9746 0.51201600   1.008000   ; qtot 190.274765
 9747         os    366    ccc     O6   9747 -0.26013600  16.000000   ; qtot 190.014629
; residue  367 ccc rtp ccc q 0.0
 9748         c3    367    ccc     C1   9748 -0.33178800  12.010000   ; qtot 189.682841
 9749         c3    367    ccc     C2   9749 0.30606500  12.010000   ; qtot 189.988906
 9750         h1    367    ccc     H1   9750 0.11662300   1.008000   ; qtot 190.105529
 9751         h1    367    ccc     H2   9751 0.11526800   1.008000   ; qtot 190.220797
 9752         c3    367    ccc     C3   9752 0.15592700  12.010000   ; qtot 190.376724
 9753         c3    367    ccc     C4   9753 0.28383300  12.010000   ; qtot 190.660557
 9754         c3    367    ccc     C5   9754 0.32403300  12.010000   ; qtot 190.984590
 9755         h1    367    ccc     H3   9755 0.13386900   1.008000   ; qtot 191.118459
 9756         h1    367    ccc     H4   9756 0.10146700   1.008000   ; qtot 191.219926
 9757         h2    367    ccc     H5   9757 0.10960400   1.008000   ; qtot 191.329530
 9758         os    367    ccc     O1   9758 -0.28650000  16.000000   ; qtot 191.043030
 9759         oh    367    ccc     O2   9759 -0.86012500  16.000000   ; qtot 190.182905
 9760         oh    367    ccc     O3   9760 -0.83772800  16.000000   ; qtot 189.345177
 9761         oh    367    ccc     O4   9761 -0.77449700  16.000000   ; qtot 188.570680
 9762         c3    367    ccc     C6   9762 0.37576500  12.010000   ; qtot 188.946445
 9763         ho    367    ccc     H6   9763 0.53656000   1.008000   ; qtot 189.483005
 9764         ho    367    ccc     H7   9764 0.49492100   1.008000   ; qtot 189.977926
 9765         ho    367    ccc     H8   9765 0.51297200   1.008000   ; qtot 190.490898
 9766         h1    367    ccc     H9   9766 0.05653400   1.008000   ; qtot 190.547432
 9767         h1    367    ccc    H10   9767 0.05653400   1.008000   ; qtot 190.603966
 9768         oh    367    ccc     O5   9768 -0.84113600  16.000000   ; qtot 189.762830
 9769         ho    367    ccc    H11   9769 0.51201600   1.008000   ; qtot 190.274846
 9770         os    367    ccc     O6   9770 -0.26013600  16.000000   ; qtot 190.014710
; residue  368 ccc rtp ccc q 0.0
 9771         c3    368    ccc     C1   9771 -0.33178800  12.010000   ; qtot 189.682922
 9772         c3    368    ccc     C2   9772 0.30606500  12.010000   ; qtot 189.988987
 9773         h1    368    ccc     H1   9773 0.11662300   1.008000   ; qtot 190.105610
 9774         h1    368    ccc     H2   9774 0.11526800   1.008000   ; qtot 190.220878
 9775         c3    368    ccc     C3   9775 0.15592700  12.010000   ; qtot 190.376805
 9776         c3    368    ccc     C4   9776 0.28383300  12.010000   ; qtot 190.660638
 9777         c3    368    ccc     C5   9777 0.32403300  12.010000   ; qtot 190.984671
 9778         h1    368    ccc     H3   9778 0.13386900   1.008000   ; qtot 191.118540
 9779         h1    368    ccc     H4   9779 0.10146700   1.008000   ; qtot 191.220007
 9780         h2    368    ccc     H5   9780 0.10960400   1.008000   ; qtot 191.329611
 9781         os    368    ccc     O1   9781 -0.28650000  16.000000   ; qtot 191.043111
 9782         oh    368    ccc     O2   9782 -0.86012500  16.000000   ; qtot 190.182986
 9783         oh    368    ccc     O3   9783 -0.83772800  16.000000   ; qtot 189.345258
 9784         oh    368    ccc     O4   9784 -0.77449700  16.000000   ; qtot 188.570761
 9785         c3    368    ccc     C6   9785 0.37576500  12.010000   ; qtot 188.946526
 9786         ho    368    ccc     H6   9786 0.53656000   1.008000   ; qtot 189.483086
 9787         ho    368    ccc     H7   9787 0.49492100   1.008000   ; qtot 189.978007
 9788         ho    368    ccc     H8   9788 0.51297200   1.008000   ; qtot 190.490979
 9789         h1    368    ccc     H9   9789 0.05653400   1.008000   ; qtot 190.547513
 9790         h1    368    ccc    H10   9790 0.05653400   1.008000   ; qtot 190.604047
 9791         oh    368    ccc     O5   9791 -0.84113600  16.000000   ; qtot 189.762911
 9792         ho    368    ccc    H11   9792 0.51201600   1.008000   ; qtot 190.274927
 9793         os    368    ccc     O6   9793 -0.26013600  16.000000   ; qtot 190.014791
; residue  369 ccc rtp ccc q 0.0
 9794         c3    369    ccc     C1   9794 -0.33178800  12.010000   ; qtot 189.683003
 9795         c3    369    ccc     C2   9795 0.30606500  12.010000   ; qtot 189.989068
 9796         h1    369    ccc     H1   9796 0.11662300   1.008000   ; qtot 190.105691
 9797         h1    369    ccc     H2   9797 0.11526800   1.008000   ; qtot 190.220959
 9798         c3    369    ccc     C3   9798 0.15592700  12.010000   ; qtot 190.376886
 9799         c3    369    ccc     C4   9799 0.28383300  12.010000   ; qtot 190.660719
 9800         c3    369    ccc     C5   9800 0.32403300  12.010000   ; qtot 190.984752
 9801         h1    369    ccc     H3   9801 0.13386900   1.008000   ; qtot 191.118621
 9802         h1    369    ccc     H4   9802 0.10146700   1.008000   ; qtot 191.220088
 9803         h2    369    ccc     H5   9803 0.10960400   1.008000   ; qtot 191.329692
 9804         os    369    ccc     O1   9804 -0.28650000  16.000000   ; qtot 191.043192
 9805         oh    369    ccc     O2   9805 -0.86012500  16.000000   ; qtot 190.183067
 9806         oh    369    ccc     O3   9806 -0.83772800  16.000000   ; qtot 189.345339
 9807         oh    369    ccc     O4   9807 -0.77449700  16.000000   ; qtot 188.570842
 9808         c3    369    ccc     C6   9808 0.37576500  12.010000   ; qtot 188.946607
 9809         ho    369    ccc     H6   9809 0.53656000   1.008000   ; qtot 189.483167
 9810         ho    369    ccc     H7   9810 0.49492100   1.008000   ; qtot 189.978088
 9811         ho    369    ccc     H8   9811 0.51297200   1.008000   ; qtot 190.491060
 9812         h1    369    ccc     H9   9812 0.05653400   1.008000   ; qtot 190.547594
 9813         h1    369    ccc    H10   9813 0.05653400   1.008000   ; qtot 190.604128
 9814         oh    369    ccc     O5   9814 -0.84113600  16.000000   ; qtot 189.762992
 9815         ho    369    ccc    H11   9815 0.51201600   1.008000   ; qtot 190.275008
 9816         os    369    ccc     O6   9816 -0.26013600  16.000000   ; qtot 190.014872
; residue  370 ccc rtp ccc q 0.0
 9817         c3    370    ccc     C1   9817 -0.33178800  12.010000   ; qtot 189.683084
 9818         c3    370    ccc     C2   9818 0.30606500  12.010000   ; qtot 189.989149
 9819         h1    370    ccc     H1   9819 0.11662300   1.008000   ; qtot 190.105772
 9820         h1    370    ccc     H2   9820 0.11526800   1.008000   ; qtot 190.221040
 9821         c3    370    ccc     C3   9821 0.15592700  12.010000   ; qtot 190.376967
 9822         c3    370    ccc     C4   9822 0.28383300  12.010000   ; qtot 190.660800
 9823         c3    370    ccc     C5   9823 0.32403300  12.010000   ; qtot 190.984833
 9824         h1    370    ccc     H3   9824 0.13386900   1.008000   ; qtot 191.118702
 9825         h1    370    ccc     H4   9825 0.10146700   1.008000   ; qtot 191.220169
 9826         h2    370    ccc     H5   9826 0.10960400   1.008000   ; qtot 191.329773
 9827         os    370    ccc     O1   9827 -0.28650000  16.000000   ; qtot 191.043273
 9828         oh    370    ccc     O2   9828 -0.86012500  16.000000   ; qtot 190.183148
 9829         oh    370    ccc     O3   9829 -0.83772800  16.000000   ; qtot 189.345420
 9830         oh    370    ccc     O4   9830 -0.77449700  16.000000   ; qtot 188.570923
 9831         c3    370    ccc     C6   9831 0.37576500  12.010000   ; qtot 188.946688
 9832         ho    370    ccc     H6   9832 0.53656000   1.008000   ; qtot 189.483248
 9833         ho    370    ccc     H7   9833 0.49492100   1.008000   ; qtot 189.978169
 9834         ho    370    ccc     H8   9834 0.51297200   1.008000   ; qtot 190.491141
 9835         h1    370    ccc     H9   9835 0.05653400   1.008000   ; qtot 190.547675
 9836         h1    370    ccc    H10   9836 0.05653400   1.008000   ; qtot 190.604209
 9837         oh    370    ccc     O5   9837 -0.84113600  16.000000   ; qtot 189.763073
 9838         ho    370    ccc    H11   9838 0.51201600   1.008000   ; qtot 190.275089
 9839         os    370    ccc     O6   9839 -0.26013600  16.000000   ; qtot 190.014953
; residue  371 ccc rtp ccc q 0.0
 9840         c3    371    ccc     C1   9840 -0.33178800  12.010000   ; qtot 189.683165
 9841         c3    371    ccc     C2   9841 0.30606500  12.010000   ; qtot 189.989230
 9842         h1    371    ccc     H1   9842 0.11662300   1.008000   ; qtot 190.105853
 9843         h1    371    ccc     H2   9843 0.11526800   1.008000   ; qtot 190.221121
 9844         c3    371    ccc     C3   9844 0.15592700  12.010000   ; qtot 190.377048
 9845         c3    371    ccc     C4   9845 0.28383300  12.010000   ; qtot 190.660881
 9846         c3    371    ccc     C5   9846 0.32403300  12.010000   ; qtot 190.984914
 9847         h1    371    ccc     H3   9847 0.13386900   1.008000   ; qtot 191.118783
 9848         h1    371    ccc     H4   9848 0.10146700   1.008000   ; qtot 191.220250
 9849         h2    371    ccc     H5   9849 0.10960400   1.008000   ; qtot 191.329854
 9850         os    371    ccc     O1   9850 -0.28650000  16.000000   ; qtot 191.043354
 9851         oh    371    ccc     O2   9851 -0.86012500  16.000000   ; qtot 190.183229
 9852         oh    371    ccc     O3   9852 -0.83772800  16.000000   ; qtot 189.345501
 9853         oh    371    ccc     O4   9853 -0.77449700  16.000000   ; qtot 188.571004
 9854         c3    371    ccc     C6   9854 0.37576500  12.010000   ; qtot 188.946769
 9855         ho    371    ccc     H6   9855 0.53656000   1.008000   ; qtot 189.483329
 9856         ho    371    ccc     H7   9856 0.49492100   1.008000   ; qtot 189.978250
 9857         ho    371    ccc     H8   9857 0.51297200   1.008000   ; qtot 190.491222
 9858         h1    371    ccc     H9   9858 0.05653400   1.008000   ; qtot 190.547756
 9859         h1    371    ccc    H10   9859 0.05653400   1.008000   ; qtot 190.604290
 9860         oh    371    ccc     O5   9860 -0.84113600  16.000000   ; qtot 189.763154
 9861         ho    371    ccc    H11   9861 0.51201600   1.008000   ; qtot 190.275170
 9862         os    371    ccc     O6   9862 -0.26013600  16.000000   ; qtot 190.015034
; residue  372 ccc rtp ccc q 0.0
 9863         c3    372    ccc     C1   9863 -0.33178800  12.010000   ; qtot 189.683246
 9864         c3    372    ccc     C2   9864 0.30606500  12.010000   ; qtot 189.989311
 9865         h1    372    ccc     H1   9865 0.11662300   1.008000   ; qtot 190.105934
 9866         h1    372    ccc     H2   9866 0.11526800   1.008000   ; qtot 190.221202
 9867         c3    372    ccc     C3   9867 0.15592700  12.010000   ; qtot 190.377129
 9868         c3    372    ccc     C4   9868 0.28383300  12.010000   ; qtot 190.660962
 9869         c3    372    ccc     C5   9869 0.32403300  12.010000   ; qtot 190.984995
 9870         h1    372    ccc     H3   9870 0.13386900   1.008000   ; qtot 191.118864
 9871         h1    372    ccc     H4   9871 0.10146700   1.008000   ; qtot 191.220331
 9872         h2    372    ccc     H5   9872 0.10960400   1.008000   ; qtot 191.329935
 9873         os    372    ccc     O1   9873 -0.28650000  16.000000   ; qtot 191.043435
 9874         oh    372    ccc     O2   9874 -0.86012500  16.000000   ; qtot 190.183310
 9875         oh    372    ccc     O3   9875 -0.83772800  16.000000   ; qtot 189.345582
 9876         oh    372    ccc     O4   9876 -0.77449700  16.000000   ; qtot 188.571085
 9877         c3    372    ccc     C6   9877 0.37576500  12.010000   ; qtot 188.946850
 9878         ho    372    ccc     H6   9878 0.53656000   1.008000   ; qtot 189.483410
 9879         ho    372    ccc     H7   9879 0.49492100   1.008000   ; qtot 189.978331
 9880         ho    372    ccc     H8   9880 0.51297200   1.008000   ; qtot 190.491303
 9881         h1    372    ccc     H9   9881 0.05653400   1.008000   ; qtot 190.547837
 9882         h1    372    ccc    H10   9882 0.05653400   1.008000   ; qtot 190.604371
 9883         oh    372    ccc     O5   9883 -0.84113600  16.000000   ; qtot 189.763235
 9884         ho    372    ccc    H11   9884 0.51201600   1.008000   ; qtot 190.275251
 9885         os    372    ccc     O6   9885 -0.26013600  16.000000   ; qtot 190.015115
; residue  373 ccc rtp ccc q 0.0
 9886         c3    373    ccc     C1   9886 -0.33178800  12.010000   ; qtot 189.683327
 9887         c3    373    ccc     C2   9887 0.30606500  12.010000   ; qtot 189.989392
 9888         h1    373    ccc     H1   9888 0.11662300   1.008000   ; qtot 190.106015
 9889         h1    373    ccc     H2   9889 0.11526800   1.008000   ; qtot 190.221283
 9890         c3    373    ccc     C3   9890 0.15592700  12.010000   ; qtot 190.377210
 9891         c3    373    ccc     C4   9891 0.28383300  12.010000   ; qtot 190.661043
 9892         c3    373    ccc     C5   9892 0.32403300  12.010000   ; qtot 190.985076
 9893         h1    373    ccc     H3   9893 0.13386900   1.008000   ; qtot 191.118945
 9894         h1    373    ccc     H4   9894 0.10146700   1.008000   ; qtot 191.220412
 9895         h2    373    ccc     H5   9895 0.10960400   1.008000   ; qtot 191.330016
 9896         os    373    ccc     O1   9896 -0.28650000  16.000000   ; qtot 191.043516
 9897         oh    373    ccc     O2   9897 -0.86012500  16.000000   ; qtot 190.183391
 9898         oh    373    ccc     O3   9898 -0.83772800  16.000000   ; qtot 189.345663
 9899         oh    373    ccc     O4   9899 -0.77449700  16.000000   ; qtot 188.571166
 9900         c3    373    ccc     C6   9900 0.37576500  12.010000   ; qtot 188.946931
 9901         ho    373    ccc     H6   9901 0.53656000   1.008000   ; qtot 189.483491
 9902         ho    373    ccc     H7   9902 0.49492100   1.008000   ; qtot 189.978412
 9903         ho    373    ccc     H8   9903 0.51297200   1.008000   ; qtot 190.491384
 9904         h1    373    ccc     H9   9904 0.05653400   1.008000   ; qtot 190.547918
 9905         h1    373    ccc    H10   9905 0.05653400   1.008000   ; qtot 190.604452
 9906         oh    373    ccc     O5   9906 -0.84113600  16.000000   ; qtot 189.763316
 9907         ho    373    ccc    H11   9907 0.51201600   1.008000   ; qtot 190.275332
 9908         os    373    ccc     O6   9908 -0.26013600  16.000000   ; qtot 190.015196
; residue  374 ccc rtp ccc q 0.0
 9909         c3    374    ccc     C1   9909 -0.33178800  12.010000   ; qtot 189.683408
 9910         c3    374    ccc     C2   9910 0.30606500  12.010000   ; qtot 189.989473
 9911         h1    374    ccc     H1   9911 0.11662300   1.008000   ; qtot 190.106096
 9912         h1    374    ccc     H2   9912 0.11526800   1.008000   ; qtot 190.221364
 9913         c3    374    ccc     C3   9913 0.15592700  12.010000   ; qtot 190.377291
 9914         c3    374    ccc     C4   9914 0.28383300  12.010000   ; qtot 190.661124
 9915         c3    374    ccc     C5   9915 0.32403300  12.010000   ; qtot 190.985157
 9916         h1    374    ccc     H3   9916 0.13386900   1.008000   ; qtot 191.119026
 9917         h1    374    ccc     H4   9917 0.10146700   1.008000   ; qtot 191.220493
 9918         h2    374    ccc     H5   9918 0.10960400   1.008000   ; qtot 191.330097
 9919         os    374    ccc     O1   9919 -0.28650000  16.000000   ; qtot 191.043597
 9920         oh    374    ccc     O2   9920 -0.86012500  16.000000   ; qtot 190.183472
 9921         oh    374    ccc     O3   9921 -0.83772800  16.000000   ; qtot 189.345744
 9922         oh    374    ccc     O4   9922 -0.77449700  16.000000   ; qtot 188.571247
 9923         c3    374    ccc     C6   9923 0.37576500  12.010000   ; qtot 188.947012
 9924         ho    374    ccc     H6   9924 0.53656000   1.008000   ; qtot 189.483572
 9925         ho    374    ccc     H7   9925 0.49492100   1.008000   ; qtot 189.978493
 9926         ho    374    ccc     H8   9926 0.51297200   1.008000   ; qtot 190.491465
 9927         h1    374    ccc     H9   9927 0.05653400   1.008000   ; qtot 190.547999
 9928         h1    374    ccc    H10   9928 0.05653400   1.008000   ; qtot 190.604533
 9929         oh    374    ccc     O5   9929 -0.84113600  16.000000   ; qtot 189.763397
 9930         ho    374    ccc    H11   9930 0.51201600   1.008000   ; qtot 190.275413
 9931         os    374    ccc     O6   9931 -0.26013600  16.000000   ; qtot 190.015277
; residue  375 ccc rtp ccc q 0.0
 9932         c3    375    ccc     C1   9932 -0.33178800  12.010000   ; qtot 189.683489
 9933         c3    375    ccc     C2   9933 0.30606500  12.010000   ; qtot 189.989554
 9934         h1    375    ccc     H1   9934 0.11662300   1.008000   ; qtot 190.106177
 9935         h1    375    ccc     H2   9935 0.11526800   1.008000   ; qtot 190.221445
 9936         c3    375    ccc     C3   9936 0.15592700  12.010000   ; qtot 190.377372
 9937         c3    375    ccc     C4   9937 0.28383300  12.010000   ; qtot 190.661205
 9938         c3    375    ccc     C5   9938 0.32403300  12.010000   ; qtot 190.985238
 9939         h1    375    ccc     H3   9939 0.13386900   1.008000   ; qtot 191.119107
 9940         h1    375    ccc     H4   9940 0.10146700   1.008000   ; qtot 191.220574
 9941         h2    375    ccc     H5   9941 0.10960400   1.008000   ; qtot 191.330178
 9942         os    375    ccc     O1   9942 -0.28650000  16.000000   ; qtot 191.043678
 9943         oh    375    ccc     O2   9943 -0.86012500  16.000000   ; qtot 190.183553
 9944         oh    375    ccc     O3   9944 -0.83772800  16.000000   ; qtot 189.345825
 9945         oh    375    ccc     O4   9945 -0.77449700  16.000000   ; qtot 188.571328
 9946         c3    375    ccc     C6   9946 0.37576500  12.010000   ; qtot 188.947093
 9947         ho    375    ccc     H6   9947 0.53656000   1.008000   ; qtot 189.483653
 9948         ho    375    ccc     H7   9948 0.49492100   1.008000   ; qtot 189.978574
 9949         ho    375    ccc     H8   9949 0.51297200   1.008000   ; qtot 190.491546
 9950         h1    375    ccc     H9   9950 0.05653400   1.008000   ; qtot 190.548080
 9951         h1    375    ccc    H10   9951 0.05653400   1.008000   ; qtot 190.604614
 9952         oh    375    ccc     O5   9952 -0.84113600  16.000000   ; qtot 189.763478
 9953         ho    375    ccc    H11   9953 0.51201600   1.008000   ; qtot 190.275494
 9954         os    375    ccc     O6   9954 -0.26013600  16.000000   ; qtot 190.015358
; residue  376 ccc rtp ccc q 0.0
 9955         c3    376    ccc     C1   9955 -0.33178800  12.010000   ; qtot 189.683570
 9956         c3    376    ccc     C2   9956 0.30606500  12.010000   ; qtot 189.989635
 9957         h1    376    ccc     H1   9957 0.11662300   1.008000   ; qtot 190.106258
 9958         h1    376    ccc     H2   9958 0.11526800   1.008000   ; qtot 190.221526
 9959         c3    376    ccc     C3   9959 0.15592700  12.010000   ; qtot 190.377453
 9960         c3    376    ccc     C4   9960 0.28383300  12.010000   ; qtot 190.661286
 9961         c3    376    ccc     C5   9961 0.32403300  12.010000   ; qtot 190.985319
 9962         h1    376    ccc     H3   9962 0.13386900   1.008000   ; qtot 191.119188
 9963         h1    376    ccc     H4   9963 0.10146700   1.008000   ; qtot 191.220655
 9964         h2    376    ccc     H5   9964 0.10960400   1.008000   ; qtot 191.330259
 9965         os    376    ccc     O1   9965 -0.28650000  16.000000   ; qtot 191.043759
 9966         oh    376    ccc     O2   9966 -0.86012500  16.000000   ; qtot 190.183634
 9967         oh    376    ccc     O3   9967 -0.83772800  16.000000   ; qtot 189.345906
 9968         oh    376    ccc     O4   9968 -0.77449700  16.000000   ; qtot 188.571409
 9969         c3    376    ccc     C6   9969 0.37576500  12.010000   ; qtot 188.947174
 9970         ho    376    ccc     H6   9970 0.53656000   1.008000   ; qtot 189.483734
 9971         ho    376    ccc     H7   9971 0.49492100   1.008000   ; qtot 189.978655
 9972         ho    376    ccc     H8   9972 0.51297200   1.008000   ; qtot 190.491627
 9973         h1    376    ccc     H9   9973 0.05653400   1.008000   ; qtot 190.548161
 9974         h1    376    ccc    H10   9974 0.05653400   1.008000   ; qtot 190.604695
 9975         oh    376    ccc     O5   9975 -0.84113600  16.000000   ; qtot 189.763559
 9976         ho    376    ccc    H11   9976 0.51201600   1.008000   ; qtot 190.275575
 9977         os    376    ccc     O6   9977 -0.26013600  16.000000   ; qtot 190.015439
; residue  377 ccc rtp ccc q 0.0
 9978         c3    377    ccc     C1   9978 -0.33178800  12.010000   ; qtot 189.683651
 9979         c3    377    ccc     C2   9979 0.30606500  12.010000   ; qtot 189.989716
 9980         h1    377    ccc     H1   9980 0.11662300   1.008000   ; qtot 190.106339
 9981         h1    377    ccc     H2   9981 0.11526800   1.008000   ; qtot 190.221607
 9982         c3    377    ccc     C3   9982 0.15592700  12.010000   ; qtot 190.377534
 9983         c3    377    ccc     C4   9983 0.28383300  12.010000   ; qtot 190.661367
 9984         c3    377    ccc     C5   9984 0.32403300  12.010000   ; qtot 190.985400
 9985         h1    377    ccc     H3   9985 0.13386900   1.008000   ; qtot 191.119269
 9986         h1    377    ccc     H4   9986 0.10146700   1.008000   ; qtot 191.220736
 9987         h2    377    ccc     H5   9987 0.10960400   1.008000   ; qtot 191.330340
 9988         os    377    ccc     O1   9988 -0.28650000  16.000000   ; qtot 191.043840
 9989         oh    377    ccc     O2   9989 -0.86012500  16.000000   ; qtot 190.183715
 9990         oh    377    ccc     O3   9990 -0.83772800  16.000000   ; qtot 189.345987
 9991         oh    377    ccc     O4   9991 -0.77449700  16.000000   ; qtot 188.571490
 9992         c3    377    ccc     C6   9992 0.37576500  12.010000   ; qtot 188.947255
 9993         ho    377    ccc     H6   9993 0.53656000   1.008000   ; qtot 189.483815
 9994         ho    377    ccc     H7   9994 0.49492100   1.008000   ; qtot 189.978736
 9995         ho    377    ccc     H8   9995 0.51297200   1.008000   ; qtot 190.491708
 9996         h1    377    ccc     H9   9996 0.05653400   1.008000   ; qtot 190.548242
 9997         h1    377    ccc    H10   9997 0.05653400   1.008000   ; qtot 190.604776
 9998         oh    377    ccc     O5   9998 -0.84113600  16.000000   ; qtot 189.763640
 9999         ho    377    ccc    H11   9999 0.51201600   1.008000   ; qtot 190.275656
10000         os    377    ccc     O6  10000 -0.26013600  16.000000   ; qtot 190.015520
; residue  378 ccc rtp ccc q 0.0
10001         c3    378    ccc     C1  10001 -0.33178800  12.010000   ; qtot 189.683732
10002         c3    378    ccc     C2  10002 0.30606500  12.010000   ; qtot 189.989797
10003         h1    378    ccc     H1  10003 0.11662300   1.008000   ; qtot 190.106420
10004         h1    378    ccc     H2  10004 0.11526800   1.008000   ; qtot 190.221688
10005         c3    378    ccc     C3  10005 0.15592700  12.010000   ; qtot 190.377615
10006         c3    378    ccc     C4  10006 0.28383300  12.010000   ; qtot 190.661448
10007         c3    378    ccc     C5  10007 0.32403300  12.010000   ; qtot 190.985481
10008         h1    378    ccc     H3  10008 0.13386900   1.008000   ; qtot 191.119350
10009         h1    378    ccc     H4  10009 0.10146700   1.008000   ; qtot 191.220817
10010         h2    378    ccc     H5  10010 0.10960400   1.008000   ; qtot 191.330421
10011         os    378    ccc     O1  10011 -0.28650000  16.000000   ; qtot 191.043921
10012         oh    378    ccc     O2  10012 -0.86012500  16.000000   ; qtot 190.183796
10013         oh    378    ccc     O3  10013 -0.83772800  16.000000   ; qtot 189.346068
10014         oh    378    ccc     O4  10014 -0.77449700  16.000000   ; qtot 188.571571
10015         c3    378    ccc     C6  10015 0.37576500  12.010000   ; qtot 188.947336
10016         ho    378    ccc     H6  10016 0.53656000   1.008000   ; qtot 189.483896
10017         ho    378    ccc     H7  10017 0.49492100   1.008000   ; qtot 189.978817
10018         ho    378    ccc     H8  10018 0.51297200   1.008000   ; qtot 190.491789
10019         h1    378    ccc     H9  10019 0.05653400   1.008000   ; qtot 190.548323
10020         h1    378    ccc    H10  10020 0.05653400   1.008000   ; qtot 190.604857
10021         oh    378    ccc     O5  10021 -0.84113600  16.000000   ; qtot 189.763721
10022         ho    378    ccc    H11  10022 0.51201600   1.008000   ; qtot 190.275737
10023         os    378    ccc     O6  10023 -0.26013600  16.000000   ; qtot 190.015601
; residue  379 ccc rtp ccc q 0.0
10024         c3    379    ccc     C1  10024 -0.33178800  12.010000   ; qtot 189.683813
10025         c3    379    ccc     C2  10025 0.30606500  12.010000   ; qtot 189.989878
10026         h1    379    ccc     H1  10026 0.11662300   1.008000   ; qtot 190.106501
10027         h1    379    ccc     H2  10027 0.11526800   1.008000   ; qtot 190.221769
10028         c3    379    ccc     C3  10028 0.15592700  12.010000   ; qtot 190.377696
10029         c3    379    ccc     C4  10029 0.28383300  12.010000   ; qtot 190.661529
10030         c3    379    ccc     C5  10030 0.32403300  12.010000   ; qtot 190.985562
10031         h1    379    ccc     H3  10031 0.13386900   1.008000   ; qtot 191.119431
10032         h1    379    ccc     H4  10032 0.10146700   1.008000   ; qtot 191.220898
10033         h2    379    ccc     H5  10033 0.10960400   1.008000   ; qtot 191.330502
10034         os    379    ccc     O1  10034 -0.28650000  16.000000   ; qtot 191.044002
10035         oh    379    ccc     O2  10035 -0.86012500  16.000000   ; qtot 190.183877
10036         oh    379    ccc     O3  10036 -0.83772800  16.000000   ; qtot 189.346149
10037         oh    379    ccc     O4  10037 -0.77449700  16.000000   ; qtot 188.571652
10038         c3    379    ccc     C6  10038 0.37576500  12.010000   ; qtot 188.947417
10039         ho    379    ccc     H6  10039 0.53656000   1.008000   ; qtot 189.483977
10040         ho    379    ccc     H7  10040 0.49492100   1.008000   ; qtot 189.978898
10041         ho    379    ccc     H8  10041 0.51297200   1.008000   ; qtot 190.491870
10042         h1    379    ccc     H9  10042 0.05653400   1.008000   ; qtot 190.548404
10043         h1    379    ccc    H10  10043 0.05653400   1.008000   ; qtot 190.604938
10044         oh    379    ccc     O5  10044 -0.84113600  16.000000   ; qtot 189.763802
10045         ho    379    ccc    H11  10045 0.51201600   1.008000   ; qtot 190.275818
10046         os    379    ccc     O6  10046 -0.26013600  16.000000   ; qtot 190.015682
; residue  380 ccc rtp ccc q 0.0
10047         c3    380    ccc     C1  10047 -0.33178800  12.010000   ; qtot 189.683894
10048         c3    380    ccc     C2  10048 0.30606500  12.010000   ; qtot 189.989959
10049         h1    380    ccc     H1  10049 0.11662300   1.008000   ; qtot 190.106582
10050         h1    380    ccc     H2  10050 0.11526800   1.008000   ; qtot 190.221850
10051         c3    380    ccc     C3  10051 0.15592700  12.010000   ; qtot 190.377777
10052         c3    380    ccc     C4  10052 0.28383300  12.010000   ; qtot 190.661610
10053         c3    380    ccc     C5  10053 0.32403300  12.010000   ; qtot 190.985643
10054         h1    380    ccc     H3  10054 0.13386900   1.008000   ; qtot 191.119512
10055         h1    380    ccc     H4  10055 0.10146700   1.008000   ; qtot 191.220979
10056         h2    380    ccc     H5  10056 0.10960400   1.008000   ; qtot 191.330583
10057         os    380    ccc     O1  10057 -0.28650000  16.000000   ; qtot 191.044083
10058         oh    380    ccc     O2  10058 -0.86012500  16.000000   ; qtot 190.183958
10059         oh    380    ccc     O3  10059 -0.83772800  16.000000   ; qtot 189.346230
10060         oh    380    ccc     O4  10060 -0.77449700  16.000000   ; qtot 188.571733
10061         c3    380    ccc     C6  10061 0.37576500  12.010000   ; qtot 188.947498
10062         ho    380    ccc     H6  10062 0.53656000   1.008000   ; qtot 189.484058
10063         ho    380    ccc     H7  10063 0.49492100   1.008000   ; qtot 189.978979
10064         ho    380    ccc     H8  10064 0.51297200   1.008000   ; qtot 190.491951
10065         h1    380    ccc     H9  10065 0.05653400   1.008000   ; qtot 190.548485
10066         h1    380    ccc    H10  10066 0.05653400   1.008000   ; qtot 190.605019
10067         oh    380    ccc     O5  10067 -0.84113600  16.000000   ; qtot 189.763883
10068         ho    380    ccc    H11  10068 0.51201600   1.008000   ; qtot 190.275899
10069         os    380    ccc     O6  10069 -0.26013600  16.000000   ; qtot 190.015763
; residue  381 ccc rtp ccc q 0.0
10070         c3    381    ccc     C1  10070 -0.33178800  12.010000   ; qtot 189.683975
10071         c3    381    ccc     C2  10071 0.30606500  12.010000   ; qtot 189.990040
10072         h1    381    ccc     H1  10072 0.11662300   1.008000   ; qtot 190.106663
10073         h1    381    ccc     H2  10073 0.11526800   1.008000   ; qtot 190.221931
10074         c3    381    ccc     C3  10074 0.15592700  12.010000   ; qtot 190.377858
10075         c3    381    ccc     C4  10075 0.28383300  12.010000   ; qtot 190.661691
10076         c3    381    ccc     C5  10076 0.32403300  12.010000   ; qtot 190.985724
10077         h1    381    ccc     H3  10077 0.13386900   1.008000   ; qtot 191.119593
10078         h1    381    ccc     H4  10078 0.10146700   1.008000   ; qtot 191.221060
10079         h2    381    ccc     H5  10079 0.10960400   1.008000   ; qtot 191.330664
10080         os    381    ccc     O1  10080 -0.28650000  16.000000   ; qtot 191.044164
10081         oh    381    ccc     O2  10081 -0.86012500  16.000000   ; qtot 190.184039
10082         oh    381    ccc     O3  10082 -0.83772800  16.000000   ; qtot 189.346311
10083         oh    381    ccc     O4  10083 -0.77449700  16.000000   ; qtot 188.571814
10084         c3    381    ccc     C6  10084 0.37576500  12.010000   ; qtot 188.947579
10085         ho    381    ccc     H6  10085 0.53656000   1.008000   ; qtot 189.484139
10086         ho    381    ccc     H7  10086 0.49492100   1.008000   ; qtot 189.979060
10087         ho    381    ccc     H8  10087 0.51297200   1.008000   ; qtot 190.492032
10088         h1    381    ccc     H9  10088 0.05653400   1.008000   ; qtot 190.548566
10089         h1    381    ccc    H10  10089 0.05653400   1.008000   ; qtot 190.605100
10090         oh    381    ccc     O5  10090 -0.84113600  16.000000   ; qtot 189.763964
10091         ho    381    ccc    H11  10091 0.51201600   1.008000   ; qtot 190.275980
10092         os    381    ccc     O6  10092 -0.26013600  16.000000   ; qtot 190.015844
; residue  382 ccc rtp ccc q 0.0
10093         c3    382    ccc     C1  10093 -0.33178800  12.010000   ; qtot 189.684056
10094         c3    382    ccc     C2  10094 0.30606500  12.010000   ; qtot 189.990121
10095         h1    382    ccc     H1  10095 0.11662300   1.008000   ; qtot 190.106744
10096         h1    382    ccc     H2  10096 0.11526800   1.008000   ; qtot 190.222012
10097         c3    382    ccc     C3  10097 0.15592700  12.010000   ; qtot 190.377939
10098         c3    382    ccc     C4  10098 0.28383300  12.010000   ; qtot 190.661772
10099         c3    382    ccc     C5  10099 0.32403300  12.010000   ; qtot 190.985805
10100         h1    382    ccc     H3  10100 0.13386900   1.008000   ; qtot 191.119674
10101         h1    382    ccc     H4  10101 0.10146700   1.008000   ; qtot 191.221141
10102         h2    382    ccc     H5  10102 0.10960400   1.008000   ; qtot 191.330745
10103         os    382    ccc     O1  10103 -0.28650000  16.000000   ; qtot 191.044245
10104         oh    382    ccc     O2  10104 -0.86012500  16.000000   ; qtot 190.184120
10105         oh    382    ccc     O3  10105 -0.83772800  16.000000   ; qtot 189.346392
10106         oh    382    ccc     O4  10106 -0.77449700  16.000000   ; qtot 188.571895
10107         c3    382    ccc     C6  10107 0.37576500  12.010000   ; qtot 188.947660
10108         ho    382    ccc     H6  10108 0.53656000   1.008000   ; qtot 189.484220
10109         ho    382    ccc     H7  10109 0.49492100   1.008000   ; qtot 189.979141
10110         ho    382    ccc     H8  10110 0.51297200   1.008000   ; qtot 190.492113
10111         h1    382    ccc     H9  10111 0.05653400   1.008000   ; qtot 190.548647
10112         h1    382    ccc    H10  10112 0.05653400   1.008000   ; qtot 190.605181
10113         oh    382    ccc     O5  10113 -0.84113600  16.000000   ; qtot 189.764045
10114         ho    382    ccc    H11  10114 0.51201600   1.008000   ; qtot 190.276061
10115         os    382    ccc     O6  10115 -0.26013600  16.000000   ; qtot 190.015925

[ bonds ]
;    ai     aj funct         c0         c1         c2         c3
      1      2     1   0.15110 237065.440000
      1      5     1   0.15110 237065.440000
      1      8     1   0.15110 237065.440000
      2     14     1   0.15375 251793.120000
      5     17     1   0.15375 251793.120000
      8     11     1   0.15375 251793.120000
     11     23     1   0.15375 251793.120000
     14     26     1   0.15375 251793.120000
     17     20     1   0.15375 251793.120000
     20     58     1   0.14316 258236.480000
     23     88     1   0.14316 258236.480000
     26    118     1   0.14316 258236.480000
     30     31     1   0.15110 237065.440000
     30     34     1   0.15110 237065.440000
     30     37     1   0.15110 237065.440000
     31     43     1   0.15375 251793.120000
     34     46     1   0.15375 251793.120000
     37     40     1   0.15375 251793.120000
     40     49     1   0.15375 251793.120000
     43     55     1   0.15375 251793.120000
     46     52     1   0.15375 251793.120000
     49     58     1   0.14316 258236.480000
     52    148     1   0.14316 258236.480000
     55    178     1   0.14316 258236.480000
     60     61     1   0.15110 237065.440000
     60     64     1   0.15110 237065.440000
     60     67     1   0.15110 237065.440000
     61     73     1   0.15375 251793.120000
     64     76     1   0.15375 251793.120000
     67     70     1   0.15375 251793.120000
     70     79     1   0.15375 251793.120000
     73     85     1   0.15375 251793.120000
     76     82     1   0.15375 251793.120000
     79     88     1   0.14316 258236.480000
     82    208     1   0.14316 258236.480000
     85    238     1   0.14316 258236.480000
     90     91     1   0.15110 237065.440000
     90     94     1   0.15110 237065.440000
     90     97     1   0.15110 237065.440000
     91    103     1   0.15375 251793.120000
     94    106     1   0.15375 251793.120000
     97    100     1   0.15375 251793.120000
    100    109     1   0.15375 251793.120000
    103    115     1   0.15375 251793.120000
    106    112     1   0.15375 251793.120000
    109    118     1   0.14316 258236.480000
    112    268     1   0.14316 258236.480000
    115    298     1   0.14316 258236.480000
    120    121     1   0.15110 237065.440000
    120    124     1   0.15110 237065.440000
    120    127     1   0.15110 237065.440000
    121    133     1   0.15375 251793.120000
    124    136     1   0.15375 251793.120000
    127    130     1   0.15375 251793.120000
    130    139     1   0.15375 251793.120000
    133    145     1   0.15375 251793.120000
    136    142     1   0.15375 251793.120000
    139    148     1   0.14316 258236.480000
    142    328     1   0.14316 258236.480000
    145    358     1   0.14316 258236.480000
    150    151     1   0.15110 237065.440000
    150    154     1   0.15110 237065.440000
    150    157     1   0.15110 237065.440000
    151    163     1   0.15375 251793.120000
    154    166     1   0.15375 251793.120000
    157    160     1   0.15375 251793.120000
    160    169     1   0.15375 251793.120000
    163    175     1   0.15375 251793.120000
    166    172     1   0.15375 251793.120000
    169    178     1   0.14316 258236.480000
    172    388     1   0.14316 258236.480000
    175    418     1   0.14316 258236.480000
    180    181     1   0.15110 237065.440000
    180    184     1   0.15110 237065.440000
    180    187     1   0.15110 237065.440000
    181    193     1   0.15375 251793.120000
    184    196     1   0.15375 251793.120000
    187    190     1   0.15375 251793.120000
    190    199     1   0.15375 251793.120000
    193    205     1   0.15375 251793.120000
    196    202     1   0.15375 251793.120000
    199    208     1   0.14316 258236.480000
    202    448     1   0.14316 258236.480000
    205    478     1   0.14316 258236.480000
    210    211     1   0.15110 237065.440000
    210    214     1   0.15110 237065.440000
    210    217     1   0.15110 237065.440000
    211    223     1   0.15375 251793.120000
    214    226     1   0.15375 251793.120000
    217    220     1   0.15375 251793.120000
    220    229     1   0.15375 251793.120000
    223    235     1   0.15375 251793.120000
    226    232     1   0.15375 251793.120000
    229    238     1   0.14316 258236.480000
    232    508     1   0.14316 258236.480000
    235    538     1   0.14316 258236.480000
    240    241     1   0.15110 237065.440000
    240    244     1   0.15110 237065.440000
    240    247     1   0.15110 237065.440000
    241    253     1   0.15375 251793.120000
    244    256     1   0.15375 251793.120000
    247    250     1   0.15375 251793.120000
    250    259     1   0.15375 251793.120000
    253    265     1   0.15375 251793.120000
    256    262     1   0.15375 251793.120000
    259    268     1   0.14316 258236.480000
    262    568     1   0.14316 258236.480000
    265    598     1   0.14316 258236.480000
    270    271     1   0.15110 237065.440000
    270    274     1   0.15110 237065.440000
    270    277     1   0.15110 237065.440000
    271    283     1   0.15375 251793.120000
    274    286     1   0.15375 251793.120000
    277    280     1   0.15375 251793.120000
    280    289     1   0.15375 251793.120000
    283    295     1   0.15375 251793.120000
    286    292     1   0.15375 251793.120000
    289    298     1   0.14316 258236.480000
    292    628     1   0.14316 258236.480000
    295    658     1   0.14316 258236.480000
    300    301     1   0.15110 237065.440000
    300    304     1   0.15110 237065.440000
    300    307     1   0.15110 237065.440000
    301    313     1   0.15375 251793.120000
    304    316     1   0.15375 251793.120000
    307    310     1   0.15375 251793.120000
    310    319     1   0.15375 251793.120000
    313    325     1   0.15375 251793.120000
    316    322     1   0.15375 251793.120000
    319    328     1   0.14316 258236.480000
    322    688     1   0.14316 258236.480000
    325    718     1   0.14316 258236.480000
    330    331     1   0.15110 237065.440000
    330    334     1   0.15110 237065.440000
    330    337     1   0.15110 237065.440000
    331    343     1   0.15375 251793.120000
    334    346     1   0.15375 251793.120000
    337    340     1   0.15375 251793.120000
    340    349     1   0.15375 251793.120000
    343    355     1   0.15375 251793.120000
    346    352     1   0.15375 251793.120000
    349    358     1   0.14316 258236.480000
    352    748     1   0.14316 258236.480000
    355    778     1   0.14316 258236.480000
    360    361     1   0.15110 237065.440000
    360    364     1   0.15110 237065.440000
    360    367     1   0.15110 237065.440000
    361    373     1   0.15375 251793.120000
    364    376     1   0.15375 251793.120000
    367    370     1   0.15375 251793.120000
    370    379     1   0.15375 251793.120000
    373    385     1   0.15375 251793.120000
    376    382     1   0.15375 251793.120000
    379    388     1   0.14316 258236.480000
    382    808     1   0.14316 258236.480000
    385    838     1   0.14316 258236.480000
    390    391     1   0.15110 237065.440000
    390    394     1   0.15110 237065.440000
    390    397     1   0.15110 237065.440000
    391    403     1   0.15375 251793.120000
    394    406     1   0.15375 251793.120000
    397    400     1   0.15375 251793.120000
    400    409     1   0.15375 251793.120000
    403    415     1   0.15375 251793.120000
    406    412     1   0.15375 251793.120000
    409    418     1   0.14316 258236.480000
    412    868     1   0.14316 258236.480000
    415    898     1   0.14316 258236.480000
    420    421     1   0.15110 237065.440000
    420    424     1   0.15110 237065.440000
    420    427     1   0.15110 237065.440000
    421    433     1   0.15375 251793.120000
    424    436     1   0.15375 251793.120000
    427    430     1   0.15375 251793.120000
    430    439     1   0.15375 251793.120000
    433    445     1   0.15375 251793.120000
    436    442     1   0.15375 251793.120000
    439    448     1   0.14316 258236.480000
    442    928     1   0.14316 258236.480000
    445    958     1   0.14316 258236.480000
    450    451     1   0.15110 237065.440000
    450    454     1   0.15110 237065.440000
    450    457     1   0.15110 237065.440000
    451    463     1   0.15375 251793.120000
    454    466     1   0.15375 251793.120000
    457    460     1   0.15375 251793.120000
    460    469     1   0.15375 251793.120000
    463    475     1   0.15375 251793.120000
    466    472     1   0.15375 251793.120000
    469    478     1   0.14316 258236.480000
    472    988     1   0.14316 258236.480000
    475   1018     1   0.14316 258236.480000
    480    481     1   0.15110 237065.440000
    480    484     1   0.15110 237065.440000
    480    487     1   0.15110 237065.440000
    481    493     1   0.15375 251793.120000
    484    496     1   0.15375 251793.120000
    487    490     1   0.15375 251793.120000
    490    499     1   0.15375 251793.120000
    493    505     1   0.15375 251793.120000
    496    502     1   0.15375 251793.120000
    499    508     1   0.14316 258236.480000
    502   1048     1   0.14316 258236.480000
    505   1078     1   0.14316 258236.480000
    510    511     1   0.15110 237065.440000
    510    514     1   0.15110 237065.440000
    510    517     1   0.15110 237065.440000
    511    523     1   0.15375 251793.120000
    514    526     1   0.15375 251793.120000
    517    520     1   0.15375 251793.120000
    520    529     1   0.15375 251793.120000
    523    535     1   0.15375 251793.120000
    526    532     1   0.15375 251793.120000
    529    538     1   0.14316 258236.480000
    532   1108     1   0.14316 258236.480000
    535   1138     1   0.14316 258236.480000
    540    541     1   0.15110 237065.440000
    540    544     1   0.15110 237065.440000
    540    547     1   0.15110 237065.440000
    541    553     1   0.15375 251793.120000
    544    556     1   0.15375 251793.120000
    547    550     1   0.15375 251793.120000
    550    559     1   0.15375 251793.120000
    553    565     1   0.15375 251793.120000
    556    562     1   0.15375 251793.120000
    559    568     1   0.14316 258236.480000
    562   1168     1   0.14316 258236.480000
    565   1198     1   0.14316 258236.480000
    570    571     1   0.15110 237065.440000
    570    574     1   0.15110 237065.440000
    570    577     1   0.15110 237065.440000
    571    583     1   0.15375 251793.120000
    574    586     1   0.15375 251793.120000
    577    580     1   0.15375 251793.120000
    580    589     1   0.15375 251793.120000
    583    595     1   0.15375 251793.120000
    586    592     1   0.15375 251793.120000
    589    598     1   0.14316 258236.480000
    592   1228     1   0.14316 258236.480000
    595   1258     1   0.14316 258236.480000
    600    601     1   0.15110 237065.440000
    600    604     1   0.15110 237065.440000
    600    607     1   0.15110 237065.440000
    601    613     1   0.15375 251793.120000
    604    616     1   0.15375 251793.120000
    607    610     1   0.15375 251793.120000
    610    619     1   0.15375 251793.120000
    613    625     1   0.15375 251793.120000
    616    622     1   0.15375 251793.120000
    619    628     1   0.14316 258236.480000
    622   1288     1   0.14316 258236.480000
    625   1318     1   0.14316 258236.480000
    630    631     1   0.15110 237065.440000
    630    634     1   0.15110 237065.440000
    630    637     1   0.15110 237065.440000
    631    643     1   0.15375 251793.120000
    634    646     1   0.15375 251793.120000
    637    640     1   0.15375 251793.120000
    640    649     1   0.15375 251793.120000
    643    655     1   0.15375 251793.120000
    646    652     1   0.15375 251793.120000
    649    658     1   0.14316 258236.480000
    652   1348     1   0.14316 258236.480000
    655   1378     1   0.14316 258236.480000
    660    661     1   0.15110 237065.440000
    660    664     1   0.15110 237065.440000
    660    667     1   0.15110 237065.440000
    661    673     1   0.15375 251793.120000
    664    676     1   0.15375 251793.120000
    667    670     1   0.15375 251793.120000
    670    679     1   0.15375 251793.120000
    673    685     1   0.15375 251793.120000
    676    682     1   0.15375 251793.120000
    679    688     1   0.14316 258236.480000
    682   1408     1   0.14316 258236.480000
    685   1438     1   0.14316 258236.480000
    690    691     1   0.15110 237065.440000
    690    694     1   0.15110 237065.440000
    690    697     1   0.15110 237065.440000
    691    703     1   0.15375 251793.120000
    694    706     1   0.15375 251793.120000
    697    700     1   0.15375 251793.120000
    700    709     1   0.15375 251793.120000
    703    715     1   0.15375 251793.120000
    706    712     1   0.15375 251793.120000
    709    718     1   0.14316 258236.480000
    712   1468     1   0.14316 258236.480000
    715   1498     1   0.14316 258236.480000
    720    721     1   0.15110 237065.440000
    720    724     1   0.15110 237065.440000
    720    727     1   0.15110 237065.440000
    721    733     1   0.15375 251793.120000
    724    736     1   0.15375 251793.120000
    727    730     1   0.15375 251793.120000
    730    739     1   0.15375 251793.120000
    733    745     1   0.15375 251793.120000
    736    742     1   0.15375 251793.120000
    739    748     1   0.14316 258236.480000
    742   1528     1   0.14316 258236.480000
    745   1558     1   0.14316 258236.480000
    750    751     1   0.15110 237065.440000
    750    754     1   0.15110 237065.440000
    750    757     1   0.15110 237065.440000
    751    763     1   0.15375 251793.120000
    754    766     1   0.15375 251793.120000
    757    760     1   0.15375 251793.120000
    760    769     1   0.15375 251793.120000
    763    775     1   0.15375 251793.120000
    766    772     1   0.15375 251793.120000
    769    778     1   0.14316 258236.480000
    772   1588     1   0.14316 258236.480000
    775   1618     1   0.14316 258236.480000
    780    781     1   0.15110 237065.440000
    780    784     1   0.15110 237065.440000
    780    787     1   0.15110 237065.440000
    781    793     1   0.15375 251793.120000
    784    796     1   0.15375 251793.120000
    787    790     1   0.15375 251793.120000
    790    799     1   0.15375 251793.120000
    793    805     1   0.15375 251793.120000
    796    802     1   0.15375 251793.120000
    799    808     1   0.14316 258236.480000
    802   1648     1   0.14316 258236.480000
    805   1678     1   0.14316 258236.480000
    810    811     1   0.15110 237065.440000
    810    814     1   0.15110 237065.440000
    810    817     1   0.15110 237065.440000
    811    823     1   0.15375 251793.120000
    814    826     1   0.15375 251793.120000
    817    820     1   0.15375 251793.120000
    820    829     1   0.15375 251793.120000
    823    835     1   0.15375 251793.120000
    826    832     1   0.15375 251793.120000
    829    838     1   0.14316 258236.480000
    832   1708     1   0.14316 258236.480000
    835   1738     1   0.14316 258236.480000
    840    841     1   0.15110 237065.440000
    840    844     1   0.15110 237065.440000
    840    847     1   0.15110 237065.440000
    841    853     1   0.15375 251793.120000
    844    856     1   0.15375 251793.120000
    847    850     1   0.15375 251793.120000
    850    859     1   0.15375 251793.120000
    853    865     1   0.15375 251793.120000
    856    862     1   0.15375 251793.120000
    859    868     1   0.14316 258236.480000
    862   1768     1   0.14316 258236.480000
    865   1798     1   0.14316 258236.480000
    870    871     1   0.15110 237065.440000
    870    874     1   0.15110 237065.440000
    870    877     1   0.15110 237065.440000
    871    883     1   0.15375 251793.120000
    874    886     1   0.15375 251793.120000
    877    880     1   0.15375 251793.120000
    880    889     1   0.15375 251793.120000
    883    895     1   0.15375 251793.120000
    886    892     1   0.15375 251793.120000
    889    898     1   0.14316 258236.480000
    892   1828     1   0.14316 258236.480000
    895   1858     1   0.14316 258236.480000
    900    901     1   0.15110 237065.440000
    900    904     1   0.15110 237065.440000
    900    907     1   0.15110 237065.440000
    901    913     1   0.15375 251793.120000
    904    916     1   0.15375 251793.120000
    907    910     1   0.15375 251793.120000
    910    919     1   0.15375 251793.120000
    913    925     1   0.15375 251793.120000
    916    922     1   0.15375 251793.120000
    919    928     1   0.14316 258236.480000
    922   1888     1   0.14316 258236.480000
    925   1918     1   0.14316 258236.480000
    930    931     1   0.15110 237065.440000
    930    934     1   0.15110 237065.440000
    930    937     1   0.15110 237065.440000
    931    943     1   0.15375 251793.120000
    934    946     1   0.15375 251793.120000
    937    940     1   0.15375 251793.120000
    940    949     1   0.15375 251793.120000
    943    955     1   0.15375 251793.120000
    946    952     1   0.15375 251793.120000
    949    958     1   0.14316 258236.480000
    952   1948     1   0.14316 258236.480000
    955   1978     1   0.14316 258236.480000
    960    961     1   0.15110 237065.440000
    960    964     1   0.15110 237065.440000
    960    967     1   0.15110 237065.440000
    961    973     1   0.15375 251793.120000
    964    976     1   0.15375 251793.120000
    967    970     1   0.15375 251793.120000
    970    979     1   0.15375 251793.120000
    973    985     1   0.15375 251793.120000
    976    982     1   0.15375 251793.120000
    979    988     1   0.14316 258236.480000
    982   2008     1   0.14316 258236.480000
    985   2038     1   0.14316 258236.480000
    990    991     1   0.15110 237065.440000
    990    994     1   0.15110 237065.440000
    990    997     1   0.15110 237065.440000
    991   1003     1   0.15375 251793.120000
    994   1006     1   0.15375 251793.120000
    997   1000     1   0.15375 251793.120000
   1000   1009     1   0.15375 251793.120000
   1003   1015     1   0.15375 251793.120000
   1006   1012     1   0.15375 251793.120000
   1009   1018     1   0.14316 258236.480000
   1012   2068     1   0.14316 258236.480000
   1015   2098     1   0.14316 258236.480000
   1020   1021     1   0.15110 237065.440000
   1020   1024     1   0.15110 237065.440000
   1020   1027     1   0.15110 237065.440000
   1021   1033     1   0.15375 251793.120000
   1024   1036     1   0.15375 251793.120000
   1027   1030     1   0.15375 251793.120000
   1030   1039     1   0.15375 251793.120000
   1033   1045     1   0.15375 251793.120000
   1036   1042     1   0.15375 251793.120000
   1039   1048     1   0.14316 258236.480000
   1042   2128     1   0.14316 258236.480000
   1045   2158     1   0.14316 258236.480000
   1050   1051     1   0.15110 237065.440000
   1050   1054     1   0.15110 237065.440000
   1050   1057     1   0.15110 237065.440000
   1051   1063     1   0.15375 251793.120000
   1054   1066     1   0.15375 251793.120000
   1057   1060     1   0.15375 251793.120000
   1060   1069     1   0.15375 251793.120000
   1063   1075     1   0.15375 251793.120000
   1066   1072     1   0.15375 251793.120000
   1069   1078     1   0.14316 258236.480000
   1072   2188     1   0.14316 258236.480000
   1075   2218     1   0.14316 258236.480000
   1080   1081     1   0.15110 237065.440000
   1080   1084     1   0.15110 237065.440000
   1080   1087     1   0.15110 237065.440000
   1081   1093     1   0.15375 251793.120000
   1084   1096     1   0.15375 251793.120000
   1087   1090     1   0.15375 251793.120000
   1090   1099     1   0.15375 251793.120000
   1093   1105     1   0.15375 251793.120000
   1096   1102     1   0.15375 251793.120000
   1099   1108     1   0.14316 258236.480000
   1102   2248     1   0.14316 258236.480000
   1105   2278     1   0.14316 258236.480000
   1110   1111     1   0.15110 237065.440000
   1110   1114     1   0.15110 237065.440000
   1110   1117     1   0.15110 237065.440000
   1111   1123     1   0.15375 251793.120000
   1114   1126     1   0.15375 251793.120000
   1117   1120     1   0.15375 251793.120000
   1120   1129     1   0.15375 251793.120000
   1123   1135     1   0.15375 251793.120000
   1126   1132     1   0.15375 251793.120000
   1129   1138     1   0.14316 258236.480000
   1132   2308     1   0.14316 258236.480000
   1135   2338     1   0.14316 258236.480000
   1140   1141     1   0.15110 237065.440000
   1140   1144     1   0.15110 237065.440000
   1140   1147     1   0.15110 237065.440000
   1141   1153     1   0.15375 251793.120000
   1144   1156     1   0.15375 251793.120000
   1147   1150     1   0.15375 251793.120000
   1150   1159     1   0.15375 251793.120000
   1153   1165     1   0.15375 251793.120000
   1156   1162     1   0.15375 251793.120000
   1159   1168     1   0.14316 258236.480000
   1162   2368     1   0.14316 258236.480000
   1165   2398     1   0.14316 258236.480000
   1170   1171     1   0.15110 237065.440000
   1170   1174     1   0.15110 237065.440000
   1170   1177     1   0.15110 237065.440000
   1171   1183     1   0.15375 251793.120000
   1174   1186     1   0.15375 251793.120000
   1177   1180     1   0.15375 251793.120000
   1180   1189     1   0.15375 251793.120000
   1183   1195     1   0.15375 251793.120000
   1186   1192     1   0.15375 251793.120000
   1189   1198     1   0.14316 258236.480000
   1192   2428     1   0.14316 258236.480000
   1195   2458     1   0.14316 258236.480000
   1200   1201     1   0.15110 237065.440000
   1200   1204     1   0.15110 237065.440000
   1200   1207     1   0.15110 237065.440000
   1201   1213     1   0.15375 251793.120000
   1204   1216     1   0.15375 251793.120000
   1207   1210     1   0.15375 251793.120000
   1210   1219     1   0.15375 251793.120000
   1213   1225     1   0.15375 251793.120000
   1216   1222     1   0.15375 251793.120000
   1219   1228     1   0.14316 258236.480000
   1222   2488     1   0.14316 258236.480000
   1225   2518     1   0.14316 258236.480000
   1230   1231     1   0.15110 237065.440000
   1230   1234     1   0.15110 237065.440000
   1230   1237     1   0.15110 237065.440000
   1231   1243     1   0.15375 251793.120000
   1234   1246     1   0.15375 251793.120000
   1237   1240     1   0.15375 251793.120000
   1240   1249     1   0.15375 251793.120000
   1243   1255     1   0.15375 251793.120000
   1246   1252     1   0.15375 251793.120000
   1249   1258     1   0.14316 258236.480000
   1252   2548     1   0.14316 258236.480000
   1255   2578     1   0.14316 258236.480000
   1260   1261     1   0.15110 237065.440000
   1260   1264     1   0.15110 237065.440000
   1260   1267     1   0.15110 237065.440000
   1261   1273     1   0.15375 251793.120000
   1264   1276     1   0.15375 251793.120000
   1267   1270     1   0.15375 251793.120000
   1270   1279     1   0.15375 251793.120000
   1273   1285     1   0.15375 251793.120000
   1276   1282     1   0.15375 251793.120000
   1279   1288     1   0.14316 258236.480000
   1282   2608     1   0.14316 258236.480000
   1285   2638     1   0.14316 258236.480000
   1290   1291     1   0.15110 237065.440000
   1290   1294     1   0.15110 237065.440000
   1290   1297     1   0.15110 237065.440000
   1291   1303     1   0.15375 251793.120000
   1294   1306     1   0.15375 251793.120000
   1297   1300     1   0.15375 251793.120000
   1300   1309     1   0.15375 251793.120000
   1303   1315     1   0.15375 251793.120000
   1306   1312     1   0.15375 251793.120000
   1309   1318     1   0.14316 258236.480000
   1312   2668     1   0.14316 258236.480000
   1315   2698     1   0.14316 258236.480000
   1320   1321     1   0.15110 237065.440000
   1320   1324     1   0.15110 237065.440000
   1320   1327     1   0.15110 237065.440000
   1321   1333     1   0.15375 251793.120000
   1324   1336     1   0.15375 251793.120000
   1327   1330     1   0.15375 251793.120000
   1330   1339     1   0.15375 251793.120000
   1333   1345     1   0.15375 251793.120000
   1336   1342     1   0.15375 251793.120000
   1339   1348     1   0.14316 258236.480000
   1342   2728     1   0.14316 258236.480000
   1345   2758     1   0.14316 258236.480000
   1350   1351     1   0.15110 237065.440000
   1350   1354     1   0.15110 237065.440000
   1350   1357     1   0.15110 237065.440000
   1351   1363     1   0.15375 251793.120000
   1354   1366     1   0.15375 251793.120000
   1357   1360     1   0.15375 251793.120000
   1360   1369     1   0.15375 251793.120000
   1363   1375     1   0.15375 251793.120000
   1366   1372     1   0.15375 251793.120000
   1369   1378     1   0.14316 258236.480000
   1372   2788     1   0.14316 258236.480000
   1375   2818     1   0.14316 258236.480000
   1380   1381     1   0.15110 237065.440000
   1380   1384     1   0.15110 237065.440000
   1380   1387     1   0.15110 237065.440000
   1381   1393     1   0.15375 251793.120000
   1384   1396     1   0.15375 251793.120000
   1387   1390     1   0.15375 251793.120000
   1390   1399     1   0.15375 251793.120000
   1393   1405     1   0.15375 251793.120000
   1396   1402     1   0.15375 251793.120000
   1399   1408     1   0.14316 258236.480000
   1402   2848     1   0.14316 258236.480000
   1405   2878     1   0.14316 258236.480000
   1410   1411     1   0.15110 237065.440000
   1410   1414     1   0.15110 237065.440000
   1410   1417     1   0.15110 237065.440000
   1411   1423     1   0.15375 251793.120000
   1414   1426     1   0.15375 251793.120000
   1417   1420     1   0.15375 251793.120000
   1420   1429     1   0.15375 251793.120000
   1423   1435     1   0.15375 251793.120000
   1426   1432     1   0.15375 251793.120000
   1429   1438     1   0.14316 258236.480000
   1432   2908     1   0.14316 258236.480000
   1435   2938     1   0.14316 258236.480000
   1440   1441     1   0.15110 237065.440000
   1440   1444     1   0.15110 237065.440000
   1440   1447     1   0.15110 237065.440000
   1441   1453     1   0.15375 251793.120000
   1444   1456     1   0.15375 251793.120000
   1447   1450     1   0.15375 251793.120000
   1450   1459     1   0.15375 251793.120000
   1453   1465     1   0.15375 251793.120000
   1456   1462     1   0.15375 251793.120000
   1459   1468     1   0.14316 258236.480000
   1462   2968     1   0.14316 258236.480000
   1465   2998     1   0.14316 258236.480000
   1470   1471     1   0.15110 237065.440000
   1470   1474     1   0.15110 237065.440000
   1470   1477     1   0.15110 237065.440000
   1471   1483     1   0.15375 251793.120000
   1474   1486     1   0.15375 251793.120000
   1477   1480     1   0.15375 251793.120000
   1480   1489     1   0.15375 251793.120000
   1483   1495     1   0.15375 251793.120000
   1486   1492     1   0.15375 251793.120000
   1489   1498     1   0.14316 258236.480000
   1492   3028     1   0.14316 258236.480000
   1495   3058     1   0.14316 258236.480000
   1500   1501     1   0.15110 237065.440000
   1500   1504     1   0.15110 237065.440000
   1500   1507     1   0.15110 237065.440000
   1501   1513     1   0.15375 251793.120000
   1504   1516     1   0.15375 251793.120000
   1507   1510     1   0.15375 251793.120000
   1510   1519     1   0.15375 251793.120000
   1513   1525     1   0.15375 251793.120000
   1516   1522     1   0.15375 251793.120000
   1519   1528     1   0.14316 258236.480000
   1522   3088     1   0.14316 258236.480000
   1525   3118     1   0.14316 258236.480000
   1530   1531     1   0.15110 237065.440000
   1530   1534     1   0.15110 237065.440000
   1530   1537     1   0.15110 237065.440000
   1531   1543     1   0.15375 251793.120000
   1534   1546     1   0.15375 251793.120000
   1537   1540     1   0.15375 251793.120000
   1540   1549     1   0.15375 251793.120000
   1543   1555     1   0.15375 251793.120000
   1546   1552     1   0.15375 251793.120000
   1549   1558     1   0.14316 258236.480000
   1552   3148     1   0.14316 258236.480000
   1555   3178     1   0.14316 258236.480000
   1560   1561     1   0.15110 237065.440000
   1560   1564     1   0.15110 237065.440000
   1560   1567     1   0.15110 237065.440000
   1561   1573     1   0.15375 251793.120000
   1564   1576     1   0.15375 251793.120000
   1567   1570     1   0.15375 251793.120000
   1570   1579     1   0.15375 251793.120000
   1573   1585     1   0.15375 251793.120000
   1576   1582     1   0.15375 251793.120000
   1579   1588     1   0.14316 258236.480000
   1582   3208     1   0.14316 258236.480000
   1585   3238     1   0.14316 258236.480000
   1590   1591     1   0.15110 237065.440000
   1590   1594     1   0.15110 237065.440000
   1590   1597     1   0.15110 237065.440000
   1591   1603     1   0.15375 251793.120000
   1594   1606     1   0.15375 251793.120000
   1597   1600     1   0.15375 251793.120000
   1600   1609     1   0.15375 251793.120000
   1603   1615     1   0.15375 251793.120000
   1606   1612     1   0.15375 251793.120000
   1609   1618     1   0.14316 258236.480000
   1612   3268     1   0.14316 258236.480000
   1615   3298     1   0.14316 258236.480000
   1620   1621     1   0.15110 237065.440000
   1620   1624     1   0.15110 237065.440000
   1620   1627     1   0.15110 237065.440000
   1621   1633     1   0.15375 251793.120000
   1624   1636     1   0.15375 251793.120000
   1627   1630     1   0.15375 251793.120000
   1630   1639     1   0.15375 251793.120000
   1633   1645     1   0.15375 251793.120000
   1636   1642     1   0.15375 251793.120000
   1639   1648     1   0.14316 258236.480000
   1642   3328     1   0.14316 258236.480000
   1645   3358     1   0.14316 258236.480000
   1650   1651     1   0.15110 237065.440000
   1650   1654     1   0.15110 237065.440000
   1650   1657     1   0.15110 237065.440000
   1651   1663     1   0.15375 251793.120000
   1654   1666     1   0.15375 251793.120000
   1657   1660     1   0.15375 251793.120000
   1660   1669     1   0.15375 251793.120000
   1663   1675     1   0.15375 251793.120000
   1666   1672     1   0.15375 251793.120000
   1669   1678     1   0.14316 258236.480000
   1672   3388     1   0.14316 258236.480000
   1675   3418     1   0.14316 258236.480000
   1680   1681     1   0.15110 237065.440000
   1680   1684     1   0.15110 237065.440000
   1680   1687     1   0.15110 237065.440000
   1681   1693     1   0.15375 251793.120000
   1684   1696     1   0.15375 251793.120000
   1687   1690     1   0.15375 251793.120000
   1690   1699     1   0.15375 251793.120000
   1693   1705     1   0.15375 251793.120000
   1696   1702     1   0.15375 251793.120000
   1699   1708     1   0.14316 258236.480000
   1702   3448     1   0.14316 258236.480000
   1705   3478     1   0.14316 258236.480000
   1710   1711     1   0.15110 237065.440000
   1710   1714     1   0.15110 237065.440000
   1710   1717     1   0.15110 237065.440000
   1711   1723     1   0.15375 251793.120000
   1714   1726     1   0.15375 251793.120000
   1717   1720     1   0.15375 251793.120000
   1720   1729     1   0.15375 251793.120000
   1723   1735     1   0.15375 251793.120000
   1726   1732     1   0.15375 251793.120000
   1729   1738     1   0.14316 258236.480000
   1732   3508     1   0.14316 258236.480000
   1735   3538     1   0.14316 258236.480000
   1740   1741     1   0.15110 237065.440000
   1740   1744     1   0.15110 237065.440000
   1740   1747     1   0.15110 237065.440000
   1741   1753     1   0.15375 251793.120000
   1744   1756     1   0.15375 251793.120000
   1747   1750     1   0.15375 251793.120000
   1750   1759     1   0.15375 251793.120000
   1753   1765     1   0.15375 251793.120000
   1756   1762     1   0.15375 251793.120000
   1759   1768     1   0.14316 258236.480000
   1762   3568     1   0.14316 258236.480000
   1765   3598     1   0.14316 258236.480000
   1770   1771     1   0.15110 237065.440000
   1770   1774     1   0.15110 237065.440000
   1770   1777     1   0.15110 237065.440000
   1771   1783     1   0.15375 251793.120000
   1774   1786     1   0.15375 251793.120000
   1777   1780     1   0.15375 251793.120000
   1780   1789     1   0.15375 251793.120000
   1783   1795     1   0.15375 251793.120000
   1786   1792     1   0.15375 251793.120000
   1789   1798     1   0.14316 258236.480000
   1792   3628     1   0.14316 258236.480000
   1795   3658     1   0.14316 258236.480000
   1800   1801     1   0.15110 237065.440000
   1800   1804     1   0.15110 237065.440000
   1800   1807     1   0.15110 237065.440000
   1801   1813     1   0.15375 251793.120000
   1804   1816     1   0.15375 251793.120000
   1807   1810     1   0.15375 251793.120000
   1810   1819     1   0.15375 251793.120000
   1813   1825     1   0.15375 251793.120000
   1816   1822     1   0.15375 251793.120000
   1819   1828     1   0.14316 258236.480000
   1822   3688     1   0.14316 258236.480000
   1825   3718     1   0.14316 258236.480000
   1830   1831     1   0.15110 237065.440000
   1830   1834     1   0.15110 237065.440000
   1830   1837     1   0.15110 237065.440000
   1831   1843     1   0.15375 251793.120000
   1834   1846     1   0.15375 251793.120000
   1837   1840     1   0.15375 251793.120000
   1840   1849     1   0.15375 251793.120000
   1843   1855     1   0.15375 251793.120000
   1846   1852     1   0.15375 251793.120000
   1849   1858     1   0.14316 258236.480000
   1852   3748     1   0.14316 258236.480000
   1855   3778     1   0.14316 258236.480000
   1860   1861     1   0.15110 237065.440000
   1860   1864     1   0.15110 237065.440000
   1860   1867     1   0.15110 237065.440000
   1861   1873     1   0.15375 251793.120000
   1864   1876     1   0.15375 251793.120000
   1867   1870     1   0.15375 251793.120000
   1870   1879     1   0.15375 251793.120000
   1873   1885     1   0.15375 251793.120000
   1876   1882     1   0.15375 251793.120000
   1879   1888     1   0.14316 258236.480000
   1882   3808     1   0.14316 258236.480000
   1885   3838     1   0.14316 258236.480000
   1890   1891     1   0.15110 237065.440000
   1890   1894     1   0.15110 237065.440000
   1890   1897     1   0.15110 237065.440000
   1891   1903     1   0.15375 251793.120000
   1894   1906     1   0.15375 251793.120000
   1897   1900     1   0.15375 251793.120000
   1900   1909     1   0.15375 251793.120000
   1903   1915     1   0.15375 251793.120000
   1906   1912     1   0.15375 251793.120000
   1909   1918     1   0.14316 258236.480000
   1912   3868     1   0.14316 258236.480000
   1915   3898     1   0.14316 258236.480000
   1920   1921     1   0.15110 237065.440000
   1920   1924     1   0.15110 237065.440000
   1920   1927     1   0.15110 237065.440000
   1921   1933     1   0.15375 251793.120000
   1924   1936     1   0.15375 251793.120000
   1927   1930     1   0.15375 251793.120000
   1930   1939     1   0.15375 251793.120000
   1933   1945     1   0.15375 251793.120000
   1936   1942     1   0.15375 251793.120000
   1939   1948     1   0.14316 258236.480000
   1942   3928     1   0.14316 258236.480000
   1945   3958     1   0.14316 258236.480000
   1950   1951     1   0.15110 237065.440000
   1950   1954     1   0.15110 237065.440000
   1950   1957     1   0.15110 237065.440000
   1951   1963     1   0.15375 251793.120000
   1954   1966     1   0.15375 251793.120000
   1957   1960     1   0.15375 251793.120000
   1960   1969     1   0.15375 251793.120000
   1963   1975     1   0.15375 251793.120000
   1966   1972     1   0.15375 251793.120000
   1969   1978     1   0.14316 258236.480000
   1972   3988     1   0.14316 258236.480000
   1975   4018     1   0.14316 258236.480000
   1980   1981     1   0.15110 237065.440000
   1980   1984     1   0.15110 237065.440000
   1980   1987     1   0.15110 237065.440000
   1981   1993     1   0.15375 251793.120000
   1984   1996     1   0.15375 251793.120000
   1987   1990     1   0.15375 251793.120000
   1990   1999     1   0.15375 251793.120000
   1993   2005     1   0.15375 251793.120000
   1996   2002     1   0.15375 251793.120000
   1999   2008     1   0.14316 258236.480000
   2002   4048     1   0.14316 258236.480000
   2005   4078     1   0.14316 258236.480000
   2010   2011     1   0.15110 237065.440000
   2010   2014     1   0.15110 237065.440000
   2010   2017     1   0.15110 237065.440000
   2011   2023     1   0.15375 251793.120000
   2014   2026     1   0.15375 251793.120000
   2017   2020     1   0.15375 251793.120000
   2020   2029     1   0.15375 251793.120000
   2023   2035     1   0.15375 251793.120000
   2026   2032     1   0.15375 251793.120000
   2029   2038     1   0.14316 258236.480000
   2032   4108     1   0.14316 258236.480000
   2035   4138     1   0.14316 258236.480000
   2040   2041     1   0.15110 237065.440000
   2040   2044     1   0.15110 237065.440000
   2040   2047     1   0.15110 237065.440000
   2041   2053     1   0.15375 251793.120000
   2044   2056     1   0.15375 251793.120000
   2047   2050     1   0.15375 251793.120000
   2050   2059     1   0.15375 251793.120000
   2053   2065     1   0.15375 251793.120000
   2056   2062     1   0.15375 251793.120000
   2059   2068     1   0.14316 258236.480000
   2062   4168     1   0.14316 258236.480000
   2065   4198     1   0.14316 258236.480000
   2070   2071     1   0.15110 237065.440000
   2070   2074     1   0.15110 237065.440000
   2070   2077     1   0.15110 237065.440000
   2071   2083     1   0.15375 251793.120000
   2074   2086     1   0.15375 251793.120000
   2077   2080     1   0.15375 251793.120000
   2080   2089     1   0.15375 251793.120000
   2083   2095     1   0.15375 251793.120000
   2086   2092     1   0.15375 251793.120000
   2089   2098     1   0.14316 258236.480000
   2092   4228     1   0.14316 258236.480000
   2095   4258     1   0.14316 258236.480000
   2100   2101     1   0.15110 237065.440000
   2100   2104     1   0.15110 237065.440000
   2100   2107     1   0.15110 237065.440000
   2101   2113     1   0.15375 251793.120000
   2104   2116     1   0.15375 251793.120000
   2107   2110     1   0.15375 251793.120000
   2110   2119     1   0.15375 251793.120000
   2113   2125     1   0.15375 251793.120000
   2116   2122     1   0.15375 251793.120000
   2119   2128     1   0.14316 258236.480000
   2122   4288     1   0.14316 258236.480000
   2125   4318     1   0.14316 258236.480000
   2130   2131     1   0.15110 237065.440000
   2130   2134     1   0.15110 237065.440000
   2130   2137     1   0.15110 237065.440000
   2131   2143     1   0.15375 251793.120000
   2134   2146     1   0.15375 251793.120000
   2137   2140     1   0.15375 251793.120000
   2140   2149     1   0.15375 251793.120000
   2143   2155     1   0.15375 251793.120000
   2146   2152     1   0.15375 251793.120000
   2149   2158     1   0.14316 258236.480000
   2152   4348     1   0.14316 258236.480000
   2155   4378     1   0.14316 258236.480000
   2160   2161     1   0.15110 237065.440000
   2160   2164     1   0.15110 237065.440000
   2160   2167     1   0.15110 237065.440000
   2161   2173     1   0.15375 251793.120000
   2164   2176     1   0.15375 251793.120000
   2167   2170     1   0.15375 251793.120000
   2170   2179     1   0.15375 251793.120000
   2173   2185     1   0.15375 251793.120000
   2176   2182     1   0.15375 251793.120000
   2179   2188     1   0.14316 258236.480000
   2182   4408     1   0.14316 258236.480000
   2185   4438     1   0.14316 258236.480000
   2190   2191     1   0.15110 237065.440000
   2190   2194     1   0.15110 237065.440000
   2190   2197     1   0.15110 237065.440000
   2191   2203     1   0.15375 251793.120000
   2194   2206     1   0.15375 251793.120000
   2197   2200     1   0.15375 251793.120000
   2200   2209     1   0.15375 251793.120000
   2203   2215     1   0.15375 251793.120000
   2206   2212     1   0.15375 251793.120000
   2209   2218     1   0.14316 258236.480000
   2212   4468     1   0.14316 258236.480000
   2215   4498     1   0.14316 258236.480000
   2220   2221     1   0.15110 237065.440000
   2220   2224     1   0.15110 237065.440000
   2220   2227     1   0.15110 237065.440000
   2221   2233     1   0.15375 251793.120000
   2224   2236     1   0.15375 251793.120000
   2227   2230     1   0.15375 251793.120000
   2230   2239     1   0.15375 251793.120000
   2233   2245     1   0.15375 251793.120000
   2236   2242     1   0.15375 251793.120000
   2239   2248     1   0.14316 258236.480000
   2242   4528     1   0.14316 258236.480000
   2245   4558     1   0.14316 258236.480000
   2250   2251     1   0.15110 237065.440000
   2250   2254     1   0.15110 237065.440000
   2250   2257     1   0.15110 237065.440000
   2251   2263     1   0.15375 251793.120000
   2254   2266     1   0.15375 251793.120000
   2257   2260     1   0.15375 251793.120000
   2260   2269     1   0.15375 251793.120000
   2263   2275     1   0.15375 251793.120000
   2266   2272     1   0.15375 251793.120000
   2269   2278     1   0.14316 258236.480000
   2272   4588     1   0.14316 258236.480000
   2275   4618     1   0.14316 258236.480000
   2280   2281     1   0.15110 237065.440000
   2280   2284     1   0.15110 237065.440000
   2280   2287     1   0.15110 237065.440000
   2281   2293     1   0.15375 251793.120000
   2284   2296     1   0.15375 251793.120000
   2287   2290     1   0.15375 251793.120000
   2290   2299     1   0.15375 251793.120000
   2293   2305     1   0.15375 251793.120000
   2296   2302     1   0.15375 251793.120000
   2299   2308     1   0.14316 258236.480000
   2302   4648     1   0.14316 258236.480000
   2305   4678     1   0.14316 258236.480000
   2310   2311     1   0.15110 237065.440000
   2310   2314     1   0.15110 237065.440000
   2310   2317     1   0.15110 237065.440000
   2311   2323     1   0.15375 251793.120000
   2314   2326     1   0.15375 251793.120000
   2317   2320     1   0.15375 251793.120000
   2320   2329     1   0.15375 251793.120000
   2323   2335     1   0.15375 251793.120000
   2326   2332     1   0.15375 251793.120000
   2329   2338     1   0.14316 258236.480000
   2332   4708     1   0.14316 258236.480000
   2335   4738     1   0.14316 258236.480000
   2340   2341     1   0.15110 237065.440000
   2340   2344     1   0.15110 237065.440000
   2340   2347     1   0.15110 237065.440000
   2341   2353     1   0.15375 251793.120000
   2344   2356     1   0.15375 251793.120000
   2347   2350     1   0.15375 251793.120000
   2350   2359     1   0.15375 251793.120000
   2353   2365     1   0.15375 251793.120000
   2356   2362     1   0.15375 251793.120000
   2359   2368     1   0.14316 258236.480000
   2362   4768     1   0.14316 258236.480000
   2365   4798     1   0.14316 258236.480000
   2370   2371     1   0.15110 237065.440000
   2370   2374     1   0.15110 237065.440000
   2370   2377     1   0.15110 237065.440000
   2371   2383     1   0.15375 251793.120000
   2374   2386     1   0.15375 251793.120000
   2377   2380     1   0.15375 251793.120000
   2380   2389     1   0.15375 251793.120000
   2383   2395     1   0.15375 251793.120000
   2386   2392     1   0.15375 251793.120000
   2389   2398     1   0.14316 258236.480000
   2392   4828     1   0.14316 258236.480000
   2395   4858     1   0.14316 258236.480000
   2400   2401     1   0.15110 237065.440000
   2400   2404     1   0.15110 237065.440000
   2400   2407     1   0.15110 237065.440000
   2401   2413     1   0.15375 251793.120000
   2404   2416     1   0.15375 251793.120000
   2407   2410     1   0.15375 251793.120000
   2410   2419     1   0.15375 251793.120000
   2413   2425     1   0.15375 251793.120000
   2416   2422     1   0.15375 251793.120000
   2419   2428     1   0.14316 258236.480000
   2422   4888     1   0.14316 258236.480000
   2425   4918     1   0.14316 258236.480000
   2430   2431     1   0.15110 237065.440000
   2430   2434     1   0.15110 237065.440000
   2430   2437     1   0.15110 237065.440000
   2431   2443     1   0.15375 251793.120000
   2434   2446     1   0.15375 251793.120000
   2437   2440     1   0.15375 251793.120000
   2440   2449     1   0.15375 251793.120000
   2443   2455     1   0.15375 251793.120000
   2446   2452     1   0.15375 251793.120000
   2449   2458     1   0.14316 258236.480000
   2452   4948     1   0.14316 258236.480000
   2455   4978     1   0.14316 258236.480000
   2460   2461     1   0.15110 237065.440000
   2460   2464     1   0.15110 237065.440000
   2460   2467     1   0.15110 237065.440000
   2461   2473     1   0.15375 251793.120000
   2464   2476     1   0.15375 251793.120000
   2467   2470     1   0.15375 251793.120000
   2470   2479     1   0.15375 251793.120000
   2473   2485     1   0.15375 251793.120000
   2476   2482     1   0.15375 251793.120000
   2479   2488     1   0.14316 258236.480000
   2482   5008     1   0.14316 258236.480000
   2485   5038     1   0.14316 258236.480000
   2490   2491     1   0.15110 237065.440000
   2490   2494     1   0.15110 237065.440000
   2490   2497     1   0.15110 237065.440000
   2491   2503     1   0.15375 251793.120000
   2494   2506     1   0.15375 251793.120000
   2497   2500     1   0.15375 251793.120000
   2500   2509     1   0.15375 251793.120000
   2503   2515     1   0.15375 251793.120000
   2506   2512     1   0.15375 251793.120000
   2509   2518     1   0.14316 258236.480000
   2512   5068     1   0.14316 258236.480000
   2515   5098     1   0.14316 258236.480000
   2520   2521     1   0.15110 237065.440000
   2520   2524     1   0.15110 237065.440000
   2520   2527     1   0.15110 237065.440000
   2521   2533     1   0.15375 251793.120000
   2524   2536     1   0.15375 251793.120000
   2527   2530     1   0.15375 251793.120000
   2530   2539     1   0.15375 251793.120000
   2533   2545     1   0.15375 251793.120000
   2536   2542     1   0.15375 251793.120000
   2539   2548     1   0.14316 258236.480000
   2542   5128     1   0.14316 258236.480000
   2545   5158     1   0.14316 258236.480000
   2550   2551     1   0.15110 237065.440000
   2550   2554     1   0.15110 237065.440000
   2550   2557     1   0.15110 237065.440000
   2551   2563     1   0.15375 251793.120000
   2554   2566     1   0.15375 251793.120000
   2557   2560     1   0.15375 251793.120000
   2560   2569     1   0.15375 251793.120000
   2563   2575     1   0.15375 251793.120000
   2566   2572     1   0.15375 251793.120000
   2569   2578     1   0.14316 258236.480000
   2572   5188     1   0.14316 258236.480000
   2575   5218     1   0.14316 258236.480000
   2580   2581     1   0.15110 237065.440000
   2580   2584     1   0.15110 237065.440000
   2580   2587     1   0.15110 237065.440000
   2581   2593     1   0.15375 251793.120000
   2584   2596     1   0.15375 251793.120000
   2587   2590     1   0.15375 251793.120000
   2590   2599     1   0.15375 251793.120000
   2593   2605     1   0.15375 251793.120000
   2596   2602     1   0.15375 251793.120000
   2599   2608     1   0.14316 258236.480000
   2602   5248     1   0.14316 258236.480000
   2605   5278     1   0.14316 258236.480000
   2610   2611     1   0.15110 237065.440000
   2610   2614     1   0.15110 237065.440000
   2610   2617     1   0.15110 237065.440000
   2611   2623     1   0.15375 251793.120000
   2614   2626     1   0.15375 251793.120000
   2617   2620     1   0.15375 251793.120000
   2620   2629     1   0.15375 251793.120000
   2623   2635     1   0.15375 251793.120000
   2626   2632     1   0.15375 251793.120000
   2629   2638     1   0.14316 258236.480000
   2632   5308     1   0.14316 258236.480000
   2635   5338     1   0.14316 258236.480000
   2640   2641     1   0.15110 237065.440000
   2640   2644     1   0.15110 237065.440000
   2640   2647     1   0.15110 237065.440000
   2641   2653     1   0.15375 251793.120000
   2644   2656     1   0.15375 251793.120000
   2647   2650     1   0.15375 251793.120000
   2650   2659     1   0.15375 251793.120000
   2653   2665     1   0.15375 251793.120000
   2656   2662     1   0.15375 251793.120000
   2659   2668     1   0.14316 258236.480000
   2662   5368     1   0.14316 258236.480000
   2665   5398     1   0.14316 258236.480000
   2670   2671     1   0.15110 237065.440000
   2670   2674     1   0.15110 237065.440000
   2670   2677     1   0.15110 237065.440000
   2671   2683     1   0.15375 251793.120000
   2674   2686     1   0.15375 251793.120000
   2677   2680     1   0.15375 251793.120000
   2680   2689     1   0.15375 251793.120000
   2683   2695     1   0.15375 251793.120000
   2686   2692     1   0.15375 251793.120000
   2689   2698     1   0.14316 258236.480000
   2692   5428     1   0.14316 258236.480000
   2695   5458     1   0.14316 258236.480000
   2700   2701     1   0.15110 237065.440000
   2700   2704     1   0.15110 237065.440000
   2700   2707     1   0.15110 237065.440000
   2701   2713     1   0.15375 251793.120000
   2704   2716     1   0.15375 251793.120000
   2707   2710     1   0.15375 251793.120000
   2710   2719     1   0.15375 251793.120000
   2713   2725     1   0.15375 251793.120000
   2716   2722     1   0.15375 251793.120000
   2719   2728     1   0.14316 258236.480000
   2722   5488     1   0.14316 258236.480000
   2725   5518     1   0.14316 258236.480000
   2730   2731     1   0.15110 237065.440000
   2730   2734     1   0.15110 237065.440000
   2730   2737     1   0.15110 237065.440000
   2731   2743     1   0.15375 251793.120000
   2734   2746     1   0.15375 251793.120000
   2737   2740     1   0.15375 251793.120000
   2740   2749     1   0.15375 251793.120000
   2743   2755     1   0.15375 251793.120000
   2746   2752     1   0.15375 251793.120000
   2749   2758     1   0.14316 258236.480000
   2752   5548     1   0.14316 258236.480000
   2755   5578     1   0.14316 258236.480000
   2760   2761     1   0.15110 237065.440000
   2760   2764     1   0.15110 237065.440000
   2760   2767     1   0.15110 237065.440000
   2761   2773     1   0.15375 251793.120000
   2764   2776     1   0.15375 251793.120000
   2767   2770     1   0.15375 251793.120000
   2770   2779     1   0.15375 251793.120000
   2773   2785     1   0.15375 251793.120000
   2776   2782     1   0.15375 251793.120000
   2779   2788     1   0.14316 258236.480000
   2782   5608     1   0.14316 258236.480000
   2785   5638     1   0.14316 258236.480000
   2790   2791     1   0.15110 237065.440000
   2790   2794     1   0.15110 237065.440000
   2790   2797     1   0.15110 237065.440000
   2791   2803     1   0.15375 251793.120000
   2794   2806     1   0.15375 251793.120000
   2797   2800     1   0.15375 251793.120000
   2800   2809     1   0.15375 251793.120000
   2803   2815     1   0.15375 251793.120000
   2806   2812     1   0.15375 251793.120000
   2809   2818     1   0.14316 258236.480000
   2812   5668     1   0.14316 258236.480000
   2815   5698     1   0.14316 258236.480000
   2820   2821     1   0.15110 237065.440000
   2820   2824     1   0.15110 237065.440000
   2820   2827     1   0.15110 237065.440000
   2821   2833     1   0.15375 251793.120000
   2824   2836     1   0.15375 251793.120000
   2827   2830     1   0.15375 251793.120000
   2830   2839     1   0.15375 251793.120000
   2833   2845     1   0.15375 251793.120000
   2836   2842     1   0.15375 251793.120000
   2839   2848     1   0.14316 258236.480000
   2842   5710     1   0.14316 258236.480000
   2845   5733     1   0.14316 258236.480000
   2850   2851     1   0.15110 237065.440000
   2850   2854     1   0.15110 237065.440000
   2850   2857     1   0.15110 237065.440000
   2851   2863     1   0.15375 251793.120000
   2854   2866     1   0.15375 251793.120000
   2857   2860     1   0.15375 251793.120000
   2860   2869     1   0.15375 251793.120000
   2863   2875     1   0.15375 251793.120000
   2866   2872     1   0.15375 251793.120000
   2869   2878     1   0.14316 258236.480000
   2872   5756     1   0.14316 258236.480000
   2875   5779     1   0.14316 258236.480000
   2880   2881     1   0.15110 237065.440000
   2880   2884     1   0.15110 237065.440000
   2880   2887     1   0.15110 237065.440000
   2881   2893     1   0.15375 251793.120000
   2884   2896     1   0.15375 251793.120000
   2887   2890     1   0.15375 251793.120000
   2890   2899     1   0.15375 251793.120000
   2893   2905     1   0.15375 251793.120000
   2896   2902     1   0.15375 251793.120000
   2899   2908     1   0.14316 258236.480000
   2902   5802     1   0.14316 258236.480000
   2905   5825     1   0.14316 258236.480000
   2910   2911     1   0.15110 237065.440000
   2910   2914     1   0.15110 237065.440000
   2910   2917     1   0.15110 237065.440000
   2911   2923     1   0.15375 251793.120000
   2914   2926     1   0.15375 251793.120000
   2917   2920     1   0.15375 251793.120000
   2920   2929     1   0.15375 251793.120000
   2923   2935     1   0.15375 251793.120000
   2926   2932     1   0.15375 251793.120000
   2929   2938     1   0.14316 258236.480000
   2932   5848     1   0.14316 258236.480000
   2935   5871     1   0.14316 258236.480000
   2940   2941     1   0.15110 237065.440000
   2940   2944     1   0.15110 237065.440000
   2940   2947     1   0.15110 237065.440000
   2941   2953     1   0.15375 251793.120000
   2944   2956     1   0.15375 251793.120000
   2947   2950     1   0.15375 251793.120000
   2950   2959     1   0.15375 251793.120000
   2953   2965     1   0.15375 251793.120000
   2956   2962     1   0.15375 251793.120000
   2959   2968     1   0.14316 258236.480000
   2962   5894     1   0.14316 258236.480000
   2965   5917     1   0.14316 258236.480000
   2970   2971     1   0.15110 237065.440000
   2970   2974     1   0.15110 237065.440000
   2970   2977     1   0.15110 237065.440000
   2971   2983     1   0.15375 251793.120000
   2974   2986     1   0.15375 251793.120000
   2977   2980     1   0.15375 251793.120000
   2980   2989     1   0.15375 251793.120000
   2983   2995     1   0.15375 251793.120000
   2986   2992     1   0.15375 251793.120000
   2989   2998     1   0.14316 258236.480000
   2992   5940     1   0.14316 258236.480000
   2995   5963     1   0.14316 258236.480000
   3000   3001     1   0.15110 237065.440000
   3000   3004     1   0.15110 237065.440000
   3000   3007     1   0.15110 237065.440000
   3001   3013     1   0.15375 251793.120000
   3004   3016     1   0.15375 251793.120000
   3007   3010     1   0.15375 251793.120000
   3010   3019     1   0.15375 251793.120000
   3013   3025     1   0.15375 251793.120000
   3016   3022     1   0.15375 251793.120000
   3019   3028     1   0.14316 258236.480000
   3022   5986     1   0.14316 258236.480000
   3025   6009     1   0.14316 258236.480000
   3030   3031     1   0.15110 237065.440000
   3030   3034     1   0.15110 237065.440000
   3030   3037     1   0.15110 237065.440000
   3031   3043     1   0.15375 251793.120000
   3034   3046     1   0.15375 251793.120000
   3037   3040     1   0.15375 251793.120000
   3040   3049     1   0.15375 251793.120000
   3043   3055     1   0.15375 251793.120000
   3046   3052     1   0.15375 251793.120000
   3049   3058     1   0.14316 258236.480000
   3052   6032     1   0.14316 258236.480000
   3055   6055     1   0.14316 258236.480000
   3060   3061     1   0.15110 237065.440000
   3060   3064     1   0.15110 237065.440000
   3060   3067     1   0.15110 237065.440000
   3061   3073     1   0.15375 251793.120000
   3064   3076     1   0.15375 251793.120000
   3067   3070     1   0.15375 251793.120000
   3070   3079     1   0.15375 251793.120000
   3073   3085     1   0.15375 251793.120000
   3076   3082     1   0.15375 251793.120000
   3079   3088     1   0.14316 258236.480000
   3082   6078     1   0.14316 258236.480000
   3085   6101     1   0.14316 258236.480000
   3090   3091     1   0.15110 237065.440000
   3090   3094     1   0.15110 237065.440000
   3090   3097     1   0.15110 237065.440000
   3091   3103     1   0.15375 251793.120000
   3094   3106     1   0.15375 251793.120000
   3097   3100     1   0.15375 251793.120000
   3100   3109     1   0.15375 251793.120000
   3103   3115     1   0.15375 251793.120000
   3106   3112     1   0.15375 251793.120000
   3109   3118     1   0.14316 258236.480000
   3112   6124     1   0.14316 258236.480000
   3115   6147     1   0.14316 258236.480000
   3120   3121     1   0.15110 237065.440000
   3120   3124     1   0.15110 237065.440000
   3120   3127     1   0.15110 237065.440000
   3121   3133     1   0.15375 251793.120000
   3124   3136     1   0.15375 251793.120000
   3127   3130     1   0.15375 251793.120000
   3130   3139     1   0.15375 251793.120000
   3133   3145     1   0.15375 251793.120000
   3136   3142     1   0.15375 251793.120000
   3139   3148     1   0.14316 258236.480000
   3142   6170     1   0.14316 258236.480000
   3145   6193     1   0.14316 258236.480000
   3150   3151     1   0.15110 237065.440000
   3150   3154     1   0.15110 237065.440000
   3150   3157     1   0.15110 237065.440000
   3151   3163     1   0.15375 251793.120000
   3154   3166     1   0.15375 251793.120000
   3157   3160     1   0.15375 251793.120000
   3160   3169     1   0.15375 251793.120000
   3163   3175     1   0.15375 251793.120000
   3166   3172     1   0.15375 251793.120000
   3169   3178     1   0.14316 258236.480000
   3172   6216     1   0.14316 258236.480000
   3175   6239     1   0.14316 258236.480000
   3180   3181     1   0.15110 237065.440000
   3180   3184     1   0.15110 237065.440000
   3180   3187     1   0.15110 237065.440000
   3181   3193     1   0.15375 251793.120000
   3184   3196     1   0.15375 251793.120000
   3187   3190     1   0.15375 251793.120000
   3190   3199     1   0.15375 251793.120000
   3193   3205     1   0.15375 251793.120000
   3196   3202     1   0.15375 251793.120000
   3199   3208     1   0.14316 258236.480000
   3202   6262     1   0.14316 258236.480000
   3205   6285     1   0.14316 258236.480000
   3210   3211     1   0.15110 237065.440000
   3210   3214     1   0.15110 237065.440000
   3210   3217     1   0.15110 237065.440000
   3211   3223     1   0.15375 251793.120000
   3214   3226     1   0.15375 251793.120000
   3217   3220     1   0.15375 251793.120000
   3220   3229     1   0.15375 251793.120000
   3223   3235     1   0.15375 251793.120000
   3226   3232     1   0.15375 251793.120000
   3229   3238     1   0.14316 258236.480000
   3232   6308     1   0.14316 258236.480000
   3235   6331     1   0.14316 258236.480000
   3240   3241     1   0.15110 237065.440000
   3240   3244     1   0.15110 237065.440000
   3240   3247     1   0.15110 237065.440000
   3241   3253     1   0.15375 251793.120000
   3244   3256     1   0.15375 251793.120000
   3247   3250     1   0.15375 251793.120000
   3250   3259     1   0.15375 251793.120000
   3253   3265     1   0.15375 251793.120000
   3256   3262     1   0.15375 251793.120000
   3259   3268     1   0.14316 258236.480000
   3262   6354     1   0.14316 258236.480000
   3265   6377     1   0.14316 258236.480000
   3270   3271     1   0.15110 237065.440000
   3270   3274     1   0.15110 237065.440000
   3270   3277     1   0.15110 237065.440000
   3271   3283     1   0.15375 251793.120000
   3274   3286     1   0.15375 251793.120000
   3277   3280     1   0.15375 251793.120000
   3280   3289     1   0.15375 251793.120000
   3283   3295     1   0.15375 251793.120000
   3286   3292     1   0.15375 251793.120000
   3289   3298     1   0.14316 258236.480000
   3292   6400     1   0.14316 258236.480000
   3295   6423     1   0.14316 258236.480000
   3300   3301     1   0.15110 237065.440000
   3300   3304     1   0.15110 237065.440000
   3300   3307     1   0.15110 237065.440000
   3301   3313     1   0.15375 251793.120000
   3304   3316     1   0.15375 251793.120000
   3307   3310     1   0.15375 251793.120000
   3310   3319     1   0.15375 251793.120000
   3313   3325     1   0.15375 251793.120000
   3316   3322     1   0.15375 251793.120000
   3319   3328     1   0.14316 258236.480000
   3322   6446     1   0.14316 258236.480000
   3325   6469     1   0.14316 258236.480000
   3330   3331     1   0.15110 237065.440000
   3330   3334     1   0.15110 237065.440000
   3330   3337     1   0.15110 237065.440000
   3331   3343     1   0.15375 251793.120000
   3334   3346     1   0.15375 251793.120000
   3337   3340     1   0.15375 251793.120000
   3340   3349     1   0.15375 251793.120000
   3343   3355     1   0.15375 251793.120000
   3346   3352     1   0.15375 251793.120000
   3349   3358     1   0.14316 258236.480000
   3352   6492     1   0.14316 258236.480000
   3355   6515     1   0.14316 258236.480000
   3360   3361     1   0.15110 237065.440000
   3360   3364     1   0.15110 237065.440000
   3360   3367     1   0.15110 237065.440000
   3361   3373     1   0.15375 251793.120000
   3364   3376     1   0.15375 251793.120000
   3367   3370     1   0.15375 251793.120000
   3370   3379     1   0.15375 251793.120000
   3373   3385     1   0.15375 251793.120000
   3376   3382     1   0.15375 251793.120000
   3379   3388     1   0.14316 258236.480000
   3382   6538     1   0.14316 258236.480000
   3385   6561     1   0.14316 258236.480000
   3390   3391     1   0.15110 237065.440000
   3390   3394     1   0.15110 237065.440000
   3390   3397     1   0.15110 237065.440000
   3391   3403     1   0.15375 251793.120000
   3394   3406     1   0.15375 251793.120000
   3397   3400     1   0.15375 251793.120000
   3400   3409     1   0.15375 251793.120000
   3403   3415     1   0.15375 251793.120000
   3406   3412     1   0.15375 251793.120000
   3409   3418     1   0.14316 258236.480000
   3412   6584     1   0.14316 258236.480000
   3415   6607     1   0.14316 258236.480000
   3420   3421     1   0.15110 237065.440000
   3420   3424     1   0.15110 237065.440000
   3420   3427     1   0.15110 237065.440000
   3421   3433     1   0.15375 251793.120000
   3424   3436     1   0.15375 251793.120000
   3427   3430     1   0.15375 251793.120000
   3430   3439     1   0.15375 251793.120000
   3433   3445     1   0.15375 251793.120000
   3436   3442     1   0.15375 251793.120000
   3439   3448     1   0.14316 258236.480000
   3442   6630     1   0.14316 258236.480000
   3445   6653     1   0.14316 258236.480000
   3450   3451     1   0.15110 237065.440000
   3450   3454     1   0.15110 237065.440000
   3450   3457     1   0.15110 237065.440000
   3451   3463     1   0.15375 251793.120000
   3454   3466     1   0.15375 251793.120000
   3457   3460     1   0.15375 251793.120000
   3460   3469     1   0.15375 251793.120000
   3463   3475     1   0.15375 251793.120000
   3466   3472     1   0.15375 251793.120000
   3469   3478     1   0.14316 258236.480000
   3472   6676     1   0.14316 258236.480000
   3475   6699     1   0.14316 258236.480000
   3480   3481     1   0.15110 237065.440000
   3480   3484     1   0.15110 237065.440000
   3480   3487     1   0.15110 237065.440000
   3481   3493     1   0.15375 251793.120000
   3484   3496     1   0.15375 251793.120000
   3487   3490     1   0.15375 251793.120000
   3490   3499     1   0.15375 251793.120000
   3493   3505     1   0.15375 251793.120000
   3496   3502     1   0.15375 251793.120000
   3499   3508     1   0.14316 258236.480000
   3502   6722     1   0.14316 258236.480000
   3505   6745     1   0.14316 258236.480000
   3510   3511     1   0.15110 237065.440000
   3510   3514     1   0.15110 237065.440000
   3510   3517     1   0.15110 237065.440000
   3511   3523     1   0.15375 251793.120000
   3514   3526     1   0.15375 251793.120000
   3517   3520     1   0.15375 251793.120000
   3520   3529     1   0.15375 251793.120000
   3523   3535     1   0.15375 251793.120000
   3526   3532     1   0.15375 251793.120000
   3529   3538     1   0.14316 258236.480000
   3532   6768     1   0.14316 258236.480000
   3535   6791     1   0.14316 258236.480000
   3540   3541     1   0.15110 237065.440000
   3540   3544     1   0.15110 237065.440000
   3540   3547     1   0.15110 237065.440000
   3541   3553     1   0.15375 251793.120000
   3544   3556     1   0.15375 251793.120000
   3547   3550     1   0.15375 251793.120000
   3550   3559     1   0.15375 251793.120000
   3553   3565     1   0.15375 251793.120000
   3556   3562     1   0.15375 251793.120000
   3559   3568     1   0.14316 258236.480000
   3562   6814     1   0.14316 258236.480000
   3565   6837     1   0.14316 258236.480000
   3570   3571     1   0.15110 237065.440000
   3570   3574     1   0.15110 237065.440000
   3570   3577     1   0.15110 237065.440000
   3571   3583     1   0.15375 251793.120000
   3574   3586     1   0.15375 251793.120000
   3577   3580     1   0.15375 251793.120000
   3580   3589     1   0.15375 251793.120000
   3583   3595     1   0.15375 251793.120000
   3586   3592     1   0.15375 251793.120000
   3589   3598     1   0.14316 258236.480000
   3592   6860     1   0.14316 258236.480000
   3595   6883     1   0.14316 258236.480000
   3600   3601     1   0.15110 237065.440000
   3600   3604     1   0.15110 237065.440000
   3600   3607     1   0.15110 237065.440000
   3601   3613     1   0.15375 251793.120000
   3604   3616     1   0.15375 251793.120000
   3607   3610     1   0.15375 251793.120000
   3610   3619     1   0.15375 251793.120000
   3613   3625     1   0.15375 251793.120000
   3616   3622     1   0.15375 251793.120000
   3619   3628     1   0.14316 258236.480000
   3622   6906     1   0.14316 258236.480000
   3625   6929     1   0.14316 258236.480000
   3630   3631     1   0.15110 237065.440000
   3630   3634     1   0.15110 237065.440000
   3630   3637     1   0.15110 237065.440000
   3631   3643     1   0.15375 251793.120000
   3634   3646     1   0.15375 251793.120000
   3637   3640     1   0.15375 251793.120000
   3640   3649     1   0.15375 251793.120000
   3643   3655     1   0.15375 251793.120000
   3646   3652     1   0.15375 251793.120000
   3649   3658     1   0.14316 258236.480000
   3652   6952     1   0.14316 258236.480000
   3655   6975     1   0.14316 258236.480000
   3660   3661     1   0.15110 237065.440000
   3660   3664     1   0.15110 237065.440000
   3660   3667     1   0.15110 237065.440000
   3661   3673     1   0.15375 251793.120000
   3664   3676     1   0.15375 251793.120000
   3667   3670     1   0.15375 251793.120000
   3670   3679     1   0.15375 251793.120000
   3673   3685     1   0.15375 251793.120000
   3676   3682     1   0.15375 251793.120000
   3679   3688     1   0.14316 258236.480000
   3682   6998     1   0.14316 258236.480000
   3685   7021     1   0.14316 258236.480000
   3690   3691     1   0.15110 237065.440000
   3690   3694     1   0.15110 237065.440000
   3690   3697     1   0.15110 237065.440000
   3691   3703     1   0.15375 251793.120000
   3694   3706     1   0.15375 251793.120000
   3697   3700     1   0.15375 251793.120000
   3700   3709     1   0.15375 251793.120000
   3703   3715     1   0.15375 251793.120000
   3706   3712     1   0.15375 251793.120000
   3709   3718     1   0.14316 258236.480000
   3712   7044     1   0.14316 258236.480000
   3715   7067     1   0.14316 258236.480000
   3720   3721     1   0.15110 237065.440000
   3720   3724     1   0.15110 237065.440000
   3720   3727     1   0.15110 237065.440000
   3721   3733     1   0.15375 251793.120000
   3724   3736     1   0.15375 251793.120000
   3727   3730     1   0.15375 251793.120000
   3730   3739     1   0.15375 251793.120000
   3733   3745     1   0.15375 251793.120000
   3736   3742     1   0.15375 251793.120000
   3739   3748     1   0.14316 258236.480000
   3742   7090     1   0.14316 258236.480000
   3745   7113     1   0.14316 258236.480000
   3750   3751     1   0.15110 237065.440000
   3750   3754     1   0.15110 237065.440000
   3750   3757     1   0.15110 237065.440000
   3751   3763     1   0.15375 251793.120000
   3754   3766     1   0.15375 251793.120000
   3757   3760     1   0.15375 251793.120000
   3760   3769     1   0.15375 251793.120000
   3763   3775     1   0.15375 251793.120000
   3766   3772     1   0.15375 251793.120000
   3769   3778     1   0.14316 258236.480000
   3772   7136     1   0.14316 258236.480000
   3775   7159     1   0.14316 258236.480000
   3780   3781     1   0.15110 237065.440000
   3780   3784     1   0.15110 237065.440000
   3780   3787     1   0.15110 237065.440000
   3781   3793     1   0.15375 251793.120000
   3784   3796     1   0.15375 251793.120000
   3787   3790     1   0.15375 251793.120000
   3790   3799     1   0.15375 251793.120000
   3793   3805     1   0.15375 251793.120000
   3796   3802     1   0.15375 251793.120000
   3799   3808     1   0.14316 258236.480000
   3802   7182     1   0.14316 258236.480000
   3805   7205     1   0.14316 258236.480000
   3810   3811     1   0.15110 237065.440000
   3810   3814     1   0.15110 237065.440000
   3810   3817     1   0.15110 237065.440000
   3811   3823     1   0.15375 251793.120000
   3814   3826     1   0.15375 251793.120000
   3817   3820     1   0.15375 251793.120000
   3820   3829     1   0.15375 251793.120000
   3823   3835     1   0.15375 251793.120000
   3826   3832     1   0.15375 251793.120000
   3829   3838     1   0.14316 258236.480000
   3832   7228     1   0.14316 258236.480000
   3835   7251     1   0.14316 258236.480000
   3840   3841     1   0.15110 237065.440000
   3840   3844     1   0.15110 237065.440000
   3840   3847     1   0.15110 237065.440000
   3841   3853     1   0.15375 251793.120000
   3844   3856     1   0.15375 251793.120000
   3847   3850     1   0.15375 251793.120000
   3850   3859     1   0.15375 251793.120000
   3853   3865     1   0.15375 251793.120000
   3856   3862     1   0.15375 251793.120000
   3859   3868     1   0.14316 258236.480000
   3862   7274     1   0.14316 258236.480000
   3865   7297     1   0.14316 258236.480000
   3870   3871     1   0.15110 237065.440000
   3870   3874     1   0.15110 237065.440000
   3870   3877     1   0.15110 237065.440000
   3871   3883     1   0.15375 251793.120000
   3874   3886     1   0.15375 251793.120000
   3877   3880     1   0.15375 251793.120000
   3880   3889     1   0.15375 251793.120000
   3883   3895     1   0.15375 251793.120000
   3886   3892     1   0.15375 251793.120000
   3889   3898     1   0.14316 258236.480000
   3892   7320     1   0.14316 258236.480000
   3895   7343     1   0.14316 258236.480000
   3900   3901     1   0.15110 237065.440000
   3900   3904     1   0.15110 237065.440000
   3900   3907     1   0.15110 237065.440000
   3901   3913     1   0.15375 251793.120000
   3904   3916     1   0.15375 251793.120000
   3907   3910     1   0.15375 251793.120000
   3910   3919     1   0.15375 251793.120000
   3913   3925     1   0.15375 251793.120000
   3916   3922     1   0.15375 251793.120000
   3919   3928     1   0.14316 258236.480000
   3922   7366     1   0.14316 258236.480000
   3925   7389     1   0.14316 258236.480000
   3930   3931     1   0.15110 237065.440000
   3930   3934     1   0.15110 237065.440000
   3930   3937     1   0.15110 237065.440000
   3931   3943     1   0.15375 251793.120000
   3934   3946     1   0.15375 251793.120000
   3937   3940     1   0.15375 251793.120000
   3940   3949     1   0.15375 251793.120000
   3943   3955     1   0.15375 251793.120000
   3946   3952     1   0.15375 251793.120000
   3949   3958     1   0.14316 258236.480000
   3952   7412     1   0.14316 258236.480000
   3955   7435     1   0.14316 258236.480000
   3960   3961     1   0.15110 237065.440000
   3960   3964     1   0.15110 237065.440000
   3960   3967     1   0.15110 237065.440000
   3961   3973     1   0.15375 251793.120000
   3964   3976     1   0.15375 251793.120000
   3967   3970     1   0.15375 251793.120000
   3970   3979     1   0.15375 251793.120000
   3973   3985     1   0.15375 251793.120000
   3976   3982     1   0.15375 251793.120000
   3979   3988     1   0.14316 258236.480000
   3982   7458     1   0.14316 258236.480000
   3985   7481     1   0.14316 258236.480000
   3990   3991     1   0.15110 237065.440000
   3990   3994     1   0.15110 237065.440000
   3990   3997     1   0.15110 237065.440000
   3991   4003     1   0.15375 251793.120000
   3994   4006     1   0.15375 251793.120000
   3997   4000     1   0.15375 251793.120000
   4000   4009     1   0.15375 251793.120000
   4003   4015     1   0.15375 251793.120000
   4006   4012     1   0.15375 251793.120000
   4009   4018     1   0.14316 258236.480000
   4012   7504     1   0.14316 258236.480000
   4015   7527     1   0.14316 258236.480000
   4020   4021     1   0.15110 237065.440000
   4020   4024     1   0.15110 237065.440000
   4020   4027     1   0.15110 237065.440000
   4021   4033     1   0.15375 251793.120000
   4024   4036     1   0.15375 251793.120000
   4027   4030     1   0.15375 251793.120000
   4030   4039     1   0.15375 251793.120000
   4033   4045     1   0.15375 251793.120000
   4036   4042     1   0.15375 251793.120000
   4039   4048     1   0.14316 258236.480000
   4042   7550     1   0.14316 258236.480000
   4045   7573     1   0.14316 258236.480000
   4050   4051     1   0.15110 237065.440000
   4050   4054     1   0.15110 237065.440000
   4050   4057     1   0.15110 237065.440000
   4051   4063     1   0.15375 251793.120000
   4054   4066     1   0.15375 251793.120000
   4057   4060     1   0.15375 251793.120000
   4060   4069     1   0.15375 251793.120000
   4063   4075     1   0.15375 251793.120000
   4066   4072     1   0.15375 251793.120000
   4069   4078     1   0.14316 258236.480000
   4072   7596     1   0.14316 258236.480000
   4075   7619     1   0.14316 258236.480000
   4080   4081     1   0.15110 237065.440000
   4080   4084     1   0.15110 237065.440000
   4080   4087     1   0.15110 237065.440000
   4081   4093     1   0.15375 251793.120000
   4084   4096     1   0.15375 251793.120000
   4087   4090     1   0.15375 251793.120000
   4090   4099     1   0.15375 251793.120000
   4093   4105     1   0.15375 251793.120000
   4096   4102     1   0.15375 251793.120000
   4099   4108     1   0.14316 258236.480000
   4102   7642     1   0.14316 258236.480000
   4105   7665     1   0.14316 258236.480000
   4110   4111     1   0.15110 237065.440000
   4110   4114     1   0.15110 237065.440000
   4110   4117     1   0.15110 237065.440000
   4111   4123     1   0.15375 251793.120000
   4114   4126     1   0.15375 251793.120000
   4117   4120     1   0.15375 251793.120000
   4120   4129     1   0.15375 251793.120000
   4123   4135     1   0.15375 251793.120000
   4126   4132     1   0.15375 251793.120000
   4129   4138     1   0.14316 258236.480000
   4132   7688     1   0.14316 258236.480000
   4135   7711     1   0.14316 258236.480000
   4140   4141     1   0.15110 237065.440000
   4140   4144     1   0.15110 237065.440000
   4140   4147     1   0.15110 237065.440000
   4141   4153     1   0.15375 251793.120000
   4144   4156     1   0.15375 251793.120000
   4147   4150     1   0.15375 251793.120000
   4150   4159     1   0.15375 251793.120000
   4153   4165     1   0.15375 251793.120000
   4156   4162     1   0.15375 251793.120000
   4159   4168     1   0.14316 258236.480000
   4162   7734     1   0.14316 258236.480000
   4165   7757     1   0.14316 258236.480000
   4170   4171     1   0.15110 237065.440000
   4170   4174     1   0.15110 237065.440000
   4170   4177     1   0.15110 237065.440000
   4171   4183     1   0.15375 251793.120000
   4174   4186     1   0.15375 251793.120000
   4177   4180     1   0.15375 251793.120000
   4180   4189     1   0.15375 251793.120000
   4183   4195     1   0.15375 251793.120000
   4186   4192     1   0.15375 251793.120000
   4189   4198     1   0.14316 258236.480000
   4192   7780     1   0.14316 258236.480000
   4195   7803     1   0.14316 258236.480000
   4200   4201     1   0.15110 237065.440000
   4200   4204     1   0.15110 237065.440000
   4200   4207     1   0.15110 237065.440000
   4201   4213     1   0.15375 251793.120000
   4204   4216     1   0.15375 251793.120000
   4207   4210     1   0.15375 251793.120000
   4210   4219     1   0.15375 251793.120000
   4213   4225     1   0.15375 251793.120000
   4216   4222     1   0.15375 251793.120000
   4219   4228     1   0.14316 258236.480000
   4222   7826     1   0.14316 258236.480000
   4225   7849     1   0.14316 258236.480000
   4230   4231     1   0.15110 237065.440000
   4230   4234     1   0.15110 237065.440000
   4230   4237     1   0.15110 237065.440000
   4231   4243     1   0.15375 251793.120000
   4234   4246     1   0.15375 251793.120000
   4237   4240     1   0.15375 251793.120000
   4240   4249     1   0.15375 251793.120000
   4243   4255     1   0.15375 251793.120000
   4246   4252     1   0.15375 251793.120000
   4249   4258     1   0.14316 258236.480000
   4252   7872     1   0.14316 258236.480000
   4255   7895     1   0.14316 258236.480000
   4260   4261     1   0.15110 237065.440000
   4260   4264     1   0.15110 237065.440000
   4260   4267     1   0.15110 237065.440000
   4261   4273     1   0.15375 251793.120000
   4264   4276     1   0.15375 251793.120000
   4267   4270     1   0.15375 251793.120000
   4270   4279     1   0.15375 251793.120000
   4273   4285     1   0.15375 251793.120000
   4276   4282     1   0.15375 251793.120000
   4279   4288     1   0.14316 258236.480000
   4282   7918     1   0.14316 258236.480000
   4285   7941     1   0.14316 258236.480000
   4290   4291     1   0.15110 237065.440000
   4290   4294     1   0.15110 237065.440000
   4290   4297     1   0.15110 237065.440000
   4291   4303     1   0.15375 251793.120000
   4294   4306     1   0.15375 251793.120000
   4297   4300     1   0.15375 251793.120000
   4300   4309     1   0.15375 251793.120000
   4303   4315     1   0.15375 251793.120000
   4306   4312     1   0.15375 251793.120000
   4309   4318     1   0.14316 258236.480000
   4312   7964     1   0.14316 258236.480000
   4315   7987     1   0.14316 258236.480000
   4320   4321     1   0.15110 237065.440000
   4320   4324     1   0.15110 237065.440000
   4320   4327     1   0.15110 237065.440000
   4321   4333     1   0.15375 251793.120000
   4324   4336     1   0.15375 251793.120000
   4327   4330     1   0.15375 251793.120000
   4330   4339     1   0.15375 251793.120000
   4333   4345     1   0.15375 251793.120000
   4336   4342     1   0.15375 251793.120000
   4339   4348     1   0.14316 258236.480000
   4342   8010     1   0.14316 258236.480000
   4345   8033     1   0.14316 258236.480000
   4350   4351     1   0.15110 237065.440000
   4350   4354     1   0.15110 237065.440000
   4350   4357     1   0.15110 237065.440000
   4351   4363     1   0.15375 251793.120000
   4354   4366     1   0.15375 251793.120000
   4357   4360     1   0.15375 251793.120000
   4360   4369     1   0.15375 251793.120000
   4363   4375     1   0.15375 251793.120000
   4366   4372     1   0.15375 251793.120000
   4369   4378     1   0.14316 258236.480000
   4372   8056     1   0.14316 258236.480000
   4375   8079     1   0.14316 258236.480000
   4380   4381     1   0.15110 237065.440000
   4380   4384     1   0.15110 237065.440000
   4380   4387     1   0.15110 237065.440000
   4381   4393     1   0.15375 251793.120000
   4384   4396     1   0.15375 251793.120000
   4387   4390     1   0.15375 251793.120000
   4390   4399     1   0.15375 251793.120000
   4393   4405     1   0.15375 251793.120000
   4396   4402     1   0.15375 251793.120000
   4399   4408     1   0.14316 258236.480000
   4402   8102     1   0.14316 258236.480000
   4405   8125     1   0.14316 258236.480000
   4410   4411     1   0.15110 237065.440000
   4410   4414     1   0.15110 237065.440000
   4410   4417     1   0.15110 237065.440000
   4411   4423     1   0.15375 251793.120000
   4414   4426     1   0.15375 251793.120000
   4417   4420     1   0.15375 251793.120000
   4420   4429     1   0.15375 251793.120000
   4423   4435     1   0.15375 251793.120000
   4426   4432     1   0.15375 251793.120000
   4429   4438     1   0.14316 258236.480000
   4432   8148     1   0.14316 258236.480000
   4435   8171     1   0.14316 258236.480000
   4440   4441     1   0.15110 237065.440000
   4440   4444     1   0.15110 237065.440000
   4440   4447     1   0.15110 237065.440000
   4441   4453     1   0.15375 251793.120000
   4444   4456     1   0.15375 251793.120000
   4447   4450     1   0.15375 251793.120000
   4450   4459     1   0.15375 251793.120000
   4453   4465     1   0.15375 251793.120000
   4456   4462     1   0.15375 251793.120000
   4459   4468     1   0.14316 258236.480000
   4462   8194     1   0.14316 258236.480000
   4465   8217     1   0.14316 258236.480000
   4470   4471     1   0.15110 237065.440000
   4470   4474     1   0.15110 237065.440000
   4470   4477     1   0.15110 237065.440000
   4471   4483     1   0.15375 251793.120000
   4474   4486     1   0.15375 251793.120000
   4477   4480     1   0.15375 251793.120000
   4480   4489     1   0.15375 251793.120000
   4483   4495     1   0.15375 251793.120000
   4486   4492     1   0.15375 251793.120000
   4489   4498     1   0.14316 258236.480000
   4492   8240     1   0.14316 258236.480000
   4495   8263     1   0.14316 258236.480000
   4500   4501     1   0.15110 237065.440000
   4500   4504     1   0.15110 237065.440000
   4500   4507     1   0.15110 237065.440000
   4501   4513     1   0.15375 251793.120000
   4504   4516     1   0.15375 251793.120000
   4507   4510     1   0.15375 251793.120000
   4510   4519     1   0.15375 251793.120000
   4513   4525     1   0.15375 251793.120000
   4516   4522     1   0.15375 251793.120000
   4519   4528     1   0.14316 258236.480000
   4522   8286     1   0.14316 258236.480000
   4525   8309     1   0.14316 258236.480000
   4530   4531     1   0.15110 237065.440000
   4530   4534     1   0.15110 237065.440000
   4530   4537     1   0.15110 237065.440000
   4531   4543     1   0.15375 251793.120000
   4534   4546     1   0.15375 251793.120000
   4537   4540     1   0.15375 251793.120000
   4540   4549     1   0.15375 251793.120000
   4543   4555     1   0.15375 251793.120000
   4546   4552     1   0.15375 251793.120000
   4549   4558     1   0.14316 258236.480000
   4552   8332     1   0.14316 258236.480000
   4555   8355     1   0.14316 258236.480000
   4560   4561     1   0.15110 237065.440000
   4560   4564     1   0.15110 237065.440000
   4560   4567     1   0.15110 237065.440000
   4561   4573     1   0.15375 251793.120000
   4564   4576     1   0.15375 251793.120000
   4567   4570     1   0.15375 251793.120000
   4570   4579     1   0.15375 251793.120000
   4573   4585     1   0.15375 251793.120000
   4576   4582     1   0.15375 251793.120000
   4579   4588     1   0.14316 258236.480000
   4582   8378     1   0.14316 258236.480000
   4585   8401     1   0.14316 258236.480000
   4590   4591     1   0.15110 237065.440000
   4590   4594     1   0.15110 237065.440000
   4590   4597     1   0.15110 237065.440000
   4591   4603     1   0.15375 251793.120000
   4594   4606     1   0.15375 251793.120000
   4597   4600     1   0.15375 251793.120000
   4600   4609     1   0.15375 251793.120000
   4603   4615     1   0.15375 251793.120000
   4606   4612     1   0.15375 251793.120000
   4609   4618     1   0.14316 258236.480000
   4612   8424     1   0.14316 258236.480000
   4615   8447     1   0.14316 258236.480000
   4620   4621     1   0.15110 237065.440000
   4620   4624     1   0.15110 237065.440000
   4620   4627     1   0.15110 237065.440000
   4621   4633     1   0.15375 251793.120000
   4624   4636     1   0.15375 251793.120000
   4627   4630     1   0.15375 251793.120000
   4630   4639     1   0.15375 251793.120000
   4633   4645     1   0.15375 251793.120000
   4636   4642     1   0.15375 251793.120000
   4639   4648     1   0.14316 258236.480000
   4642   8470     1   0.14316 258236.480000
   4645   8493     1   0.14316 258236.480000
   4650   4651     1   0.15110 237065.440000
   4650   4654     1   0.15110 237065.440000
   4650   4657     1   0.15110 237065.440000
   4651   4663     1   0.15375 251793.120000
   4654   4666     1   0.15375 251793.120000
   4657   4660     1   0.15375 251793.120000
   4660   4669     1   0.15375 251793.120000
   4663   4675     1   0.15375 251793.120000
   4666   4672     1   0.15375 251793.120000
   4669   4678     1   0.14316 258236.480000
   4672   8516     1   0.14316 258236.480000
   4675   8539     1   0.14316 258236.480000
   4680   4681     1   0.15110 237065.440000
   4680   4684     1   0.15110 237065.440000
   4680   4687     1   0.15110 237065.440000
   4681   4693     1   0.15375 251793.120000
   4684   4696     1   0.15375 251793.120000
   4687   4690     1   0.15375 251793.120000
   4690   4699     1   0.15375 251793.120000
   4693   4705     1   0.15375 251793.120000
   4696   4702     1   0.15375 251793.120000
   4699   4708     1   0.14316 258236.480000
   4702   8562     1   0.14316 258236.480000
   4705   8585     1   0.14316 258236.480000
   4710   4711     1   0.15110 237065.440000
   4710   4714     1   0.15110 237065.440000
   4710   4717     1   0.15110 237065.440000
   4711   4723     1   0.15375 251793.120000
   4714   4726     1   0.15375 251793.120000
   4717   4720     1   0.15375 251793.120000
   4720   4729     1   0.15375 251793.120000
   4723   4735     1   0.15375 251793.120000
   4726   4732     1   0.15375 251793.120000
   4729   4738     1   0.14316 258236.480000
   4732   8608     1   0.14316 258236.480000
   4735   8631     1   0.14316 258236.480000
   4740   4741     1   0.15110 237065.440000
   4740   4744     1   0.15110 237065.440000
   4740   4747     1   0.15110 237065.440000
   4741   4753     1   0.15375 251793.120000
   4744   4756     1   0.15375 251793.120000
   4747   4750     1   0.15375 251793.120000
   4750   4759     1   0.15375 251793.120000
   4753   4765     1   0.15375 251793.120000
   4756   4762     1   0.15375 251793.120000
   4759   4768     1   0.14316 258236.480000
   4762   8654     1   0.14316 258236.480000
   4765   8677     1   0.14316 258236.480000
   4770   4771     1   0.15110 237065.440000
   4770   4774     1   0.15110 237065.440000
   4770   4777     1   0.15110 237065.440000
   4771   4783     1   0.15375 251793.120000
   4774   4786     1   0.15375 251793.120000
   4777   4780     1   0.15375 251793.120000
   4780   4789     1   0.15375 251793.120000
   4783   4795     1   0.15375 251793.120000
   4786   4792     1   0.15375 251793.120000
   4789   4798     1   0.14316 258236.480000
   4792   8700     1   0.14316 258236.480000
   4795   8723     1   0.14316 258236.480000
   4800   4801     1   0.15110 237065.440000
   4800   4804     1   0.15110 237065.440000
   4800   4807     1   0.15110 237065.440000
   4801   4813     1   0.15375 251793.120000
   4804   4816     1   0.15375 251793.120000
   4807   4810     1   0.15375 251793.120000
   4810   4819     1   0.15375 251793.120000
   4813   4825     1   0.15375 251793.120000
   4816   4822     1   0.15375 251793.120000
   4819   4828     1   0.14316 258236.480000
   4822   8746     1   0.14316 258236.480000
   4825   8769     1   0.14316 258236.480000
   4830   4831     1   0.15110 237065.440000
   4830   4834     1   0.15110 237065.440000
   4830   4837     1   0.15110 237065.440000
   4831   4843     1   0.15375 251793.120000
   4834   4846     1   0.15375 251793.120000
   4837   4840     1   0.15375 251793.120000
   4840   4849     1   0.15375 251793.120000
   4843   4855     1   0.15375 251793.120000
   4846   4852     1   0.15375 251793.120000
   4849   4858     1   0.14316 258236.480000
   4852   8792     1   0.14316 258236.480000
   4855   8815     1   0.14316 258236.480000
   4860   4861     1   0.15110 237065.440000
   4860   4864     1   0.15110 237065.440000
   4860   4867     1   0.15110 237065.440000
   4861   4873     1   0.15375 251793.120000
   4864   4876     1   0.15375 251793.120000
   4867   4870     1   0.15375 251793.120000
   4870   4879     1   0.15375 251793.120000
   4873   4885     1   0.15375 251793.120000
   4876   4882     1   0.15375 251793.120000
   4879   4888     1   0.14316 258236.480000
   4882   8838     1   0.14316 258236.480000
   4885   8861     1   0.14316 258236.480000
   4890   4891     1   0.15110 237065.440000
   4890   4894     1   0.15110 237065.440000
   4890   4897     1   0.15110 237065.440000
   4891   4903     1   0.15375 251793.120000
   4894   4906     1   0.15375 251793.120000
   4897   4900     1   0.15375 251793.120000
   4900   4909     1   0.15375 251793.120000
   4903   4915     1   0.15375 251793.120000
   4906   4912     1   0.15375 251793.120000
   4909   4918     1   0.14316 258236.480000
   4912   8884     1   0.14316 258236.480000
   4915   8907     1   0.14316 258236.480000
   4920   4921     1   0.15110 237065.440000
   4920   4924     1   0.15110 237065.440000
   4920   4927     1   0.15110 237065.440000
   4921   4933     1   0.15375 251793.120000
   4924   4936     1   0.15375 251793.120000
   4927   4930     1   0.15375 251793.120000
   4930   4939     1   0.15375 251793.120000
   4933   4945     1   0.15375 251793.120000
   4936   4942     1   0.15375 251793.120000
   4939   4948     1   0.14316 258236.480000
   4942   8930     1   0.14316 258236.480000
   4945   8953     1   0.14316 258236.480000
   4950   4951     1   0.15110 237065.440000
   4950   4954     1   0.15110 237065.440000
   4950   4957     1   0.15110 237065.440000
   4951   4963     1   0.15375 251793.120000
   4954   4966     1   0.15375 251793.120000
   4957   4960     1   0.15375 251793.120000
   4960   4969     1   0.15375 251793.120000
   4963   4975     1   0.15375 251793.120000
   4966   4972     1   0.15375 251793.120000
   4969   4978     1   0.14316 258236.480000
   4972   8976     1   0.14316 258236.480000
   4975   8999     1   0.14316 258236.480000
   4980   4981     1   0.15110 237065.440000
   4980   4984     1   0.15110 237065.440000
   4980   4987     1   0.15110 237065.440000
   4981   4993     1   0.15375 251793.120000
   4984   4996     1   0.15375 251793.120000
   4987   4990     1   0.15375 251793.120000
   4990   4999     1   0.15375 251793.120000
   4993   5005     1   0.15375 251793.120000
   4996   5002     1   0.15375 251793.120000
   4999   5008     1   0.14316 258236.480000
   5002   9022     1   0.14316 258236.480000
   5005   9045     1   0.14316 258236.480000
   5010   5011     1   0.15110 237065.440000
   5010   5014     1   0.15110 237065.440000
   5010   5017     1   0.15110 237065.440000
   5011   5023     1   0.15375 251793.120000
   5014   5026     1   0.15375 251793.120000
   5017   5020     1   0.15375 251793.120000
   5020   5029     1   0.15375 251793.120000
   5023   5035     1   0.15375 251793.120000
   5026   5032     1   0.15375 251793.120000
   5029   5038     1   0.14316 258236.480000
   5032   9068     1   0.14316 258236.480000
   5035   9091     1   0.14316 258236.480000
   5040   5041     1   0.15110 237065.440000
   5040   5044     1   0.15110 237065.440000
   5040   5047     1   0.15110 237065.440000
   5041   5053     1   0.15375 251793.120000
   5044   5056     1   0.15375 251793.120000
   5047   5050     1   0.15375 251793.120000
   5050   5059     1   0.15375 251793.120000
   5053   5065     1   0.15375 251793.120000
   5056   5062     1   0.15375 251793.120000
   5059   5068     1   0.14316 258236.480000
   5062   9114     1   0.14316 258236.480000
   5065   9137     1   0.14316 258236.480000
   5070   5071     1   0.15110 237065.440000
   5070   5074     1   0.15110 237065.440000
   5070   5077     1   0.15110 237065.440000
   5071   5083     1   0.15375 251793.120000
   5074   5086     1   0.15375 251793.120000
   5077   5080     1   0.15375 251793.120000
   5080   5089     1   0.15375 251793.120000
   5083   5095     1   0.15375 251793.120000
   5086   5092     1   0.15375 251793.120000
   5089   5098     1   0.14316 258236.480000
   5092   9160     1   0.14316 258236.480000
   5095   9183     1   0.14316 258236.480000
   5100   5101     1   0.15110 237065.440000
   5100   5104     1   0.15110 237065.440000
   5100   5107     1   0.15110 237065.440000
   5101   5113     1   0.15375 251793.120000
   5104   5116     1   0.15375 251793.120000
   5107   5110     1   0.15375 251793.120000
   5110   5119     1   0.15375 251793.120000
   5113   5125     1   0.15375 251793.120000
   5116   5122     1   0.15375 251793.120000
   5119   5128     1   0.14316 258236.480000
   5122   9206     1   0.14316 258236.480000
   5125   9229     1   0.14316 258236.480000
   5130   5131     1   0.15110 237065.440000
   5130   5134     1   0.15110 237065.440000
   5130   5137     1   0.15110 237065.440000
   5131   5143     1   0.15375 251793.120000
   5134   5146     1   0.15375 251793.120000
   5137   5140     1   0.15375 251793.120000
   5140   5149     1   0.15375 251793.120000
   5143   5155     1   0.15375 251793.120000
   5146   5152     1   0.15375 251793.120000
   5149   5158     1   0.14316 258236.480000
   5152   9252     1   0.14316 258236.480000
   5155   9275     1   0.14316 258236.480000
   5160   5161     1   0.15110 237065.440000
   5160   5164     1   0.15110 237065.440000
   5160   5167     1   0.15110 237065.440000
   5161   5173     1   0.15375 251793.120000
   5164   5176     1   0.15375 251793.120000
   5167   5170     1   0.15375 251793.120000
   5170   5179     1   0.15375 251793.120000
   5173   5185     1   0.15375 251793.120000
   5176   5182     1   0.15375 251793.120000
   5179   5188     1   0.14316 258236.480000
   5182   9298     1   0.14316 258236.480000
   5185   9321     1   0.14316 258236.480000
   5190   5191     1   0.15110 237065.440000
   5190   5194     1   0.15110 237065.440000
   5190   5197     1   0.15110 237065.440000
   5191   5203     1   0.15375 251793.120000
   5194   5206     1   0.15375 251793.120000
   5197   5200     1   0.15375 251793.120000
   5200   5209     1   0.15375 251793.120000
   5203   5215     1   0.15375 251793.120000
   5206   5212     1   0.15375 251793.120000
   5209   5218     1   0.14316 258236.480000
   5212   9344     1   0.14316 258236.480000
   5215   9367     1   0.14316 258236.480000
   5220   5221     1   0.15110 237065.440000
   5220   5224     1   0.15110 237065.440000
   5220   5227     1   0.15110 237065.440000
   5221   5233     1   0.15375 251793.120000
   5224   5236     1   0.15375 251793.120000
   5227   5230     1   0.15375 251793.120000
   5230   5239     1   0.15375 251793.120000
   5233   5245     1   0.15375 251793.120000
   5236   5242     1   0.15375 251793.120000
   5239   5248     1   0.14316 258236.480000
   5242   9390     1   0.14316 258236.480000
   5245   9413     1   0.14316 258236.480000
   5250   5251     1   0.15110 237065.440000
   5250   5254     1   0.15110 237065.440000
   5250   5257     1   0.15110 237065.440000
   5251   5263     1   0.15375 251793.120000
   5254   5266     1   0.15375 251793.120000
   5257   5260     1   0.15375 251793.120000
   5260   5269     1   0.15375 251793.120000
   5263   5275     1   0.15375 251793.120000
   5266   5272     1   0.15375 251793.120000
   5269   5278     1   0.14316 258236.480000
   5272   9436     1   0.14316 258236.480000
   5275   9459     1   0.14316 258236.480000
   5280   5281     1   0.15110 237065.440000
   5280   5284     1   0.15110 237065.440000
   5280   5287     1   0.15110 237065.440000
   5281   5293     1   0.15375 251793.120000
   5284   5296     1   0.15375 251793.120000
   5287   5290     1   0.15375 251793.120000
   5290   5299     1   0.15375 251793.120000
   5293   5305     1   0.15375 251793.120000
   5296   5302     1   0.15375 251793.120000
   5299   5308     1   0.14316 258236.480000
   5302   9482     1   0.14316 258236.480000
   5305   9505     1   0.14316 258236.480000
   5310   5311     1   0.15110 237065.440000
   5310   5314     1   0.15110 237065.440000
   5310   5317     1   0.15110 237065.440000
   5311   5323     1   0.15375 251793.120000
   5314   5326     1   0.15375 251793.120000
   5317   5320     1   0.15375 251793.120000
   5320   5329     1   0.15375 251793.120000
   5323   5335     1   0.15375 251793.120000
   5326   5332     1   0.15375 251793.120000
   5329   5338     1   0.14316 258236.480000
   5332   9528     1   0.14316 258236.480000
   5335   9551     1   0.14316 258236.480000
   5340   5341     1   0.15110 237065.440000
   5340   5344     1   0.15110 237065.440000
   5340   5347     1   0.15110 237065.440000
   5341   5353     1   0.15375 251793.120000
   5344   5356     1   0.15375 251793.120000
   5347   5350     1   0.15375 251793.120000
   5350   5359     1   0.15375 251793.120000
   5353   5365     1   0.15375 251793.120000
   5356   5362     1   0.15375 251793.120000
   5359   5368     1   0.14316 258236.480000
   5362   9574     1   0.14316 258236.480000
   5365   9597     1   0.14316 258236.480000
   5370   5371     1   0.15110 237065.440000
   5370   5374     1   0.15110 237065.440000
   5370   5377     1   0.15110 237065.440000
   5371   5383     1   0.15375 251793.120000
   5374   5386     1   0.15375 251793.120000
   5377   5380     1   0.15375 251793.120000
   5380   5389     1   0.15375 251793.120000
   5383   5395     1   0.15375 251793.120000
   5386   5392     1   0.15375 251793.120000
   5389   5398     1   0.14316 258236.480000
   5392   9620     1   0.14316 258236.480000
   5395   9643     1   0.14316 258236.480000
   5400   5401     1   0.15110 237065.440000
   5400   5404     1   0.15110 237065.440000
   5400   5407     1   0.15110 237065.440000
   5401   5413     1   0.15375 251793.120000
   5404   5416     1   0.15375 251793.120000
   5407   5410     1   0.15375 251793.120000
   5410   5419     1   0.15375 251793.120000
   5413   5425     1   0.15375 251793.120000
   5416   5422     1   0.15375 251793.120000
   5419   5428     1   0.14316 258236.480000
   5422   9666     1   0.14316 258236.480000
   5425   9689     1   0.14316 258236.480000
   5430   5431     1   0.15110 237065.440000
   5430   5434     1   0.15110 237065.440000
   5430   5437     1   0.15110 237065.440000
   5431   5443     1   0.15375 251793.120000
   5434   5446     1   0.15375 251793.120000
   5437   5440     1   0.15375 251793.120000
   5440   5449     1   0.15375 251793.120000
   5443   5455     1   0.15375 251793.120000
   5446   5452     1   0.15375 251793.120000
   5449   5458     1   0.14316 258236.480000
   5452   9712     1   0.14316 258236.480000
   5455   9735     1   0.14316 258236.480000
   5460   5461     1   0.15110 237065.440000
   5460   5464     1   0.15110 237065.440000
   5460   5467     1   0.15110 237065.440000
   5461   5473     1   0.15375 251793.120000
   5464   5476     1   0.15375 251793.120000
   5467   5470     1   0.15375 251793.120000
   5470   5479     1   0.15375 251793.120000
   5473   5485     1   0.15375 251793.120000
   5476   5482     1   0.15375 251793.120000
   5479   5488     1   0.14316 258236.480000
   5482   9758     1   0.14316 258236.480000
   5485   9781     1   0.14316 258236.480000
   5490   5491     1   0.15110 237065.440000
   5490   5494     1   0.15110 237065.440000
   5490   5497     1   0.15110 237065.440000
   5491   5503     1   0.15375 251793.120000
   5494   5506     1   0.15375 251793.120000
   5497   5500     1   0.15375 251793.120000
   5500   5509     1   0.15375 251793.120000
   5503   5515     1   0.15375 251793.120000
   5506   5512     1   0.15375 251793.120000
   5509   5518     1   0.14316 258236.480000
   5512   9804     1   0.14316 258236.480000
   5515   9827     1   0.14316 258236.480000
   5520   5521     1   0.15110 237065.440000
   5520   5524     1   0.15110 237065.440000
   5520   5527     1   0.15110 237065.440000
   5521   5533     1   0.15375 251793.120000
   5524   5536     1   0.15375 251793.120000
   5527   5530     1   0.15375 251793.120000
   5530   5539     1   0.15375 251793.120000
   5533   5545     1   0.15375 251793.120000
   5536   5542     1   0.15375 251793.120000
   5539   5548     1   0.14316 258236.480000
   5542   9850     1   0.14316 258236.480000
   5545   9873     1   0.14316 258236.480000
   5550   5551     1   0.15110 237065.440000
   5550   5554     1   0.15110 237065.440000
   5550   5557     1   0.15110 237065.440000
   5551   5563     1   0.15375 251793.120000
   5554   5566     1   0.15375 251793.120000
   5557   5560     1   0.15375 251793.120000
   5560   5569     1   0.15375 251793.120000
   5563   5575     1   0.15375 251793.120000
   5566   5572     1   0.15375 251793.120000
   5569   5578     1   0.14316 258236.480000
   5572   9896     1   0.14316 258236.480000
   5575   9919     1   0.14316 258236.480000
   5580   5581     1   0.15110 237065.440000
   5580   5584     1   0.15110 237065.440000
   5580   5587     1   0.15110 237065.440000
   5581   5593     1   0.15375 251793.120000
   5584   5596     1   0.15375 251793.120000
   5587   5590     1   0.15375 251793.120000
   5590   5599     1   0.15375 251793.120000
   5593   5605     1   0.15375 251793.120000
   5596   5602     1   0.15375 251793.120000
   5599   5608     1   0.14316 258236.480000
   5602   9942     1   0.14316 258236.480000
   5605   9965     1   0.14316 258236.480000
   5610   5611     1   0.15110 237065.440000
   5610   5614     1   0.15110 237065.440000
   5610   5617     1   0.15110 237065.440000
   5611   5623     1   0.15375 251793.120000
   5614   5626     1   0.15375 251793.120000
   5617   5620     1   0.15375 251793.120000
   5620   5629     1   0.15375 251793.120000
   5623   5635     1   0.15375 251793.120000
   5626   5632     1   0.15375 251793.120000
   5629   5638     1   0.14316 258236.480000
   5632   9988     1   0.14316 258236.480000
   5635  10011     1   0.14316 258236.480000
   5640   5641     1   0.15110 237065.440000
   5640   5644     1   0.15110 237065.440000
   5640   5647     1   0.15110 237065.440000
   5641   5653     1   0.15375 251793.120000
   5644   5656     1   0.15375 251793.120000
   5647   5650     1   0.15375 251793.120000
   5650   5659     1   0.15375 251793.120000
   5653   5665     1   0.15375 251793.120000
   5656   5662     1   0.15375 251793.120000
   5659   5668     1   0.14316 258236.480000
   5662  10034     1   0.14316 258236.480000
   5665  10057     1   0.14316 258236.480000
   5670   5671     1   0.15110 237065.440000
   5670   5674     1   0.15110 237065.440000
   5670   5677     1   0.15110 237065.440000
   5671   5683     1   0.15375 251793.120000
   5674   5686     1   0.15375 251793.120000
   5677   5680     1   0.15375 251793.120000
   5680   5689     1   0.15375 251793.120000
   5683   5695     1   0.15375 251793.120000
   5686   5692     1   0.15375 251793.120000
   5689   5698     1   0.14316 258236.480000
   5692  10080     1   0.14316 258236.480000
   5695  10103     1   0.14316 258236.480000
   5700   5701     1   0.15375 251793.120000
   5700   5714     1   0.15375 251793.120000
   5700   5722     1   0.14316 258236.480000
   5701   5704     1   0.15375 251793.120000
   5701   5713     1   0.14233 265014.560000
   5704   5705     1   0.15375 251793.120000
   5704   5712     1   0.14233 265014.560000
   5705   5706     1   0.15375 251793.120000
   5705   5711     1   0.14233 265014.560000
   5706   5710     1   0.14316 258236.480000
   5706   5722     1   0.14316 258236.480000
   5714   5720     1   0.14233 265014.560000
   5723   5724     1   0.15375 251793.120000
   5723   5737     1   0.15375 251793.120000
   5723   5745     1   0.14316 258236.480000
   5724   5727     1   0.15375 251793.120000
   5724   5736     1   0.14233 265014.560000
   5727   5728     1   0.15375 251793.120000
   5727   5735     1   0.14233 265014.560000
   5728   5729     1   0.15375 251793.120000
   5728   5734     1   0.14233 265014.560000
   5729   5733     1   0.14316 258236.480000
   5729   5745     1   0.14316 258236.480000
   5737   5743     1   0.14233 265014.560000
   5746   5747     1   0.15375 251793.120000
   5746   5760     1   0.15375 251793.120000
   5746   5768     1   0.14316 258236.480000
   5747   5750     1   0.15375 251793.120000
   5747   5759     1   0.14233 265014.560000
   5750   5751     1   0.15375 251793.120000
   5750   5758     1   0.14233 265014.560000
   5751   5752     1   0.15375 251793.120000
   5751   5757     1   0.14233 265014.560000
   5752   5756     1   0.14316 258236.480000
   5752   5768     1   0.14316 258236.480000
   5760   5766     1   0.14233 265014.560000
   5769   5770     1   0.15375 251793.120000
   5769   5783     1   0.15375 251793.120000
   5769   5791     1   0.14316 258236.480000
   5770   5773     1   0.15375 251793.120000
   5770   5782     1   0.14233 265014.560000
   5773   5774     1   0.15375 251793.120000
   5773   5781     1   0.14233 265014.560000
   5774   5775     1   0.15375 251793.120000
   5774   5780     1   0.14233 265014.560000
   5775   5779     1   0.14316 258236.480000
   5775   5791     1   0.14316 258236.480000
   5783   5789     1   0.14233 265014.560000
   5792   5793     1   0.15375 251793.120000
   5792   5806     1   0.15375 251793.120000
   5792   5814     1   0.14316 258236.480000
   5793   5796     1   0.15375 251793.120000
   5793   5805     1   0.14233 265014.560000
   5796   5797     1   0.15375 251793.120000
   5796   5804     1   0.14233 265014.560000
   5797   5798     1   0.15375 251793.120000
   5797   5803     1   0.14233 265014.560000
   5798   5802     1   0.14316 258236.480000
   5798   5814     1   0.14316 258236.480000
   5806   5812     1   0.14233 265014.560000
   5815   5816     1   0.15375 251793.120000
   5815   5829     1   0.15375 251793.120000
   5815   5837     1   0.14316 258236.480000
   5816   5819     1   0.15375 251793.120000
   5816   5828     1   0.14233 265014.560000
   5819   5820     1   0.15375 251793.120000
   5819   5827     1   0.14233 265014.560000
   5820   5821     1   0.15375 251793.120000
   5820   5826     1   0.14233 265014.560000
   5821   5825     1   0.14316 258236.480000
   5821   5837     1   0.14316 258236.480000
   5829   5835     1   0.14233 265014.560000
   5838   5839     1   0.15375 251793.120000
   5838   5852     1   0.15375 251793.120000
   5838   5860     1   0.14316 258236.480000
   5839   5842     1   0.15375 251793.120000
   5839   5851     1   0.14233 265014.560000
   5842   5843     1   0.15375 251793.120000
   5842   5850     1   0.14233 265014.560000
   5843   5844     1   0.15375 251793.120000
   5843   5849     1   0.14233 265014.560000
   5844   5848     1   0.14316 258236.480000
   5844   5860     1   0.14316 258236.480000
   5852   5858     1   0.14233 265014.560000
   5861   5862     1   0.15375 251793.120000
   5861   5875     1   0.15375 251793.120000
   5861   5883     1   0.14316 258236.480000
   5862   5865     1   0.15375 251793.120000
   5862   5874     1   0.14233 265014.560000
   5865   5866     1   0.15375 251793.120000
   5865   5873     1   0.14233 265014.560000
   5866   5867     1   0.15375 251793.120000
   5866   5872     1   0.14233 265014.560000
   5867   5871     1   0.14316 258236.480000
   5867   5883     1   0.14316 258236.480000
   5875   5881     1   0.14233 265014.560000
   5884   5885     1   0.15375 251793.120000
   5884   5898     1   0.15375 251793.120000
   5884   5906     1   0.14316 258236.480000
   5885   5888     1   0.15375 251793.120000
   5885   5897     1   0.14233 265014.560000
   5888   5889     1   0.15375 251793.120000
   5888   5896     1   0.14233 265014.560000
   5889   5890     1   0.15375 251793.120000
   5889   5895     1   0.14233 265014.560000
   5890   5894     1   0.14316 258236.480000
   5890   5906     1   0.14316 258236.480000
   5898   5904     1   0.14233 265014.560000
   5907   5908     1   0.15375 251793.120000
   5907   5921     1   0.15375 251793.120000
   5907   5929     1   0.14316 258236.480000
   5908   5911     1   0.15375 251793.120000
   5908   5920     1   0.14233 265014.560000
   5911   5912     1   0.15375 251793.120000
   5911   5919     1   0.14233 265014.560000
   5912   5913     1   0.15375 251793.120000
   5912   5918     1   0.14233 265014.560000
   5913   5917     1   0.14316 258236.480000
   5913   5929     1   0.14316 258236.480000
   5921   5927     1   0.14233 265014.560000
   5930   5931     1   0.15375 251793.120000
   5930   5944     1   0.15375 251793.120000
   5930   5952     1   0.14316 258236.480000
   5931   5934     1   0.15375 251793.120000
   5931   5943     1   0.14233 265014.560000
   5934   5935     1   0.15375 251793.120000
   5934   5942     1   0.14233 265014.560000
   5935   5936     1   0.15375 251793.120000
   5935   5941     1   0.14233 265014.560000
   5936   5940     1   0.14316 258236.480000
   5936   5952     1   0.14316 258236.480000
   5944   5950     1   0.14233 265014.560000
   5953   5954     1   0.15375 251793.120000
   5953   5967     1   0.15375 251793.120000
   5953   5975     1   0.14316 258236.480000
   5954   5957     1   0.15375 251793.120000
   5954   5966     1   0.14233 265014.560000
   5957   5958     1   0.15375 251793.120000
   5957   5965     1   0.14233 265014.560000
   5958   5959     1   0.15375 251793.120000
   5958   5964     1   0.14233 265014.560000
   5959   5963     1   0.14316 258236.480000
   5959   5975     1   0.14316 258236.480000
   5967   5973     1   0.14233 265014.560000
   5976   5977     1   0.15375 251793.120000
   5976   5990     1   0.15375 251793.120000
   5976   5998     1   0.14316 258236.480000
   5977   5980     1   0.15375 251793.120000
   5977   5989     1   0.14233 265014.560000
   5980   5981     1   0.15375 251793.120000
   5980   5988     1   0.14233 265014.560000
   5981   5982     1   0.15375 251793.120000
   5981   5987     1   0.14233 265014.560000
   5982   5986     1   0.14316 258236.480000
   5982   5998     1   0.14316 258236.480000
   5990   5996     1   0.14233 265014.560000
   5999   6000     1   0.15375 251793.120000
   5999   6013     1   0.15375 251793.120000
   5999   6021     1   0.14316 258236.480000
   6000   6003     1   0.15375 251793.120000
   6000   6012     1   0.14233 265014.560000
   6003   6004     1   0.15375 251793.120000
   6003   6011     1   0.14233 265014.560000
   6004   6005     1   0.15375 251793.120000
   6004   6010     1   0.14233 265014.560000
   6005   6009     1   0.14316 258236.480000
   6005   6021     1   0.14316 258236.480000
   6013   6019     1   0.14233 265014.560000
   6022   6023     1   0.15375 251793.120000
   6022   6036     1   0.15375 251793.120000
   6022   6044     1   0.14316 258236.480000
   6023   6026     1   0.15375 251793.120000
   6023   6035     1   0.14233 265014.560000
   6026   6027     1   0.15375 251793.120000
   6026   6034     1   0.14233 265014.560000
   6027   6028     1   0.15375 251793.120000
   6027   6033     1   0.14233 265014.560000
   6028   6032     1   0.14316 258236.480000
   6028   6044     1   0.14316 258236.480000
   6036   6042     1   0.14233 265014.560000
   6045   6046     1   0.15375 251793.120000
   6045   6059     1   0.15375 251793.120000
   6045   6067     1   0.14316 258236.480000
   6046   6049     1   0.15375 251793.120000
   6046   6058     1   0.14233 265014.560000
   6049   6050     1   0.15375 251793.120000
   6049   6057     1   0.14233 265014.560000
   6050   6051     1   0.15375 251793.120000
   6050   6056     1   0.14233 265014.560000
   6051   6055     1   0.14316 258236.480000
   6051   6067     1   0.14316 258236.480000
   6059   6065     1   0.14233 265014.560000
   6068   6069     1   0.15375 251793.120000
   6068   6082     1   0.15375 251793.120000
   6068   6090     1   0.14316 258236.480000
   6069   6072     1   0.15375 251793.120000
   6069   6081     1   0.14233 265014.560000
   6072   6073     1   0.15375 251793.120000
   6072   6080     1   0.14233 265014.560000
   6073   6074     1   0.15375 251793.120000
   6073   6079     1   0.14233 265014.560000
   6074   6078     1   0.14316 258236.480000
   6074   6090     1   0.14316 258236.480000
   6082   6088     1   0.14233 265014.560000
   6091   6092     1   0.15375 251793.120000
   6091   6105     1   0.15375 251793.120000
   6091   6113     1   0.14316 258236.480000
   6092   6095     1   0.15375 251793.120000
   6092   6104     1   0.14233 265014.560000
   6095   6096     1   0.15375 251793.120000
   6095   6103     1   0.14233 265014.560000
   6096   6097     1   0.15375 251793.120000
   6096   6102     1   0.14233 265014.560000
   6097   6101     1   0.14316 258236.480000
   6097   6113     1   0.14316 258236.480000
   6105   6111     1   0.14233 265014.560000
   6114   6115     1   0.15375 251793.120000
   6114   6128     1   0.15375 251793.120000
   6114   6136     1   0.14316 258236.480000
   6115   6118     1   0.15375 251793.120000
   6115   6127     1   0.14233 265014.560000
   6118   6119     1   0.15375 251793.120000
   6118   6126     1   0.14233 265014.560000
   6119   6120     1   0.15375 251793.120000
   6119   6125     1   0.14233 265014.560000
   6120   6124     1   0.14316 258236.480000
   6120   6136     1   0.14316 258236.480000
   6128   6134     1   0.14233 265014.560000
   6137   6138     1   0.15375 251793.120000
   6137   6151     1   0.15375 251793.120000
   6137   6159     1   0.14316 258236.480000
   6138   6141     1   0.15375 251793.120000
   6138   6150     1   0.14233 265014.560000
   6141   6142     1   0.15375 251793.120000
   6141   6149     1   0.14233 265014.560000
   6142   6143     1   0.15375 251793.120000
   6142   6148     1   0.14233 265014.560000
   6143   6147     1   0.14316 258236.480000
   6143   6159     1   0.14316 258236.480000
   6151   6157     1   0.14233 265014.560000
   6160   6161     1   0.15375 251793.120000
   6160   6174     1   0.15375 251793.120000
   6160   6182     1   0.14316 258236.480000
   6161   6164     1   0.15375 251793.120000
   6161   6173     1   0.14233 265014.560000
   6164   6165     1   0.15375 251793.120000
   6164   6172     1   0.14233 265014.560000
   6165   6166     1   0.15375 251793.120000
   6165   6171     1   0.14233 265014.560000
   6166   6170     1   0.14316 258236.480000
   6166   6182     1   0.14316 258236.480000
   6174   6180     1   0.14233 265014.560000
   6183   6184     1   0.15375 251793.120000
   6183   6197     1   0.15375 251793.120000
   6183   6205     1   0.14316 258236.480000
   6184   6187     1   0.15375 251793.120000
   6184   6196     1   0.14233 265014.560000
   6187   6188     1   0.15375 251793.120000
   6187   6195     1   0.14233 265014.560000
   6188   6189     1   0.15375 251793.120000
   6188   6194     1   0.14233 265014.560000
   6189   6193     1   0.14316 258236.480000
   6189   6205     1   0.14316 258236.480000
   6197   6203     1   0.14233 265014.560000
   6206   6207     1   0.15375 251793.120000
   6206   6220     1   0.15375 251793.120000
   6206   6228     1   0.14316 258236.480000
   6207   6210     1   0.15375 251793.120000
   6207   6219     1   0.14233 265014.560000
   6210   6211     1   0.15375 251793.120000
   6210   6218     1   0.14233 265014.560000
   6211   6212     1   0.15375 251793.120000
   6211   6217     1   0.14233 265014.560000
   6212   6216     1   0.14316 258236.480000
   6212   6228     1   0.14316 258236.480000
   6220   6226     1   0.14233 265014.560000
   6229   6230     1   0.15375 251793.120000
   6229   6243     1   0.15375 251793.120000
   6229   6251     1   0.14316 258236.480000
   6230   6233     1   0.15375 251793.120000
   6230   6242     1   0.14233 265014.560000
   6233   6234     1   0.15375 251793.120000
   6233   6241     1   0.14233 265014.560000
   6234   6235     1   0.15375 251793.120000
   6234   6240     1   0.14233 265014.560000
   6235   6239     1   0.14316 258236.480000
   6235   6251     1   0.14316 258236.480000
   6243   6249     1   0.14233 265014.560000
   6252   6253     1   0.15375 251793.120000
   6252   6266     1   0.15375 251793.120000
   6252   6274     1   0.14316 258236.480000
   6253   6256     1   0.15375 251793.120000
   6253   6265     1   0.14233 265014.560000
   6256   6257     1   0.15375 251793.120000
   6256   6264     1   0.14233 265014.560000
   6257   6258     1   0.15375 251793.120000
   6257   6263     1   0.14233 265014.560000
   6258   6262     1   0.14316 258236.480000
   6258   6274     1   0.14316 258236.480000
   6266   6272     1   0.14233 265014.560000
   6275   6276     1   0.15375 251793.120000
   6275   6289     1   0.15375 251793.120000
   6275   6297     1   0.14316 258236.480000
   6276   6279     1   0.15375 251793.120000
   6276   6288     1   0.14233 265014.560000
   6279   6280     1   0.15375 251793.120000
   6279   6287     1   0.14233 265014.560000
   6280   6281     1   0.15375 251793.120000
   6280   6286     1   0.14233 265014.560000
   6281   6285     1   0.14316 258236.480000
   6281   6297     1   0.14316 258236.480000
   6289   6295     1   0.14233 265014.560000
   6298   6299     1   0.15375 251793.120000
   6298   6312     1   0.15375 251793.120000
   6298   6320     1   0.14316 258236.480000
   6299   6302     1   0.15375 251793.120000
   6299   6311     1   0.14233 265014.560000
   6302   6303     1   0.15375 251793.120000
   6302   6310     1   0.14233 265014.560000
   6303   6304     1   0.15375 251793.120000
   6303   6309     1   0.14233 265014.560000
   6304   6308     1   0.14316 258236.480000
   6304   6320     1   0.14316 258236.480000
   6312   6318     1   0.14233 265014.560000
   6321   6322     1   0.15375 251793.120000
   6321   6335     1   0.15375 251793.120000
   6321   6343     1   0.14316 258236.480000
   6322   6325     1   0.15375 251793.120000
   6322   6334     1   0.14233 265014.560000
   6325   6326     1   0.15375 251793.120000
   6325   6333     1   0.14233 265014.560000
   6326   6327     1   0.15375 251793.120000
   6326   6332     1   0.14233 265014.560000
   6327   6331     1   0.14316 258236.480000
   6327   6343     1   0.14316 258236.480000
   6335   6341     1   0.14233 265014.560000
   6344   6345     1   0.15375 251793.120000
   6344   6358     1   0.15375 251793.120000
   6344   6366     1   0.14316 258236.480000
   6345   6348     1   0.15375 251793.120000
   6345   6357     1   0.14233 265014.560000
   6348   6349     1   0.15375 251793.120000
   6348   6356     1   0.14233 265014.560000
   6349   6350     1   0.15375 251793.120000
   6349   6355     1   0.14233 265014.560000
   6350   6354     1   0.14316 258236.480000
   6350   6366     1   0.14316 258236.480000
   6358   6364     1   0.14233 265014.560000
   6367   6368     1   0.15375 251793.120000
   6367   6381     1   0.15375 251793.120000
   6367   6389     1   0.14316 258236.480000
   6368   6371     1   0.15375 251793.120000
   6368   6380     1   0.14233 265014.560000
   6371   6372     1   0.15375 251793.120000
   6371   6379     1   0.14233 265014.560000
   6372   6373     1   0.15375 251793.120000
   6372   6378     1   0.14233 265014.560000
   6373   6377     1   0.14316 258236.480000
   6373   6389     1   0.14316 258236.480000
   6381   6387     1   0.14233 265014.560000
   6390   6391     1   0.15375 251793.120000
   6390   6404     1   0.15375 251793.120000
   6390   6412     1   0.14316 258236.480000
   6391   6394     1   0.15375 251793.120000
   6391   6403     1   0.14233 265014.560000
   6394   6395     1   0.15375 251793.120000
   6394   6402     1   0.14233 265014.560000
   6395   6396     1   0.15375 251793.120000
   6395   6401     1   0.14233 265014.560000
   6396   6400     1   0.14316 258236.480000
   6396   6412     1   0.14316 258236.480000
   6404   6410     1   0.14233 265014.560000
   6413   6414     1   0.15375 251793.120000
   6413   6427     1   0.15375 251793.120000
   6413   6435     1   0.14316 258236.480000
   6414   6417     1   0.15375 251793.120000
   6414   6426     1   0.14233 265014.560000
   6417   6418     1   0.15375 251793.120000
   6417   6425     1   0.14233 265014.560000
   6418   6419     1   0.15375 251793.120000
   6418   6424     1   0.14233 265014.560000
   6419   6423     1   0.14316 258236.480000
   6419   6435     1   0.14316 258236.480000
   6427   6433     1   0.14233 265014.560000
   6436   6437     1   0.15375 251793.120000
   6436   6450     1   0.15375 251793.120000
   6436   6458     1   0.14316 258236.480000
   6437   6440     1   0.15375 251793.120000
   6437   6449     1   0.14233 265014.560000
   6440   6441     1   0.15375 251793.120000
   6440   6448     1   0.14233 265014.560000
   6441   6442     1   0.15375 251793.120000
   6441   6447     1   0.14233 265014.560000
   6442   6446     1   0.14316 258236.480000
   6442   6458     1   0.14316 258236.480000
   6450   6456     1   0.14233 265014.560000
   6459   6460     1   0.15375 251793.120000
   6459   6473     1   0.15375 251793.120000
   6459   6481     1   0.14316 258236.480000
   6460   6463     1   0.15375 251793.120000
   6460   6472     1   0.14233 265014.560000
   6463   6464     1   0.15375 251793.120000
   6463   6471     1   0.14233 265014.560000
   6464   6465     1   0.15375 251793.120000
   6464   6470     1   0.14233 265014.560000
   6465   6469     1   0.14316 258236.480000
   6465   6481     1   0.14316 258236.480000
   6473   6479     1   0.14233 265014.560000
   6482   6483     1   0.15375 251793.120000
   6482   6496     1   0.15375 251793.120000
   6482   6504     1   0.14316 258236.480000
   6483   6486     1   0.15375 251793.120000
   6483   6495     1   0.14233 265014.560000
   6486   6487     1   0.15375 251793.120000
   6486   6494     1   0.14233 265014.560000
   6487   6488     1   0.15375 251793.120000
   6487   6493     1   0.14233 265014.560000
   6488   6492     1   0.14316 258236.480000
   6488   6504     1   0.14316 258236.480000
   6496   6502     1   0.14233 265014.560000
   6505   6506     1   0.15375 251793.120000
   6505   6519     1   0.15375 251793.120000
   6505   6527     1   0.14316 258236.480000
   6506   6509     1   0.15375 251793.120000
   6506   6518     1   0.14233 265014.560000
   6509   6510     1   0.15375 251793.120000
   6509   6517     1   0.14233 265014.560000
   6510   6511     1   0.15375 251793.120000
   6510   6516     1   0.14233 265014.560000
   6511   6515     1   0.14316 258236.480000
   6511   6527     1   0.14316 258236.480000
   6519   6525     1   0.14233 265014.560000
   6528   6529     1   0.15375 251793.120000
   6528   6542     1   0.15375 251793.120000
   6528   6550     1   0.14316 258236.480000
   6529   6532     1   0.15375 251793.120000
   6529   6541     1   0.14233 265014.560000
   6532   6533     1   0.15375 251793.120000
   6532   6540     1   0.14233 265014.560000
   6533   6534     1   0.15375 251793.120000
   6533   6539     1   0.14233 265014.560000
   6534   6538     1   0.14316 258236.480000
   6534   6550     1   0.14316 258236.480000
   6542   6548     1   0.14233 265014.560000
   6551   6552     1   0.15375 251793.120000
   6551   6565     1   0.15375 251793.120000
   6551   6573     1   0.14316 258236.480000
   6552   6555     1   0.15375 251793.120000
   6552   6564     1   0.14233 265014.560000
   6555   6556     1   0.15375 251793.120000
   6555   6563     1   0.14233 265014.560000
   6556   6557     1   0.15375 251793.120000
   6556   6562     1   0.14233 265014.560000
   6557   6561     1   0.14316 258236.480000
   6557   6573     1   0.14316 258236.480000
   6565   6571     1   0.14233 265014.560000
   6574   6575     1   0.15375 251793.120000
   6574   6588     1   0.15375 251793.120000
   6574   6596     1   0.14316 258236.480000
   6575   6578     1   0.15375 251793.120000
   6575   6587     1   0.14233 265014.560000
   6578   6579     1   0.15375 251793.120000
   6578   6586     1   0.14233 265014.560000
   6579   6580     1   0.15375 251793.120000
   6579   6585     1   0.14233 265014.560000
   6580   6584     1   0.14316 258236.480000
   6580   6596     1   0.14316 258236.480000
   6588   6594     1   0.14233 265014.560000
   6597   6598     1   0.15375 251793.120000
   6597   6611     1   0.15375 251793.120000
   6597   6619     1   0.14316 258236.480000
   6598   6601     1   0.15375 251793.120000
   6598   6610     1   0.14233 265014.560000
   6601   6602     1   0.15375 251793.120000
   6601   6609     1   0.14233 265014.560000
   6602   6603     1   0.15375 251793.120000
   6602   6608     1   0.14233 265014.560000
   6603   6607     1   0.14316 258236.480000
   6603   6619     1   0.14316 258236.480000
   6611   6617     1   0.14233 265014.560000
   6620   6621     1   0.15375 251793.120000
   6620   6634     1   0.15375 251793.120000
   6620   6642     1   0.14316 258236.480000
   6621   6624     1   0.15375 251793.120000
   6621   6633     1   0.14233 265014.560000
   6624   6625     1   0.15375 251793.120000
   6624   6632     1   0.14233 265014.560000
   6625   6626     1   0.15375 251793.120000
   6625   6631     1   0.14233 265014.560000
   6626   6630     1   0.14316 258236.480000
   6626   6642     1   0.14316 258236.480000
   6634   6640     1   0.14233 265014.560000
   6643   6644     1   0.15375 251793.120000
   6643   6657     1   0.15375 251793.120000
   6643   6665     1   0.14316 258236.480000
   6644   6647     1   0.15375 251793.120000
   6644   6656     1   0.14233 265014.560000
   6647   6648     1   0.15375 251793.120000
   6647   6655     1   0.14233 265014.560000
   6648   6649     1   0.15375 251793.120000
   6648   6654     1   0.14233 265014.560000
   6649   6653     1   0.14316 258236.480000
   6649   6665     1   0.14316 258236.480000
   6657   6663     1   0.14233 265014.560000
   6666   6667     1   0.15375 251793.120000
   6666   6680     1   0.15375 251793.120000
   6666   6688     1   0.14316 258236.480000
   6667   6670     1   0.15375 251793.120000
   6667   6679     1   0.14233 265014.560000
   6670   6671     1   0.15375 251793.120000
   6670   6678     1   0.14233 265014.560000
   6671   6672     1   0.15375 251793.120000
   6671   6677     1   0.14233 265014.560000
   6672   6676     1   0.14316 258236.480000
   6672   6688     1   0.14316 258236.480000
   6680   6686     1   0.14233 265014.560000
   6689   6690     1   0.15375 251793.120000
   6689   6703     1   0.15375 251793.120000
   6689   6711     1   0.14316 258236.480000
   6690   6693     1   0.15375 251793.120000
   6690   6702     1   0.14233 265014.560000
   6693   6694     1   0.15375 251793.120000
   6693   6701     1   0.14233 265014.560000
   6694   6695     1   0.15375 251793.120000
   6694   6700     1   0.14233 265014.560000
   6695   6699     1   0.14316 258236.480000
   6695   6711     1   0.14316 258236.480000
   6703   6709     1   0.14233 265014.560000
   6712   6713     1   0.15375 251793.120000
   6712   6726     1   0.15375 251793.120000
   6712   6734     1   0.14316 258236.480000
   6713   6716     1   0.15375 251793.120000
   6713   6725     1   0.14233 265014.560000
   6716   6717     1   0.15375 251793.120000
   6716   6724     1   0.14233 265014.560000
   6717   6718     1   0.15375 251793.120000
   6717   6723     1   0.14233 265014.560000
   6718   6722     1   0.14316 258236.480000
   6718   6734     1   0.14316 258236.480000
   6726   6732     1   0.14233 265014.560000
   6735   6736     1   0.15375 251793.120000
   6735   6749     1   0.15375 251793.120000
   6735   6757     1   0.14316 258236.480000
   6736   6739     1   0.15375 251793.120000
   6736   6748     1   0.14233 265014.560000
   6739   6740     1   0.15375 251793.120000
   6739   6747     1   0.14233 265014.560000
   6740   6741     1   0.15375 251793.120000
   6740   6746     1   0.14233 265014.560000
   6741   6745     1   0.14316 258236.480000
   6741   6757     1   0.14316 258236.480000
   6749   6755     1   0.14233 265014.560000
   6758   6759     1   0.15375 251793.120000
   6758   6772     1   0.15375 251793.120000
   6758   6780     1   0.14316 258236.480000
   6759   6762     1   0.15375 251793.120000
   6759   6771     1   0.14233 265014.560000
   6762   6763     1   0.15375 251793.120000
   6762   6770     1   0.14233 265014.560000
   6763   6764     1   0.15375 251793.120000
   6763   6769     1   0.14233 265014.560000
   6764   6768     1   0.14316 258236.480000
   6764   6780     1   0.14316 258236.480000
   6772   6778     1   0.14233 265014.560000
   6781   6782     1   0.15375 251793.120000
   6781   6795     1   0.15375 251793.120000
   6781   6803     1   0.14316 258236.480000
   6782   6785     1   0.15375 251793.120000
   6782   6794     1   0.14233 265014.560000
   6785   6786     1   0.15375 251793.120000
   6785   6793     1   0.14233 265014.560000
   6786   6787     1   0.15375 251793.120000
   6786   6792     1   0.14233 265014.560000
   6787   6791     1   0.14316 258236.480000
   6787   6803     1   0.14316 258236.480000
   6795   6801     1   0.14233 265014.560000
   6804   6805     1   0.15375 251793.120000
   6804   6818     1   0.15375 251793.120000
   6804   6826     1   0.14316 258236.480000
   6805   6808     1   0.15375 251793.120000
   6805   6817     1   0.14233 265014.560000
   6808   6809     1   0.15375 251793.120000
   6808   6816     1   0.14233 265014.560000
   6809   6810     1   0.15375 251793.120000
   6809   6815     1   0.14233 265014.560000
   6810   6814     1   0.14316 258236.480000
   6810   6826     1   0.14316 258236.480000
   6818   6824     1   0.14233 265014.560000
   6827   6828     1   0.15375 251793.120000
   6827   6841     1   0.15375 251793.120000
   6827   6849     1   0.14316 258236.480000
   6828   6831     1   0.15375 251793.120000
   6828   6840     1   0.14233 265014.560000
   6831   6832     1   0.15375 251793.120000
   6831   6839     1   0.14233 265014.560000
   6832   6833     1   0.15375 251793.120000
   6832   6838     1   0.14233 265014.560000
   6833   6837     1   0.14316 258236.480000
   6833   6849     1   0.14316 258236.480000
   6841   6847     1   0.14233 265014.560000
   6850   6851     1   0.15375 251793.120000
   6850   6864     1   0.15375 251793.120000
   6850   6872     1   0.14316 258236.480000
   6851   6854     1   0.15375 251793.120000
   6851   6863     1   0.14233 265014.560000
   6854   6855     1   0.15375 251793.120000
   6854   6862     1   0.14233 265014.560000
   6855   6856     1   0.15375 251793.120000
   6855   6861     1   0.14233 265014.560000
   6856   6860     1   0.14316 258236.480000
   6856   6872     1   0.14316 258236.480000
   6864   6870     1   0.14233 265014.560000
   6873   6874     1   0.15375 251793.120000
   6873   6887     1   0.15375 251793.120000
   6873   6895     1   0.14316 258236.480000
   6874   6877     1   0.15375 251793.120000
   6874   6886     1   0.14233 265014.560000
   6877   6878     1   0.15375 251793.120000
   6877   6885     1   0.14233 265014.560000
   6878   6879     1   0.15375 251793.120000
   6878   6884     1   0.14233 265014.560000
   6879   6883     1   0.14316 258236.480000
   6879   6895     1   0.14316 258236.480000
   6887   6893     1   0.14233 265014.560000
   6896   6897     1   0.15375 251793.120000
   6896   6910     1   0.15375 251793.120000
   6896   6918     1   0.14316 258236.480000
   6897   6900     1   0.15375 251793.120000
   6897   6909     1   0.14233 265014.560000
   6900   6901     1   0.15375 251793.120000
   6900   6908     1   0.14233 265014.560000
   6901   6902     1   0.15375 251793.120000
   6901   6907     1   0.14233 265014.560000
   6902   6906     1   0.14316 258236.480000
   6902   6918     1   0.14316 258236.480000
   6910   6916     1   0.14233 265014.560000
   6919   6920     1   0.15375 251793.120000
   6919   6933     1   0.15375 251793.120000
   6919   6941     1   0.14316 258236.480000
   6920   6923     1   0.15375 251793.120000
   6920   6932     1   0.14233 265014.560000
   6923   6924     1   0.15375 251793.120000
   6923   6931     1   0.14233 265014.560000
   6924   6925     1   0.15375 251793.120000
   6924   6930     1   0.14233 265014.560000
   6925   6929     1   0.14316 258236.480000
   6925   6941     1   0.14316 258236.480000
   6933   6939     1   0.14233 265014.560000
   6942   6943     1   0.15375 251793.120000
   6942   6956     1   0.15375 251793.120000
   6942   6964     1   0.14316 258236.480000
   6943   6946     1   0.15375 251793.120000
   6943   6955     1   0.14233 265014.560000
   6946   6947     1   0.15375 251793.120000
   6946   6954     1   0.14233 265014.560000
   6947   6948     1   0.15375 251793.120000
   6947   6953     1   0.14233 265014.560000
   6948   6952     1   0.14316 258236.480000
   6948   6964     1   0.14316 258236.480000
   6956   6962     1   0.14233 265014.560000
   6965   6966     1   0.15375 251793.120000
   6965   6979     1   0.15375 251793.120000
   6965   6987     1   0.14316 258236.480000
   6966   6969     1   0.15375 251793.120000
   6966   6978     1   0.14233 265014.560000
   6969   6970     1   0.15375 251793.120000
   6969   6977     1   0.14233 265014.560000
   6970   6971     1   0.15375 251793.120000
   6970   6976     1   0.14233 265014.560000
   6971   6975     1   0.14316 258236.480000
   6971   6987     1   0.14316 258236.480000
   6979   6985     1   0.14233 265014.560000
   6988   6989     1   0.15375 251793.120000
   6988   7002     1   0.15375 251793.120000
   6988   7010     1   0.14316 258236.480000
   6989   6992     1   0.15375 251793.120000
   6989   7001     1   0.14233 265014.560000
   6992   6993     1   0.15375 251793.120000
   6992   7000     1   0.14233 265014.560000
   6993   6994     1   0.15375 251793.120000
   6993   6999     1   0.14233 265014.560000
   6994   6998     1   0.14316 258236.480000
   6994   7010     1   0.14316 258236.480000
   7002   7008     1   0.14233 265014.560000
   7011   7012     1   0.15375 251793.120000
   7011   7025     1   0.15375 251793.120000
   7011   7033     1   0.14316 258236.480000
   7012   7015     1   0.15375 251793.120000
   7012   7024     1   0.14233 265014.560000
   7015   7016     1   0.15375 251793.120000
   7015   7023     1   0.14233 265014.560000
   7016   7017     1   0.15375 251793.120000
   7016   7022     1   0.14233 265014.560000
   7017   7021     1   0.14316 258236.480000
   7017   7033     1   0.14316 258236.480000
   7025   7031     1   0.14233 265014.560000
   7034   7035     1   0.15375 251793.120000
   7034   7048     1   0.15375 251793.120000
   7034   7056     1   0.14316 258236.480000
   7035   7038     1   0.15375 251793.120000
   7035   7047     1   0.14233 265014.560000
   7038   7039     1   0.15375 251793.120000
   7038   7046     1   0.14233 265014.560000
   7039   7040     1   0.15375 251793.120000
   7039   7045     1   0.14233 265014.560000
   7040   7044     1   0.14316 258236.480000
   7040   7056     1   0.14316 258236.480000
   7048   7054     1   0.14233 265014.560000
   7057   7058     1   0.15375 251793.120000
   7057   7071     1   0.15375 251793.120000
   7057   7079     1   0.14316 258236.480000
   7058   7061     1   0.15375 251793.120000
   7058   7070     1   0.14233 265014.560000
   7061   7062     1   0.15375 251793.120000
   7061   7069     1   0.14233 265014.560000
   7062   7063     1   0.15375 251793.120000
   7062   7068     1   0.14233 265014.560000
   7063   7067     1   0.14316 258236.480000
   7063   7079     1   0.14316 258236.480000
   7071   7077     1   0.14233 265014.560000
   7080   7081     1   0.15375 251793.120000
   7080   7094     1   0.15375 251793.120000
   7080   7102     1   0.14316 258236.480000
   7081   7084     1   0.15375 251793.120000
   7081   7093     1   0.14233 265014.560000
   7084   7085     1   0.15375 251793.120000
   7084   7092     1   0.14233 265014.560000
   7085   7086     1   0.15375 251793.120000
   7085   7091     1   0.14233 265014.560000
   7086   7090     1   0.14316 258236.480000
   7086   7102     1   0.14316 258236.480000
   7094   7100     1   0.14233 265014.560000
   7103   7104     1   0.15375 251793.120000
   7103   7117     1   0.15375 251793.120000
   7103   7125     1   0.14316 258236.480000
   7104   7107     1   0.15375 251793.120000
   7104   7116     1   0.14233 265014.560000
   7107   7108     1   0.15375 251793.120000
   7107   7115     1   0.14233 265014.560000
   7108   7109     1   0.15375 251793.120000
   7108   7114     1   0.14233 265014.560000
   7109   7113     1   0.14316 258236.480000
   7109   7125     1   0.14316 258236.480000
   7117   7123     1   0.14233 265014.560000
   7126   7127     1   0.15375 251793.120000
   7126   7140     1   0.15375 251793.120000
   7126   7148     1   0.14316 258236.480000
   7127   7130     1   0.15375 251793.120000
   7127   7139     1   0.14233 265014.560000
   7130   7131     1   0.15375 251793.120000
   7130   7138     1   0.14233 265014.560000
   7131   7132     1   0.15375 251793.120000
   7131   7137     1   0.14233 265014.560000
   7132   7136     1   0.14316 258236.480000
   7132   7148     1   0.14316 258236.480000
   7140   7146     1   0.14233 265014.560000
   7149   7150     1   0.15375 251793.120000
   7149   7163     1   0.15375 251793.120000
   7149   7171     1   0.14316 258236.480000
   7150   7153     1   0.15375 251793.120000
   7150   7162     1   0.14233 265014.560000
   7153   7154     1   0.15375 251793.120000
   7153   7161     1   0.14233 265014.560000
   7154   7155     1   0.15375 251793.120000
   7154   7160     1   0.14233 265014.560000
   7155   7159     1   0.14316 258236.480000
   7155   7171     1   0.14316 258236.480000
   7163   7169     1   0.14233 265014.560000
   7172   7173     1   0.15375 251793.120000
   7172   7186     1   0.15375 251793.120000
   7172   7194     1   0.14316 258236.480000
   7173   7176     1   0.15375 251793.120000
   7173   7185     1   0.14233 265014.560000
   7176   7177     1   0.15375 251793.120000
   7176   7184     1   0.14233 265014.560000
   7177   7178     1   0.15375 251793.120000
   7177   7183     1   0.14233 265014.560000
   7178   7182     1   0.14316 258236.480000
   7178   7194     1   0.14316 258236.480000
   7186   7192     1   0.14233 265014.560000
   7195   7196     1   0.15375 251793.120000
   7195   7209     1   0.15375 251793.120000
   7195   7217     1   0.14316 258236.480000
   7196   7199     1   0.15375 251793.120000
   7196   7208     1   0.14233 265014.560000
   7199   7200     1   0.15375 251793.120000
   7199   7207     1   0.14233 265014.560000
   7200   7201     1   0.15375 251793.120000
   7200   7206     1   0.14233 265014.560000
   7201   7205     1   0.14316 258236.480000
   7201   7217     1   0.14316 258236.480000
   7209   7215     1   0.14233 265014.560000
   7218   7219     1   0.15375 251793.120000
   7218   7232     1   0.15375 251793.120000
   7218   7240     1   0.14316 258236.480000
   7219   7222     1   0.15375 251793.120000
   7219   7231     1   0.14233 265014.560000
   7222   7223     1   0.15375 251793.120000
   7222   7230     1   0.14233 265014.560000
   7223   7224     1   0.15375 251793.120000
   7223   7229     1   0.14233 265014.560000
   7224   7228     1   0.14316 258236.480000
   7224   7240     1   0.14316 258236.480000
   7232   7238     1   0.14233 265014.560000
   7241   7242     1   0.15375 251793.120000
   7241   7255     1   0.15375 251793.120000
   7241   7263     1   0.14316 258236.480000
   7242   7245     1   0.15375 251793.120000
   7242   7254     1   0.14233 265014.560000
   7245   7246     1   0.15375 251793.120000
   7245   7253     1   0.14233 265014.560000
   7246   7247     1   0.15375 251793.120000
   7246   7252     1   0.14233 265014.560000
   7247   7251     1   0.14316 258236.480000
   7247   7263     1   0.14316 258236.480000
   7255   7261     1   0.14233 265014.560000
   7264   7265     1   0.15375 251793.120000
   7264   7278     1   0.15375 251793.120000
   7264   7286     1   0.14316 258236.480000
   7265   7268     1   0.15375 251793.120000
   7265   7277     1   0.14233 265014.560000
   7268   7269     1   0.15375 251793.120000
   7268   7276     1   0.14233 265014.560000
   7269   7270     1   0.15375 251793.120000
   7269   7275     1   0.14233 265014.560000
   7270   7274     1   0.14316 258236.480000
   7270   7286     1   0.14316 258236.480000
   7278   7284     1   0.14233 265014.560000
   7287   7288     1   0.15375 251793.120000
   7287   7301     1   0.15375 251793.120000
   7287   7309     1   0.14316 258236.480000
   7288   7291     1   0.15375 251793.120000
   7288   7300     1   0.14233 265014.560000
   7291   7292     1   0.15375 251793.120000
   7291   7299     1   0.14233 265014.560000
   7292   7293     1   0.15375 251793.120000
   7292   7298     1   0.14233 265014.560000
   7293   7297     1   0.14316 258236.480000
   7293   7309     1   0.14316 258236.480000
   7301   7307     1   0.14233 265014.560000
   7310   7311     1   0.15375 251793.120000
   7310   7324     1   0.15375 251793.120000
   7310   7332     1   0.14316 258236.480000
   7311   7314     1   0.15375 251793.120000
   7311   7323     1   0.14233 265014.560000
   7314   7315     1   0.15375 251793.120000
   7314   7322     1   0.14233 265014.560000
   7315   7316     1   0.15375 251793.120000
   7315   7321     1   0.14233 265014.560000
   7316   7320     1   0.14316 258236.480000
   7316   7332     1   0.14316 258236.480000
   7324   7330     1   0.14233 265014.560000
   7333   7334     1   0.15375 251793.120000
   7333   7347     1   0.15375 251793.120000
   7333   7355     1   0.14316 258236.480000
   7334   7337     1   0.15375 251793.120000
   7334   7346     1   0.14233 265014.560000
   7337   7338     1   0.15375 251793.120000
   7337   7345     1   0.14233 265014.560000
   7338   7339     1   0.15375 251793.120000
   7338   7344     1   0.14233 265014.560000
   7339   7343     1   0.14316 258236.480000
   7339   7355     1   0.14316 258236.480000
   7347   7353     1   0.14233 265014.560000
   7356   7357     1   0.15375 251793.120000
   7356   7370     1   0.15375 251793.120000
   7356   7378     1   0.14316 258236.480000
   7357   7360     1   0.15375 251793.120000
   7357   7369     1   0.14233 265014.560000
   7360   7361     1   0.15375 251793.120000
   7360   7368     1   0.14233 265014.560000
   7361   7362     1   0.15375 251793.120000
   7361   7367     1   0.14233 265014.560000
   7362   7366     1   0.14316 258236.480000
   7362   7378     1   0.14316 258236.480000
   7370   7376     1   0.14233 265014.560000
   7379   7380     1   0.15375 251793.120000
   7379   7393     1   0.15375 251793.120000
   7379   7401     1   0.14316 258236.480000
   7380   7383     1   0.15375 251793.120000
   7380   7392     1   0.14233 265014.560000
   7383   7384     1   0.15375 251793.120000
   7383   7391     1   0.14233 265014.560000
   7384   7385     1   0.15375 251793.120000
   7384   7390     1   0.14233 265014.560000
   7385   7389     1   0.14316 258236.480000
   7385   7401     1   0.14316 258236.480000
   7393   7399     1   0.14233 265014.560000
   7402   7403     1   0.15375 251793.120000
   7402   7416     1   0.15375 251793.120000
   7402   7424     1   0.14316 258236.480000
   7403   7406     1   0.15375 251793.120000
   7403   7415     1   0.14233 265014.560000
   7406   7407     1   0.15375 251793.120000
   7406   7414     1   0.14233 265014.560000
   7407   7408     1   0.15375 251793.120000
   7407   7413     1   0.14233 265014.560000
   7408   7412     1   0.14316 258236.480000
   7408   7424     1   0.14316 258236.480000
   7416   7422     1   0.14233 265014.560000
   7425   7426     1   0.15375 251793.120000
   7425   7439     1   0.15375 251793.120000
   7425   7447     1   0.14316 258236.480000
   7426   7429     1   0.15375 251793.120000
   7426   7438     1   0.14233 265014.560000
   7429   7430     1   0.15375 251793.120000
   7429   7437     1   0.14233 265014.560000
   7430   7431     1   0.15375 251793.120000
   7430   7436     1   0.14233 265014.560000
   7431   7435     1   0.14316 258236.480000
   7431   7447     1   0.14316 258236.480000
   7439   7445     1   0.14233 265014.560000
   7448   7449     1   0.15375 251793.120000
   7448   7462     1   0.15375 251793.120000
   7448   7470     1   0.14316 258236.480000
   7449   7452     1   0.15375 251793.120000
   7449   7461     1   0.14233 265014.560000
   7452   7453     1   0.15375 251793.120000
   7452   7460     1   0.14233 265014.560000
   7453   7454     1   0.15375 251793.120000
   7453   7459     1   0.14233 265014.560000
   7454   7458     1   0.14316 258236.480000
   7454   7470     1   0.14316 258236.480000
   7462   7468     1   0.14233 265014.560000
   7471   7472     1   0.15375 251793.120000
   7471   7485     1   0.15375 251793.120000
   7471   7493     1   0.14316 258236.480000
   7472   7475     1   0.15375 251793.120000
   7472   7484     1   0.14233 265014.560000
   7475   7476     1   0.15375 251793.120000
   7475   7483     1   0.14233 265014.560000
   7476   7477     1   0.15375 251793.120000
   7476   7482     1   0.14233 265014.560000
   7477   7481     1   0.14316 258236.480000
   7477   7493     1   0.14316 258236.480000
   7485   7491     1   0.14233 265014.560000
   7494   7495     1   0.15375 251793.120000
   7494   7508     1   0.15375 251793.120000
   7494   7516     1   0.14316 258236.480000
   7495   7498     1   0.15375 251793.120000
   7495   7507     1   0.14233 265014.560000
   7498   7499     1   0.15375 251793.120000
   7498   7506     1   0.14233 265014.560000
   7499   7500     1   0.15375 251793.120000
   7499   7505     1   0.14233 265014.560000
   7500   7504     1   0.14316 258236.480000
   7500   7516     1   0.14316 258236.480000
   7508   7514     1   0.14233 265014.560000
   7517   7518     1   0.15375 251793.120000
   7517   7531     1   0.15375 251793.120000
   7517   7539     1   0.14316 258236.480000
   7518   7521     1   0.15375 251793.120000
   7518   7530     1   0.14233 265014.560000
   7521   7522     1   0.15375 251793.120000
   7521   7529     1   0.14233 265014.560000
   7522   7523     1   0.15375 251793.120000
   7522   7528     1   0.14233 265014.560000
   7523   7527     1   0.14316 258236.480000
   7523   7539     1   0.14316 258236.480000
   7531   7537     1   0.14233 265014.560000
   7540   7541     1   0.15375 251793.120000
   7540   7554     1   0.15375 251793.120000
   7540   7562     1   0.14316 258236.480000
   7541   7544     1   0.15375 251793.120000
   7541   7553     1   0.14233 265014.560000
   7544   7545     1   0.15375 251793.120000
   7544   7552     1   0.14233 265014.560000
   7545   7546     1   0.15375 251793.120000
   7545   7551     1   0.14233 265014.560000
   7546   7550     1   0.14316 258236.480000
   7546   7562     1   0.14316 258236.480000
   7554   7560     1   0.14233 265014.560000
   7563   7564     1   0.15375 251793.120000
   7563   7577     1   0.15375 251793.120000
   7563   7585     1   0.14316 258236.480000
   7564   7567     1   0.15375 251793.120000
   7564   7576     1   0.14233 265014.560000
   7567   7568     1   0.15375 251793.120000
   7567   7575     1   0.14233 265014.560000
   7568   7569     1   0.15375 251793.120000
   7568   7574     1   0.14233 265014.560000
   7569   7573     1   0.14316 258236.480000
   7569   7585     1   0.14316 258236.480000
   7577   7583     1   0.14233 265014.560000
   7586   7587     1   0.15375 251793.120000
   7586   7600     1   0.15375 251793.120000
   7586   7608     1   0.14316 258236.480000
   7587   7590     1   0.15375 251793.120000
   7587   7599     1   0.14233 265014.560000
   7590   7591     1   0.15375 251793.120000
   7590   7598     1   0.14233 265014.560000
   7591   7592     1   0.15375 251793.120000
   7591   7597     1   0.14233 265014.560000
   7592   7596     1   0.14316 258236.480000
   7592   7608     1   0.14316 258236.480000
   7600   7606     1   0.14233 265014.560000
   7609   7610     1   0.15375 251793.120000
   7609   7623     1   0.15375 251793.120000
   7609   7631     1   0.14316 258236.480000
   7610   7613     1   0.15375 251793.120000
   7610   7622     1   0.14233 265014.560000
   7613   7614     1   0.15375 251793.120000
   7613   7621     1   0.14233 265014.560000
   7614   7615     1   0.15375 251793.120000
   7614   7620     1   0.14233 265014.560000
   7615   7619     1   0.14316 258236.480000
   7615   7631     1   0.14316 258236.480000
   7623   7629     1   0.14233 265014.560000
   7632   7633     1   0.15375 251793.120000
   7632   7646     1   0.15375 251793.120000
   7632   7654     1   0.14316 258236.480000
   7633   7636     1   0.15375 251793.120000
   7633   7645     1   0.14233 265014.560000
   7636   7637     1   0.15375 251793.120000
   7636   7644     1   0.14233 265014.560000
   7637   7638     1   0.15375 251793.120000
   7637   7643     1   0.14233 265014.560000
   7638   7642     1   0.14316 258236.480000
   7638   7654     1   0.14316 258236.480000
   7646   7652     1   0.14233 265014.560000
   7655   7656     1   0.15375 251793.120000
   7655   7669     1   0.15375 251793.120000
   7655   7677     1   0.14316 258236.480000
   7656   7659     1   0.15375 251793.120000
   7656   7668     1   0.14233 265014.560000
   7659   7660     1   0.15375 251793.120000
   7659   7667     1   0.14233 265014.560000
   7660   7661     1   0.15375 251793.120000
   7660   7666     1   0.14233 265014.560000
   7661   7665     1   0.14316 258236.480000
   7661   7677     1   0.14316 258236.480000
   7669   7675     1   0.14233 265014.560000
   7678   7679     1   0.15375 251793.120000
   7678   7692     1   0.15375 251793.120000
   7678   7700     1   0.14316 258236.480000
   7679   7682     1   0.15375 251793.120000
   7679   7691     1   0.14233 265014.560000
   7682   7683     1   0.15375 251793.120000
   7682   7690     1   0.14233 265014.560000
   7683   7684     1   0.15375 251793.120000
   7683   7689     1   0.14233 265014.560000
   7684   7688     1   0.14316 258236.480000
   7684   7700     1   0.14316 258236.480000
   7692   7698     1   0.14233 265014.560000
   7701   7702     1   0.15375 251793.120000
   7701   7715     1   0.15375 251793.120000
   7701   7723     1   0.14316 258236.480000
   7702   7705     1   0.15375 251793.120000
   7702   7714     1   0.14233 265014.560000
   7705   7706     1   0.15375 251793.120000
   7705   7713     1   0.14233 265014.560000
   7706   7707     1   0.15375 251793.120000
   7706   7712     1   0.14233 265014.560000
   7707   7711     1   0.14316 258236.480000
   7707   7723     1   0.14316 258236.480000
   7715   7721     1   0.14233 265014.560000
   7724   7725     1   0.15375 251793.120000
   7724   7738     1   0.15375 251793.120000
   7724   7746     1   0.14316 258236.480000
   7725   7728     1   0.15375 251793.120000
   7725   7737     1   0.14233 265014.560000
   7728   7729     1   0.15375 251793.120000
   7728   7736     1   0.14233 265014.560000
   7729   7730     1   0.15375 251793.120000
   7729   7735     1   0.14233 265014.560000
   7730   7734     1   0.14316 258236.480000
   7730   7746     1   0.14316 258236.480000
   7738   7744     1   0.14233 265014.560000
   7747   7748     1   0.15375 251793.120000
   7747   7761     1   0.15375 251793.120000
   7747   7769     1   0.14316 258236.480000
   7748   7751     1   0.15375 251793.120000
   7748   7760     1   0.14233 265014.560000
   7751   7752     1   0.15375 251793.120000
   7751   7759     1   0.14233 265014.560000
   7752   7753     1   0.15375 251793.120000
   7752   7758     1   0.14233 265014.560000
   7753   7757     1   0.14316 258236.480000
   7753   7769     1   0.14316 258236.480000
   7761   7767     1   0.14233 265014.560000
   7770   7771     1   0.15375 251793.120000
   7770   7784     1   0.15375 251793.120000
   7770   7792     1   0.14316 258236.480000
   7771   7774     1   0.15375 251793.120000
   7771   7783     1   0.14233 265014.560000
   7774   7775     1   0.15375 251793.120000
   7774   7782     1   0.14233 265014.560000
   7775   7776     1   0.15375 251793.120000
   7775   7781     1   0.14233 265014.560000
   7776   7780     1   0.14316 258236.480000
   7776   7792     1   0.14316 258236.480000
   7784   7790     1   0.14233 265014.560000
   7793   7794     1   0.15375 251793.120000
   7793   7807     1   0.15375 251793.120000
   7793   7815     1   0.14316 258236.480000
   7794   7797     1   0.15375 251793.120000
   7794   7806     1   0.14233 265014.560000
   7797   7798     1   0.15375 251793.120000
   7797   7805     1   0.14233 265014.560000
   7798   7799     1   0.15375 251793.120000
   7798   7804     1   0.14233 265014.560000
   7799   7803     1   0.14316 258236.480000
   7799   7815     1   0.14316 258236.480000
   7807   7813     1   0.14233 265014.560000
   7816   7817     1   0.15375 251793.120000
   7816   7830     1   0.15375 251793.120000
   7816   7838     1   0.14316 258236.480000
   7817   7820     1   0.15375 251793.120000
   7817   7829     1   0.14233 265014.560000
   7820   7821     1   0.15375 251793.120000
   7820   7828     1   0.14233 265014.560000
   7821   7822     1   0.15375 251793.120000
   7821   7827     1   0.14233 265014.560000
   7822   7826     1   0.14316 258236.480000
   7822   7838     1   0.14316 258236.480000
   7830   7836     1   0.14233 265014.560000
   7839   7840     1   0.15375 251793.120000
   7839   7853     1   0.15375 251793.120000
   7839   7861     1   0.14316 258236.480000
   7840   7843     1   0.15375 251793.120000
   7840   7852     1   0.14233 265014.560000
   7843   7844     1   0.15375 251793.120000
   7843   7851     1   0.14233 265014.560000
   7844   7845     1   0.15375 251793.120000
   7844   7850     1   0.14233 265014.560000
   7845   7849     1   0.14316 258236.480000
   7845   7861     1   0.14316 258236.480000
   7853   7859     1   0.14233 265014.560000
   7862   7863     1   0.15375 251793.120000
   7862   7876     1   0.15375 251793.120000
   7862   7884     1   0.14316 258236.480000
   7863   7866     1   0.15375 251793.120000
   7863   7875     1   0.14233 265014.560000
   7866   7867     1   0.15375 251793.120000
   7866   7874     1   0.14233 265014.560000
   7867   7868     1   0.15375 251793.120000
   7867   7873     1   0.14233 265014.560000
   7868   7872     1   0.14316 258236.480000
   7868   7884     1   0.14316 258236.480000
   7876   7882     1   0.14233 265014.560000
   7885   7886     1   0.15375 251793.120000
   7885   7899     1   0.15375 251793.120000
   7885   7907     1   0.14316 258236.480000
   7886   7889     1   0.15375 251793.120000
   7886   7898     1   0.14233 265014.560000
   7889   7890     1   0.15375 251793.120000
   7889   7897     1   0.14233 265014.560000
   7890   7891     1   0.15375 251793.120000
   7890   7896     1   0.14233 265014.560000
   7891   7895     1   0.14316 258236.480000
   7891   7907     1   0.14316 258236.480000
   7899   7905     1   0.14233 265014.560000
   7908   7909     1   0.15375 251793.120000
   7908   7922     1   0.15375 251793.120000
   7908   7930     1   0.14316 258236.480000
   7909   7912     1   0.15375 251793.120000
   7909   7921     1   0.14233 265014.560000
   7912   7913     1   0.15375 251793.120000
   7912   7920     1   0.14233 265014.560000
   7913   7914     1   0.15375 251793.120000
   7913   7919     1   0.14233 265014.560000
   7914   7918     1   0.14316 258236.480000
   7914   7930     1   0.14316 258236.480000
   7922   7928     1   0.14233 265014.560000
   7931   7932     1   0.15375 251793.120000
   7931   7945     1   0.15375 251793.120000
   7931   7953     1   0.14316 258236.480000
   7932   7935     1   0.15375 251793.120000
   7932   7944     1   0.14233 265014.560000
   7935   7936     1   0.15375 251793.120000
   7935   7943     1   0.14233 265014.560000
   7936   7937     1   0.15375 251793.120000
   7936   7942     1   0.14233 265014.560000
   7937   7941     1   0.14316 258236.480000
   7937   7953     1   0.14316 258236.480000
   7945   7951     1   0.14233 265014.560000
   7954   7955     1   0.15375 251793.120000
   7954   7968     1   0.15375 251793.120000
   7954   7976     1   0.14316 258236.480000
   7955   7958     1   0.15375 251793.120000
   7955   7967     1   0.14233 265014.560000
   7958   7959     1   0.15375 251793.120000
   7958   7966     1   0.14233 265014.560000
   7959   7960     1   0.15375 251793.120000
   7959   7965     1   0.14233 265014.560000
   7960   7964     1   0.14316 258236.480000
   7960   7976     1   0.14316 258236.480000
   7968   7974     1   0.14233 265014.560000
   7977   7978     1   0.15375 251793.120000
   7977   7991     1   0.15375 251793.120000
   7977   7999     1   0.14316 258236.480000
   7978   7981     1   0.15375 251793.120000
   7978   7990     1   0.14233 265014.560000
   7981   7982     1   0.15375 251793.120000
   7981   7989     1   0.14233 265014.560000
   7982   7983     1   0.15375 251793.120000
   7982   7988     1   0.14233 265014.560000
   7983   7987     1   0.14316 258236.480000
   7983   7999     1   0.14316 258236.480000
   7991   7997     1   0.14233 265014.560000
   8000   8001     1   0.15375 251793.120000
   8000   8014     1   0.15375 251793.120000
   8000   8022     1   0.14316 258236.480000
   8001   8004     1   0.15375 251793.120000
   8001   8013     1   0.14233 265014.560000
   8004   8005     1   0.15375 251793.120000
   8004   8012     1   0.14233 265014.560000
   8005   8006     1   0.15375 251793.120000
   8005   8011     1   0.14233 265014.560000
   8006   8010     1   0.14316 258236.480000
   8006   8022     1   0.14316 258236.480000
   8014   8020     1   0.14233 265014.560000
   8023   8024     1   0.15375 251793.120000
   8023   8037     1   0.15375 251793.120000
   8023   8045     1   0.14316 258236.480000
   8024   8027     1   0.15375 251793.120000
   8024   8036     1   0.14233 265014.560000
   8027   8028     1   0.15375 251793.120000
   8027   8035     1   0.14233 265014.560000
   8028   8029     1   0.15375 251793.120000
   8028   8034     1   0.14233 265014.560000
   8029   8033     1   0.14316 258236.480000
   8029   8045     1   0.14316 258236.480000
   8037   8043     1   0.14233 265014.560000
   8046   8047     1   0.15375 251793.120000
   8046   8060     1   0.15375 251793.120000
   8046   8068     1   0.14316 258236.480000
   8047   8050     1   0.15375 251793.120000
   8047   8059     1   0.14233 265014.560000
   8050   8051     1   0.15375 251793.120000
   8050   8058     1   0.14233 265014.560000
   8051   8052     1   0.15375 251793.120000
   8051   8057     1   0.14233 265014.560000
   8052   8056     1   0.14316 258236.480000
   8052   8068     1   0.14316 258236.480000
   8060   8066     1   0.14233 265014.560000
   8069   8070     1   0.15375 251793.120000
   8069   8083     1   0.15375 251793.120000
   8069   8091     1   0.14316 258236.480000
   8070   8073     1   0.15375 251793.120000
   8070   8082     1   0.14233 265014.560000
   8073   8074     1   0.15375 251793.120000
   8073   8081     1   0.14233 265014.560000
   8074   8075     1   0.15375 251793.120000
   8074   8080     1   0.14233 265014.560000
   8075   8079     1   0.14316 258236.480000
   8075   8091     1   0.14316 258236.480000
   8083   8089     1   0.14233 265014.560000
   8092   8093     1   0.15375 251793.120000
   8092   8106     1   0.15375 251793.120000
   8092   8114     1   0.14316 258236.480000
   8093   8096     1   0.15375 251793.120000
   8093   8105     1   0.14233 265014.560000
   8096   8097     1   0.15375 251793.120000
   8096   8104     1   0.14233 265014.560000
   8097   8098     1   0.15375 251793.120000
   8097   8103     1   0.14233 265014.560000
   8098   8102     1   0.14316 258236.480000
   8098   8114     1   0.14316 258236.480000
   8106   8112     1   0.14233 265014.560000
   8115   8116     1   0.15375 251793.120000
   8115   8129     1   0.15375 251793.120000
   8115   8137     1   0.14316 258236.480000
   8116   8119     1   0.15375 251793.120000
   8116   8128     1   0.14233 265014.560000
   8119   8120     1   0.15375 251793.120000
   8119   8127     1   0.14233 265014.560000
   8120   8121     1   0.15375 251793.120000
   8120   8126     1   0.14233 265014.560000
   8121   8125     1   0.14316 258236.480000
   8121   8137     1   0.14316 258236.480000
   8129   8135     1   0.14233 265014.560000
   8138   8139     1   0.15375 251793.120000
   8138   8152     1   0.15375 251793.120000
   8138   8160     1   0.14316 258236.480000
   8139   8142     1   0.15375 251793.120000
   8139   8151     1   0.14233 265014.560000
   8142   8143     1   0.15375 251793.120000
   8142   8150     1   0.14233 265014.560000
   8143   8144     1   0.15375 251793.120000
   8143   8149     1   0.14233 265014.560000
   8144   8148     1   0.14316 258236.480000
   8144   8160     1   0.14316 258236.480000
   8152   8158     1   0.14233 265014.560000
   8161   8162     1   0.15375 251793.120000
   8161   8175     1   0.15375 251793.120000
   8161   8183     1   0.14316 258236.480000
   8162   8165     1   0.15375 251793.120000
   8162   8174     1   0.14233 265014.560000
   8165   8166     1   0.15375 251793.120000
   8165   8173     1   0.14233 265014.560000
   8166   8167     1   0.15375 251793.120000
   8166   8172     1   0.14233 265014.560000
   8167   8171     1   0.14316 258236.480000
   8167   8183     1   0.14316 258236.480000
   8175   8181     1   0.14233 265014.560000
   8184   8185     1   0.15375 251793.120000
   8184   8198     1   0.15375 251793.120000
   8184   8206     1   0.14316 258236.480000
   8185   8188     1   0.15375 251793.120000
   8185   8197     1   0.14233 265014.560000
   8188   8189     1   0.15375 251793.120000
   8188   8196     1   0.14233 265014.560000
   8189   8190     1   0.15375 251793.120000
   8189   8195     1   0.14233 265014.560000
   8190   8194     1   0.14316 258236.480000
   8190   8206     1   0.14316 258236.480000
   8198   8204     1   0.14233 265014.560000
   8207   8208     1   0.15375 251793.120000
   8207   8221     1   0.15375 251793.120000
   8207   8229     1   0.14316 258236.480000
   8208   8211     1   0.15375 251793.120000
   8208   8220     1   0.14233 265014.560000
   8211   8212     1   0.15375 251793.120000
   8211   8219     1   0.14233 265014.560000
   8212   8213     1   0.15375 251793.120000
   8212   8218     1   0.14233 265014.560000
   8213   8217     1   0.14316 258236.480000
   8213   8229     1   0.14316 258236.480000
   8221   8227     1   0.14233 265014.560000
   8230   8231     1   0.15375 251793.120000
   8230   8244     1   0.15375 251793.120000
   8230   8252     1   0.14316 258236.480000
   8231   8234     1   0.15375 251793.120000
   8231   8243     1   0.14233 265014.560000
   8234   8235     1   0.15375 251793.120000
   8234   8242     1   0.14233 265014.560000
   8235   8236     1   0.15375 251793.120000
   8235   8241     1   0.14233 265014.560000
   8236   8240     1   0.14316 258236.480000
   8236   8252     1   0.14316 258236.480000
   8244   8250     1   0.14233 265014.560000
   8253   8254     1   0.15375 251793.120000
   8253   8267     1   0.15375 251793.120000
   8253   8275     1   0.14316 258236.480000
   8254   8257     1   0.15375 251793.120000
   8254   8266     1   0.14233 265014.560000
   8257   8258     1   0.15375 251793.120000
   8257   8265     1   0.14233 265014.560000
   8258   8259     1   0.15375 251793.120000
   8258   8264     1   0.14233 265014.560000
   8259   8263     1   0.14316 258236.480000
   8259   8275     1   0.14316 258236.480000
   8267   8273     1   0.14233 265014.560000
   8276   8277     1   0.15375 251793.120000
   8276   8290     1   0.15375 251793.120000
   8276   8298     1   0.14316 258236.480000
   8277   8280     1   0.15375 251793.120000
   8277   8289     1   0.14233 265014.560000
   8280   8281     1   0.15375 251793.120000
   8280   8288     1   0.14233 265014.560000
   8281   8282     1   0.15375 251793.120000
   8281   8287     1   0.14233 265014.560000
   8282   8286     1   0.14316 258236.480000
   8282   8298     1   0.14316 258236.480000
   8290   8296     1   0.14233 265014.560000
   8299   8300     1   0.15375 251793.120000
   8299   8313     1   0.15375 251793.120000
   8299   8321     1   0.14316 258236.480000
   8300   8303     1   0.15375 251793.120000
   8300   8312     1   0.14233 265014.560000
   8303   8304     1   0.15375 251793.120000
   8303   8311     1   0.14233 265014.560000
   8304   8305     1   0.15375 251793.120000
   8304   8310     1   0.14233 265014.560000
   8305   8309     1   0.14316 258236.480000
   8305   8321     1   0.14316 258236.480000
   8313   8319     1   0.14233 265014.560000
   8322   8323     1   0.15375 251793.120000
   8322   8336     1   0.15375 251793.120000
   8322   8344     1   0.14316 258236.480000
   8323   8326     1   0.15375 251793.120000
   8323   8335     1   0.14233 265014.560000
   8326   8327     1   0.15375 251793.120000
   8326   8334     1   0.14233 265014.560000
   8327   8328     1   0.15375 251793.120000
   8327   8333     1   0.14233 265014.560000
   8328   8332     1   0.14316 258236.480000
   8328   8344     1   0.14316 258236.480000
   8336   8342     1   0.14233 265014.560000
   8345   8346     1   0.15375 251793.120000
   8345   8359     1   0.15375 251793.120000
   8345   8367     1   0.14316 258236.480000
   8346   8349     1   0.15375 251793.120000
   8346   8358     1   0.14233 265014.560000
   8349   8350     1   0.15375 251793.120000
   8349   8357     1   0.14233 265014.560000
   8350   8351     1   0.15375 251793.120000
   8350   8356     1   0.14233 265014.560000
   8351   8355     1   0.14316 258236.480000
   8351   8367     1   0.14316 258236.480000
   8359   8365     1   0.14233 265014.560000
   8368   8369     1   0.15375 251793.120000
   8368   8382     1   0.15375 251793.120000
   8368   8390     1   0.14316 258236.480000
   8369   8372     1   0.15375 251793.120000
   8369   8381     1   0.14233 265014.560000
   8372   8373     1   0.15375 251793.120000
   8372   8380     1   0.14233 265014.560000
   8373   8374     1   0.15375 251793.120000
   8373   8379     1   0.14233 265014.560000
   8374   8378     1   0.14316 258236.480000
   8374   8390     1   0.14316 258236.480000
   8382   8388     1   0.14233 265014.560000
   8391   8392     1   0.15375 251793.120000
   8391   8405     1   0.15375 251793.120000
   8391   8413     1   0.14316 258236.480000
   8392   8395     1   0.15375 251793.120000
   8392   8404     1   0.14233 265014.560000
   8395   8396     1   0.15375 251793.120000
   8395   8403     1   0.14233 265014.560000
   8396   8397     1   0.15375 251793.120000
   8396   8402     1   0.14233 265014.560000
   8397   8401     1   0.14316 258236.480000
   8397   8413     1   0.14316 258236.480000
   8405   8411     1   0.14233 265014.560000
   8414   8415     1   0.15375 251793.120000
   8414   8428     1   0.15375 251793.120000
   8414   8436     1   0.14316 258236.480000
   8415   8418     1   0.15375 251793.120000
   8415   8427     1   0.14233 265014.560000
   8418   8419     1   0.15375 251793.120000
   8418   8426     1   0.14233 265014.560000
   8419   8420     1   0.15375 251793.120000
   8419   8425     1   0.14233 265014.560000
   8420   8424     1   0.14316 258236.480000
   8420   8436     1   0.14316 258236.480000
   8428   8434     1   0.14233 265014.560000
   8437   8438     1   0.15375 251793.120000
   8437   8451     1   0.15375 251793.120000
   8437   8459     1   0.14316 258236.480000
   8438   8441     1   0.15375 251793.120000
   8438   8450     1   0.14233 265014.560000
   8441   8442     1   0.15375 251793.120000
   8441   8449     1   0.14233 265014.560000
   8442   8443     1   0.15375 251793.120000
   8442   8448     1   0.14233 265014.560000
   8443   8447     1   0.14316 258236.480000
   8443   8459     1   0.14316 258236.480000
   8451   8457     1   0.14233 265014.560000
   8460   8461     1   0.15375 251793.120000
   8460   8474     1   0.15375 251793.120000
   8460   8482     1   0.14316 258236.480000
   8461   8464     1   0.15375 251793.120000
   8461   8473     1   0.14233 265014.560000
   8464   8465     1   0.15375 251793.120000
   8464   8472     1   0.14233 265014.560000
   8465   8466     1   0.15375 251793.120000
   8465   8471     1   0.14233 265014.560000
   8466   8470     1   0.14316 258236.480000
   8466   8482     1   0.14316 258236.480000
   8474   8480     1   0.14233 265014.560000
   8483   8484     1   0.15375 251793.120000
   8483   8497     1   0.15375 251793.120000
   8483   8505     1   0.14316 258236.480000
   8484   8487     1   0.15375 251793.120000
   8484   8496     1   0.14233 265014.560000
   8487   8488     1   0.15375 251793.120000
   8487   8495     1   0.14233 265014.560000
   8488   8489     1   0.15375 251793.120000
   8488   8494     1   0.14233 265014.560000
   8489   8493     1   0.14316 258236.480000
   8489   8505     1   0.14316 258236.480000
   8497   8503     1   0.14233 265014.560000
   8506   8507     1   0.15375 251793.120000
   8506   8520     1   0.15375 251793.120000
   8506   8528     1   0.14316 258236.480000
   8507   8510     1   0.15375 251793.120000
   8507   8519     1   0.14233 265014.560000
   8510   8511     1   0.15375 251793.120000
   8510   8518     1   0.14233 265014.560000
   8511   8512     1   0.15375 251793.120000
   8511   8517     1   0.14233 265014.560000
   8512   8516     1   0.14316 258236.480000
   8512   8528     1   0.14316 258236.480000
   8520   8526     1   0.14233 265014.560000
   8529   8530     1   0.15375 251793.120000
   8529   8543     1   0.15375 251793.120000
   8529   8551     1   0.14316 258236.480000
   8530   8533     1   0.15375 251793.120000
   8530   8542     1   0.14233 265014.560000
   8533   8534     1   0.15375 251793.120000
   8533   8541     1   0.14233 265014.560000
   8534   8535     1   0.15375 251793.120000
   8534   8540     1   0.14233 265014.560000
   8535   8539     1   0.14316 258236.480000
   8535   8551     1   0.14316 258236.480000
   8543   8549     1   0.14233 265014.560000
   8552   8553     1   0.15375 251793.120000
   8552   8566     1   0.15375 251793.120000
   8552   8574     1   0.14316 258236.480000
   8553   8556     1   0.15375 251793.120000
   8553   8565     1   0.14233 265014.560000
   8556   8557     1   0.15375 251793.120000
   8556   8564     1   0.14233 265014.560000
   8557   8558     1   0.15375 251793.120000
   8557   8563     1   0.14233 265014.560000
   8558   8562     1   0.14316 258236.480000
   8558   8574     1   0.14316 258236.480000
   8566   8572     1   0.14233 265014.560000
   8575   8576     1   0.15375 251793.120000
   8575   8589     1   0.15375 251793.120000
   8575   8597     1   0.14316 258236.480000
   8576   8579     1   0.15375 251793.120000
   8576   8588     1   0.14233 265014.560000
   8579   8580     1   0.15375 251793.120000
   8579   8587     1   0.14233 265014.560000
   8580   8581     1   0.15375 251793.120000
   8580   8586     1   0.14233 265014.560000
   8581   8585     1   0.14316 258236.480000
   8581   8597     1   0.14316 258236.480000
   8589   8595     1   0.14233 265014.560000
   8598   8599     1   0.15375 251793.120000
   8598   8612     1   0.15375 251793.120000
   8598   8620     1   0.14316 258236.480000
   8599   8602     1   0.15375 251793.120000
   8599   8611     1   0.14233 265014.560000
   8602   8603     1   0.15375 251793.120000
   8602   8610     1   0.14233 265014.560000
   8603   8604     1   0.15375 251793.120000
   8603   8609     1   0.14233 265014.560000
   8604   8608     1   0.14316 258236.480000
   8604   8620     1   0.14316 258236.480000
   8612   8618     1   0.14233 265014.560000
   8621   8622     1   0.15375 251793.120000
   8621   8635     1   0.15375 251793.120000
   8621   8643     1   0.14316 258236.480000
   8622   8625     1   0.15375 251793.120000
   8622   8634     1   0.14233 265014.560000
   8625   8626     1   0.15375 251793.120000
   8625   8633     1   0.14233 265014.560000
   8626   8627     1   0.15375 251793.120000
   8626   8632     1   0.14233 265014.560000
   8627   8631     1   0.14316 258236.480000
   8627   8643     1   0.14316 258236.480000
   8635   8641     1   0.14233 265014.560000
   8644   8645     1   0.15375 251793.120000
   8644   8658     1   0.15375 251793.120000
   8644   8666     1   0.14316 258236.480000
   8645   8648     1   0.15375 251793.120000
   8645   8657     1   0.14233 265014.560000
   8648   8649     1   0.15375 251793.120000
   8648   8656     1   0.14233 265014.560000
   8649   8650     1   0.15375 251793.120000
   8649   8655     1   0.14233 265014.560000
   8650   8654     1   0.14316 258236.480000
   8650   8666     1   0.14316 258236.480000
   8658   8664     1   0.14233 265014.560000
   8667   8668     1   0.15375 251793.120000
   8667   8681     1   0.15375 251793.120000
   8667   8689     1   0.14316 258236.480000
   8668   8671     1   0.15375 251793.120000
   8668   8680     1   0.14233 265014.560000
   8671   8672     1   0.15375 251793.120000
   8671   8679     1   0.14233 265014.560000
   8672   8673     1   0.15375 251793.120000
   8672   8678     1   0.14233 265014.560000
   8673   8677     1   0.14316 258236.480000
   8673   8689     1   0.14316 258236.480000
   8681   8687     1   0.14233 265014.560000
   8690   8691     1   0.15375 251793.120000
   8690   8704     1   0.15375 251793.120000
   8690   8712     1   0.14316 258236.480000
   8691   8694     1   0.15375 251793.120000
   8691   8703     1   0.14233 265014.560000
   8694   8695     1   0.15375 251793.120000
   8694   8702     1   0.14233 265014.560000
   8695   8696     1   0.15375 251793.120000
   8695   8701     1   0.14233 265014.560000
   8696   8700     1   0.14316 258236.480000
   8696   8712     1   0.14316 258236.480000
   8704   8710     1   0.14233 265014.560000
   8713   8714     1   0.15375 251793.120000
   8713   8727     1   0.15375 251793.120000
   8713   8735     1   0.14316 258236.480000
   8714   8717     1   0.15375 251793.120000
   8714   8726     1   0.14233 265014.560000
   8717   8718     1   0.15375 251793.120000
   8717   8725     1   0.14233 265014.560000
   8718   8719     1   0.15375 251793.120000
   8718   8724     1   0.14233 265014.560000
   8719   8723     1   0.14316 258236.480000
   8719   8735     1   0.14316 258236.480000
   8727   8733     1   0.14233 265014.560000
   8736   8737     1   0.15375 251793.120000
   8736   8750     1   0.15375 251793.120000
   8736   8758     1   0.14316 258236.480000
   8737   8740     1   0.15375 251793.120000
   8737   8749     1   0.14233 265014.560000
   8740   8741     1   0.15375 251793.120000
   8740   8748     1   0.14233 265014.560000
   8741   8742     1   0.15375 251793.120000
   8741   8747     1   0.14233 265014.560000
   8742   8746     1   0.14316 258236.480000
   8742   8758     1   0.14316 258236.480000
   8750   8756     1   0.14233 265014.560000
   8759   8760     1   0.15375 251793.120000
   8759   8773     1   0.15375 251793.120000
   8759   8781     1   0.14316 258236.480000
   8760   8763     1   0.15375 251793.120000
   8760   8772     1   0.14233 265014.560000
   8763   8764     1   0.15375 251793.120000
   8763   8771     1   0.14233 265014.560000
   8764   8765     1   0.15375 251793.120000
   8764   8770     1   0.14233 265014.560000
   8765   8769     1   0.14316 258236.480000
   8765   8781     1   0.14316 258236.480000
   8773   8779     1   0.14233 265014.560000
   8782   8783     1   0.15375 251793.120000
   8782   8796     1   0.15375 251793.120000
   8782   8804     1   0.14316 258236.480000
   8783   8786     1   0.15375 251793.120000
   8783   8795     1   0.14233 265014.560000
   8786   8787     1   0.15375 251793.120000
   8786   8794     1   0.14233 265014.560000
   8787   8788     1   0.15375 251793.120000
   8787   8793     1   0.14233 265014.560000
   8788   8792     1   0.14316 258236.480000
   8788   8804     1   0.14316 258236.480000
   8796   8802     1   0.14233 265014.560000
   8805   8806     1   0.15375 251793.120000
   8805   8819     1   0.15375 251793.120000
   8805   8827     1   0.14316 258236.480000
   8806   8809     1   0.15375 251793.120000
   8806   8818     1   0.14233 265014.560000
   8809   8810     1   0.15375 251793.120000
   8809   8817     1   0.14233 265014.560000
   8810   8811     1   0.15375 251793.120000
   8810   8816     1   0.14233 265014.560000
   8811   8815     1   0.14316 258236.480000
   8811   8827     1   0.14316 258236.480000
   8819   8825     1   0.14233 265014.560000
   8828   8829     1   0.15375 251793.120000
   8828   8842     1   0.15375 251793.120000
   8828   8850     1   0.14316 258236.480000
   8829   8832     1   0.15375 251793.120000
   8829   8841     1   0.14233 265014.560000
   8832   8833     1   0.15375 251793.120000
   8832   8840     1   0.14233 265014.560000
   8833   8834     1   0.15375 251793.120000
   8833   8839     1   0.14233 265014.560000
   8834   8838     1   0.14316 258236.480000
   8834   8850     1   0.14316 258236.480000
   8842   8848     1   0.14233 265014.560000
   8851   8852     1   0.15375 251793.120000
   8851   8865     1   0.15375 251793.120000
   8851   8873     1   0.14316 258236.480000
   8852   8855     1   0.15375 251793.120000
   8852   8864     1   0.14233 265014.560000
   8855   8856     1   0.15375 251793.120000
   8855   8863     1   0.14233 265014.560000
   8856   8857     1   0.15375 251793.120000
   8856   8862     1   0.14233 265014.560000
   8857   8861     1   0.14316 258236.480000
   8857   8873     1   0.14316 258236.480000
   8865   8871     1   0.14233 265014.560000
   8874   8875     1   0.15375 251793.120000
   8874   8888     1   0.15375 251793.120000
   8874   8896     1   0.14316 258236.480000
   8875   8878     1   0.15375 251793.120000
   8875   8887     1   0.14233 265014.560000
   8878   8879     1   0.15375 251793.120000
   8878   8886     1   0.14233 265014.560000
   8879   8880     1   0.15375 251793.120000
   8879   8885     1   0.14233 265014.560000
   8880   8884     1   0.14316 258236.480000
   8880   8896     1   0.14316 258236.480000
   8888   8894     1   0.14233 265014.560000
   8897   8898     1   0.15375 251793.120000
   8897   8911     1   0.15375 251793.120000
   8897   8919     1   0.14316 258236.480000
   8898   8901     1   0.15375 251793.120000
   8898   8910     1   0.14233 265014.560000
   8901   8902     1   0.15375 251793.120000
   8901   8909     1   0.14233 265014.560000
   8902   8903     1   0.15375 251793.120000
   8902   8908     1   0.14233 265014.560000
   8903   8907     1   0.14316 258236.480000
   8903   8919     1   0.14316 258236.480000
   8911   8917     1   0.14233 265014.560000
   8920   8921     1   0.15375 251793.120000
   8920   8934     1   0.15375 251793.120000
   8920   8942     1   0.14316 258236.480000
   8921   8924     1   0.15375 251793.120000
   8921   8933     1   0.14233 265014.560000
   8924   8925     1   0.15375 251793.120000
   8924   8932     1   0.14233 265014.560000
   8925   8926     1   0.15375 251793.120000
   8925   8931     1   0.14233 265014.560000
   8926   8930     1   0.14316 258236.480000
   8926   8942     1   0.14316 258236.480000
   8934   8940     1   0.14233 265014.560000
   8943   8944     1   0.15375 251793.120000
   8943   8957     1   0.15375 251793.120000
   8943   8965     1   0.14316 258236.480000
   8944   8947     1   0.15375 251793.120000
   8944   8956     1   0.14233 265014.560000
   8947   8948     1   0.15375 251793.120000
   8947   8955     1   0.14233 265014.560000
   8948   8949     1   0.15375 251793.120000
   8948   8954     1   0.14233 265014.560000
   8949   8953     1   0.14316 258236.480000
   8949   8965     1   0.14316 258236.480000
   8957   8963     1   0.14233 265014.560000
   8966   8967     1   0.15375 251793.120000
   8966   8980     1   0.15375 251793.120000
   8966   8988     1   0.14316 258236.480000
   8967   8970     1   0.15375 251793.120000
   8967   8979     1   0.14233 265014.560000
   8970   8971     1   0.15375 251793.120000
   8970   8978     1   0.14233 265014.560000
   8971   8972     1   0.15375 251793.120000
   8971   8977     1   0.14233 265014.560000
   8972   8976     1   0.14316 258236.480000
   8972   8988     1   0.14316 258236.480000
   8980   8986     1   0.14233 265014.560000
   8989   8990     1   0.15375 251793.120000
   8989   9003     1   0.15375 251793.120000
   8989   9011     1   0.14316 258236.480000
   8990   8993     1   0.15375 251793.120000
   8990   9002     1   0.14233 265014.560000
   8993   8994     1   0.15375 251793.120000
   8993   9001     1   0.14233 265014.560000
   8994   8995     1   0.15375 251793.120000
   8994   9000     1   0.14233 265014.560000
   8995   8999     1   0.14316 258236.480000
   8995   9011     1   0.14316 258236.480000
   9003   9009     1   0.14233 265014.560000
   9012   9013     1   0.15375 251793.120000
   9012   9026     1   0.15375 251793.120000
   9012   9034     1   0.14316 258236.480000
   9013   9016     1   0.15375 251793.120000
   9013   9025     1   0.14233 265014.560000
   9016   9017     1   0.15375 251793.120000
   9016   9024     1   0.14233 265014.560000
   9017   9018     1   0.15375 251793.120000
   9017   9023     1   0.14233 265014.560000
   9018   9022     1   0.14316 258236.480000
   9018   9034     1   0.14316 258236.480000
   9026   9032     1   0.14233 265014.560000
   9035   9036     1   0.15375 251793.120000
   9035   9049     1   0.15375 251793.120000
   9035   9057     1   0.14316 258236.480000
   9036   9039     1   0.15375 251793.120000
   9036   9048     1   0.14233 265014.560000
   9039   9040     1   0.15375 251793.120000
   9039   9047     1   0.14233 265014.560000
   9040   9041     1   0.15375 251793.120000
   9040   9046     1   0.14233 265014.560000
   9041   9045     1   0.14316 258236.480000
   9041   9057     1   0.14316 258236.480000
   9049   9055     1   0.14233 265014.560000
   9058   9059     1   0.15375 251793.120000
   9058   9072     1   0.15375 251793.120000
   9058   9080     1   0.14316 258236.480000
   9059   9062     1   0.15375 251793.120000
   9059   9071     1   0.14233 265014.560000
   9062   9063     1   0.15375 251793.120000
   9062   9070     1   0.14233 265014.560000
   9063   9064     1   0.15375 251793.120000
   9063   9069     1   0.14233 265014.560000
   9064   9068     1   0.14316 258236.480000
   9064   9080     1   0.14316 258236.480000
   9072   9078     1   0.14233 265014.560000
   9081   9082     1   0.15375 251793.120000
   9081   9095     1   0.15375 251793.120000
   9081   9103     1   0.14316 258236.480000
   9082   9085     1   0.15375 251793.120000
   9082   9094     1   0.14233 265014.560000
   9085   9086     1   0.15375 251793.120000
   9085   9093     1   0.14233 265014.560000
   9086   9087     1   0.15375 251793.120000
   9086   9092     1   0.14233 265014.560000
   9087   9091     1   0.14316 258236.480000
   9087   9103     1   0.14316 258236.480000
   9095   9101     1   0.14233 265014.560000
   9104   9105     1   0.15375 251793.120000
   9104   9118     1   0.15375 251793.120000
   9104   9126     1   0.14316 258236.480000
   9105   9108     1   0.15375 251793.120000
   9105   9117     1   0.14233 265014.560000
   9108   9109     1   0.15375 251793.120000
   9108   9116     1   0.14233 265014.560000
   9109   9110     1   0.15375 251793.120000
   9109   9115     1   0.14233 265014.560000
   9110   9114     1   0.14316 258236.480000
   9110   9126     1   0.14316 258236.480000
   9118   9124     1   0.14233 265014.560000
   9127   9128     1   0.15375 251793.120000
   9127   9141     1   0.15375 251793.120000
   9127   9149     1   0.14316 258236.480000
   9128   9131     1   0.15375 251793.120000
   9128   9140     1   0.14233 265014.560000
   9131   9132     1   0.15375 251793.120000
   9131   9139     1   0.14233 265014.560000
   9132   9133     1   0.15375 251793.120000
   9132   9138     1   0.14233 265014.560000
   9133   9137     1   0.14316 258236.480000
   9133   9149     1   0.14316 258236.480000
   9141   9147     1   0.14233 265014.560000
   9150   9151     1   0.15375 251793.120000
   9150   9164     1   0.15375 251793.120000
   9150   9172     1   0.14316 258236.480000
   9151   9154     1   0.15375 251793.120000
   9151   9163     1   0.14233 265014.560000
   9154   9155     1   0.15375 251793.120000
   9154   9162     1   0.14233 265014.560000
   9155   9156     1   0.15375 251793.120000
   9155   9161     1   0.14233 265014.560000
   9156   9160     1   0.14316 258236.480000
   9156   9172     1   0.14316 258236.480000
   9164   9170     1   0.14233 265014.560000
   9173   9174     1   0.15375 251793.120000
   9173   9187     1   0.15375 251793.120000
   9173   9195     1   0.14316 258236.480000
   9174   9177     1   0.15375 251793.120000
   9174   9186     1   0.14233 265014.560000
   9177   9178     1   0.15375 251793.120000
   9177   9185     1   0.14233 265014.560000
   9178   9179     1   0.15375 251793.120000
   9178   9184     1   0.14233 265014.560000
   9179   9183     1   0.14316 258236.480000
   9179   9195     1   0.14316 258236.480000
   9187   9193     1   0.14233 265014.560000
   9196   9197     1   0.15375 251793.120000
   9196   9210     1   0.15375 251793.120000
   9196   9218     1   0.14316 258236.480000
   9197   9200     1   0.15375 251793.120000
   9197   9209     1   0.14233 265014.560000
   9200   9201     1   0.15375 251793.120000
   9200   9208     1   0.14233 265014.560000
   9201   9202     1   0.15375 251793.120000
   9201   9207     1   0.14233 265014.560000
   9202   9206     1   0.14316 258236.480000
   9202   9218     1   0.14316 258236.480000
   9210   9216     1   0.14233 265014.560000
   9219   9220     1   0.15375 251793.120000
   9219   9233     1   0.15375 251793.120000
   9219   9241     1   0.14316 258236.480000
   9220   9223     1   0.15375 251793.120000
   9220   9232     1   0.14233 265014.560000
   9223   9224     1   0.15375 251793.120000
   9223   9231     1   0.14233 265014.560000
   9224   9225     1   0.15375 251793.120000
   9224   9230     1   0.14233 265014.560000
   9225   9229     1   0.14316 258236.480000
   9225   9241     1   0.14316 258236.480000
   9233   9239     1   0.14233 265014.560000
   9242   9243     1   0.15375 251793.120000
   9242   9256     1   0.15375 251793.120000
   9242   9264     1   0.14316 258236.480000
   9243   9246     1   0.15375 251793.120000
   9243   9255     1   0.14233 265014.560000
   9246   9247     1   0.15375 251793.120000
   9246   9254     1   0.14233 265014.560000
   9247   9248     1   0.15375 251793.120000
   9247   9253     1   0.14233 265014.560000
   9248   9252     1   0.14316 258236.480000
   9248   9264     1   0.14316 258236.480000
   9256   9262     1   0.14233 265014.560000
   9265   9266     1   0.15375 251793.120000
   9265   9279     1   0.15375 251793.120000
   9265   9287     1   0.14316 258236.480000
   9266   9269     1   0.15375 251793.120000
   9266   9278     1   0.14233 265014.560000
   9269   9270     1   0.15375 251793.120000
   9269   9277     1   0.14233 265014.560000
   9270   9271     1   0.15375 251793.120000
   9270   9276     1   0.14233 265014.560000
   9271   9275     1   0.14316 258236.480000
   9271   9287     1   0.14316 258236.480000
   9279   9285     1   0.14233 265014.560000
   9288   9289     1   0.15375 251793.120000
   9288   9302     1   0.15375 251793.120000
   9288   9310     1   0.14316 258236.480000
   9289   9292     1   0.15375 251793.120000
   9289   9301     1   0.14233 265014.560000
   9292   9293     1   0.15375 251793.120000
   9292   9300     1   0.14233 265014.560000
   9293   9294     1   0.15375 251793.120000
   9293   9299     1   0.14233 265014.560000
   9294   9298     1   0.14316 258236.480000
   9294   9310     1   0.14316 258236.480000
   9302   9308     1   0.14233 265014.560000
   9311   9312     1   0.15375 251793.120000
   9311   9325     1   0.15375 251793.120000
   9311   9333     1   0.14316 258236.480000
   9312   9315     1   0.15375 251793.120000
   9312   9324     1   0.14233 265014.560000
   9315   9316     1   0.15375 251793.120000
   9315   9323     1   0.14233 265014.560000
   9316   9317     1   0.15375 251793.120000
   9316   9322     1   0.14233 265014.560000
   9317   9321     1   0.14316 258236.480000
   9317   9333     1   0.14316 258236.480000
   9325   9331     1   0.14233 265014.560000
   9334   9335     1   0.15375 251793.120000
   9334   9348     1   0.15375 251793.120000
   9334   9356     1   0.14316 258236.480000
   9335   9338     1   0.15375 251793.120000
   9335   9347     1   0.14233 265014.560000
   9338   9339     1   0.15375 251793.120000
   9338   9346     1   0.14233 265014.560000
   9339   9340     1   0.15375 251793.120000
   9339   9345     1   0.14233 265014.560000
   9340   9344     1   0.14316 258236.480000
   9340   9356     1   0.14316 258236.480000
   9348   9354     1   0.14233 265014.560000
   9357   9358     1   0.15375 251793.120000
   9357   9371     1   0.15375 251793.120000
   9357   9379     1   0.14316 258236.480000
   9358   9361     1   0.15375 251793.120000
   9358   9370     1   0.14233 265014.560000
   9361   9362     1   0.15375 251793.120000
   9361   9369     1   0.14233 265014.560000
   9362   9363     1   0.15375 251793.120000
   9362   9368     1   0.14233 265014.560000
   9363   9367     1   0.14316 258236.480000
   9363   9379     1   0.14316 258236.480000
   9371   9377     1   0.14233 265014.560000
   9380   9381     1   0.15375 251793.120000
   9380   9394     1   0.15375 251793.120000
   9380   9402     1   0.14316 258236.480000
   9381   9384     1   0.15375 251793.120000
   9381   9393     1   0.14233 265014.560000
   9384   9385     1   0.15375 251793.120000
   9384   9392     1   0.14233 265014.560000
   9385   9386     1   0.15375 251793.120000
   9385   9391     1   0.14233 265014.560000
   9386   9390     1   0.14316 258236.480000
   9386   9402     1   0.14316 258236.480000
   9394   9400     1   0.14233 265014.560000
   9403   9404     1   0.15375 251793.120000
   9403   9417     1   0.15375 251793.120000
   9403   9425     1   0.14316 258236.480000
   9404   9407     1   0.15375 251793.120000
   9404   9416     1   0.14233 265014.560000
   9407   9408     1   0.15375 251793.120000
   9407   9415     1   0.14233 265014.560000
   9408   9409     1   0.15375 251793.120000
   9408   9414     1   0.14233 265014.560000
   9409   9413     1   0.14316 258236.480000
   9409   9425     1   0.14316 258236.480000
   9417   9423     1   0.14233 265014.560000
   9426   9427     1   0.15375 251793.120000
   9426   9440     1   0.15375 251793.120000
   9426   9448     1   0.14316 258236.480000
   9427   9430     1   0.15375 251793.120000
   9427   9439     1   0.14233 265014.560000
   9430   9431     1   0.15375 251793.120000
   9430   9438     1   0.14233 265014.560000
   9431   9432     1   0.15375 251793.120000
   9431   9437     1   0.14233 265014.560000
   9432   9436     1   0.14316 258236.480000
   9432   9448     1   0.14316 258236.480000
   9440   9446     1   0.14233 265014.560000
   9449   9450     1   0.15375 251793.120000
   9449   9463     1   0.15375 251793.120000
   9449   9471     1   0.14316 258236.480000
   9450   9453     1   0.15375 251793.120000
   9450   9462     1   0.14233 265014.560000
   9453   9454     1   0.15375 251793.120000
   9453   9461     1   0.14233 265014.560000
   9454   9455     1   0.15375 251793.120000
   9454   9460     1   0.14233 265014.560000
   9455   9459     1   0.14316 258236.480000
   9455   9471     1   0.14316 258236.480000
   9463   9469     1   0.14233 265014.560000
   9472   9473     1   0.15375 251793.120000
   9472   9486     1   0.15375 251793.120000
   9472   9494     1   0.14316 258236.480000
   9473   9476     1   0.15375 251793.120000
   9473   9485     1   0.14233 265014.560000
   9476   9477     1   0.15375 251793.120000
   9476   9484     1   0.14233 265014.560000
   9477   9478     1   0.15375 251793.120000
   9477   9483     1   0.14233 265014.560000
   9478   9482     1   0.14316 258236.480000
   9478   9494     1   0.14316 258236.480000
   9486   9492     1   0.14233 265014.560000
   9495   9496     1   0.15375 251793.120000
   9495   9509     1   0.15375 251793.120000
   9495   9517     1   0.14316 258236.480000
   9496   9499     1   0.15375 251793.120000
   9496   9508     1   0.14233 265014.560000
   9499   9500     1   0.15375 251793.120000
   9499   9507     1   0.14233 265014.560000
   9500   9501     1   0.15375 251793.120000
   9500   9506     1   0.14233 265014.560000
   9501   9505     1   0.14316 258236.480000
   9501   9517     1   0.14316 258236.480000
   9509   9515     1   0.14233 265014.560000
   9518   9519     1   0.15375 251793.120000
   9518   9532     1   0.15375 251793.120000
   9518   9540     1   0.14316 258236.480000
   9519   9522     1   0.15375 251793.120000
   9519   9531     1   0.14233 265014.560000
   9522   9523     1   0.15375 251793.120000
   9522   9530     1   0.14233 265014.560000
   9523   9524     1   0.15375 251793.120000
   9523   9529     1   0.14233 265014.560000
   9524   9528     1   0.14316 258236.480000
   9524   9540     1   0.14316 258236.480000
   9532   9538     1   0.14233 265014.560000
   9541   9542     1   0.15375 251793.120000
   9541   9555     1   0.15375 251793.120000
   9541   9563     1   0.14316 258236.480000
   9542   9545     1   0.15375 251793.120000
   9542   9554     1   0.14233 265014.560000
   9545   9546     1   0.15375 251793.120000
   9545   9553     1   0.14233 265014.560000
   9546   9547     1   0.15375 251793.120000
   9546   9552     1   0.14233 265014.560000
   9547   9551     1   0.14316 258236.480000
   9547   9563     1   0.14316 258236.480000
   9555   9561     1   0.14233 265014.560000
   9564   9565     1   0.15375 251793.120000
   9564   9578     1   0.15375 251793.120000
   9564   9586     1   0.14316 258236.480000
   9565   9568     1   0.15375 251793.120000
   9565   9577     1   0.14233 265014.560000
   9568   9569     1   0.15375 251793.120000
   9568   9576     1   0.14233 265014.560000
   9569   9570     1   0.15375 251793.120000
   9569   9575     1   0.14233 265014.560000
   9570   9574     1   0.14316 258236.480000
   9570   9586     1   0.14316 258236.480000
   9578   9584     1   0.14233 265014.560000
   9587   9588     1   0.15375 251793.120000
   9587   9601     1   0.15375 251793.120000
   9587   9609     1   0.14316 258236.480000
   9588   9591     1   0.15375 251793.120000
   9588   9600     1   0.14233 265014.560000
   9591   9592     1   0.15375 251793.120000
   9591   9599     1   0.14233 265014.560000
   9592   9593     1   0.15375 251793.120000
   9592   9598     1   0.14233 265014.560000
   9593   9597     1   0.14316 258236.480000
   9593   9609     1   0.14316 258236.480000
   9601   9607     1   0.14233 265014.560000
   9610   9611     1   0.15375 251793.120000
   9610   9624     1   0.15375 251793.120000
   9610   9632     1   0.14316 258236.480000
   9611   9614     1   0.15375 251793.120000
   9611   9623     1   0.14233 265014.560000
   9614   9615     1   0.15375 251793.120000
   9614   9622     1   0.14233 265014.560000
   9615   9616     1   0.15375 251793.120000
   9615   9621     1   0.14233 265014.560000
   9616   9620     1   0.14316 258236.480000
   9616   9632     1   0.14316 258236.480000
   9624   9630     1   0.14233 265014.560000
   9633   9634     1   0.15375 251793.120000
   9633   9647     1   0.15375 251793.120000
   9633   9655     1   0.14316 258236.480000
   9634   9637     1   0.15375 251793.120000
   9634   9646     1   0.14233 265014.560000
   9637   9638     1   0.15375 251793.120000
   9637   9645     1   0.14233 265014.560000
   9638   9639     1   0.15375 251793.120000
   9638   9644     1   0.14233 265014.560000
   9639   9643     1   0.14316 258236.480000
   9639   9655     1   0.14316 258236.480000
   9647   9653     1   0.14233 265014.560000
   9656   9657     1   0.15375 251793.120000
   9656   9670     1   0.15375 251793.120000
   9656   9678     1   0.14316 258236.480000
   9657   9660     1   0.15375 251793.120000
   9657   9669     1   0.14233 265014.560000
   9660   9661     1   0.15375 251793.120000
   9660   9668     1   0.14233 265014.560000
   9661   9662     1   0.15375 251793.120000
   9661   9667     1   0.14233 265014.560000
   9662   9666     1   0.14316 258236.480000
   9662   9678     1   0.14316 258236.480000
   9670   9676     1   0.14233 265014.560000
   9679   9680     1   0.15375 251793.120000
   9679   9693     1   0.15375 251793.120000
   9679   9701     1   0.14316 258236.480000
   9680   9683     1   0.15375 251793.120000
   9680   9692     1   0.14233 265014.560000
   9683   9684     1   0.15375 251793.120000
   9683   9691     1   0.14233 265014.560000
   9684   9685     1   0.15375 251793.120000
   9684   9690     1   0.14233 265014.560000
   9685   9689     1   0.14316 258236.480000
   9685   9701     1   0.14316 258236.480000
   9693   9699     1   0.14233 265014.560000
   9702   9703     1   0.15375 251793.120000
   9702   9716     1   0.15375 251793.120000
   9702   9724     1   0.14316 258236.480000
   9703   9706     1   0.15375 251793.120000
   9703   9715     1   0.14233 265014.560000
   9706   9707     1   0.15375 251793.120000
   9706   9714     1   0.14233 265014.560000
   9707   9708     1   0.15375 251793.120000
   9707   9713     1   0.14233 265014.560000
   9708   9712     1   0.14316 258236.480000
   9708   9724     1   0.14316 258236.480000
   9716   9722     1   0.14233 265014.560000
   9725   9726     1   0.15375 251793.120000
   9725   9739     1   0.15375 251793.120000
   9725   9747     1   0.14316 258236.480000
   9726   9729     1   0.15375 251793.120000
   9726   9738     1   0.14233 265014.560000
   9729   9730     1   0.15375 251793.120000
   9729   9737     1   0.14233 265014.560000
   9730   9731     1   0.15375 251793.120000
   9730   9736     1   0.14233 265014.560000
   9731   9735     1   0.14316 258236.480000
   9731   9747     1   0.14316 258236.480000
   9739   9745     1   0.14233 265014.560000
   9748   9749     1   0.15375 251793.120000
   9748   9762     1   0.15375 251793.120000
   9748   9770     1   0.14316 258236.480000
   9749   9752     1   0.15375 251793.120000
   9749   9761     1   0.14233 265014.560000
   9752   9753     1   0.15375 251793.120000
   9752   9760     1   0.14233 265014.560000
   9753   9754     1   0.15375 251793.120000
   9753   9759     1   0.14233 265014.560000
   9754   9758     1   0.14316 258236.480000
   9754   9770     1   0.14316 258236.480000
   9762   9768     1   0.14233 265014.560000
   9771   9772     1   0.15375 251793.120000
   9771   9785     1   0.15375 251793.120000
   9771   9793     1   0.14316 258236.480000
   9772   9775     1   0.15375 251793.120000
   9772   9784     1   0.14233 265014.560000
   9775   9776     1   0.15375 251793.120000
   9775   9783     1   0.14233 265014.560000
   9776   9777     1   0.15375 251793.120000
   9776   9782     1   0.14233 265014.560000
   9777   9781     1   0.14316 258236.480000
   9777   9793     1   0.14316 258236.480000
   9785   9791     1   0.14233 265014.560000
   9794   9795     1   0.15375 251793.120000
   9794   9808     1   0.15375 251793.120000
   9794   9816     1   0.14316 258236.480000
   9795   9798     1   0.15375 251793.120000
   9795   9807     1   0.14233 265014.560000
   9798   9799     1   0.15375 251793.120000
   9798   9806     1   0.14233 265014.560000
   9799   9800     1   0.15375 251793.120000
   9799   9805     1   0.14233 265014.560000
   9800   9804     1   0.14316 258236.480000
   9800   9816     1   0.14316 258236.480000
   9808   9814     1   0.14233 265014.560000
   9817   9818     1   0.15375 251793.120000
   9817   9831     1   0.15375 251793.120000
   9817   9839     1   0.14316 258236.480000
   9818   9821     1   0.15375 251793.120000
   9818   9830     1   0.14233 265014.560000
   9821   9822     1   0.15375 251793.120000
   9821   9829     1   0.14233 265014.560000
   9822   9823     1   0.15375 251793.120000
   9822   9828     1   0.14233 265014.560000
   9823   9827     1   0.14316 258236.480000
   9823   9839     1   0.14316 258236.480000
   9831   9837     1   0.14233 265014.560000
   9840   9841     1   0.15375 251793.120000
   9840   9854     1   0.15375 251793.120000
   9840   9862     1   0.14316 258236.480000
   9841   9844     1   0.15375 251793.120000
   9841   9853     1   0.14233 265014.560000
   9844   9845     1   0.15375 251793.120000
   9844   9852     1   0.14233 265014.560000
   9845   9846     1   0.15375 251793.120000
   9845   9851     1   0.14233 265014.560000
   9846   9850     1   0.14316 258236.480000
   9846   9862     1   0.14316 258236.480000
   9854   9860     1   0.14233 265014.560000
   9863   9864     1   0.15375 251793.120000
   9863   9877     1   0.15375 251793.120000
   9863   9885     1   0.14316 258236.480000
   9864   9867     1   0.15375 251793.120000
   9864   9876     1   0.14233 265014.560000
   9867   9868     1   0.15375 251793.120000
   9867   9875     1   0.14233 265014.560000
   9868   9869     1   0.15375 251793.120000
   9868   9874     1   0.14233 265014.560000
   9869   9873     1   0.14316 258236.480000
   9869   9885     1   0.14316 258236.480000
   9877   9883     1   0.14233 265014.560000
   9886   9887     1   0.15375 251793.120000
   9886   9900     1   0.15375 251793.120000
   9886   9908     1   0.14316 258236.480000
   9887   9890     1   0.15375 251793.120000
   9887   9899     1   0.14233 265014.560000
   9890   9891     1   0.15375 251793.120000
   9890   9898     1   0.14233 265014.560000
   9891   9892     1   0.15375 251793.120000
   9891   9897     1   0.14233 265014.560000
   9892   9896     1   0.14316 258236.480000
   9892   9908     1   0.14316 258236.480000
   9900   9906     1   0.14233 265014.560000
   9909   9910     1   0.15375 251793.120000
   9909   9923     1   0.15375 251793.120000
   9909   9931     1   0.14316 258236.480000
   9910   9913     1   0.15375 251793.120000
   9910   9922     1   0.14233 265014.560000
   9913   9914     1   0.15375 251793.120000
   9913   9921     1   0.14233 265014.560000
   9914   9915     1   0.15375 251793.120000
   9914   9920     1   0.14233 265014.560000
   9915   9919     1   0.14316 258236.480000
   9915   9931     1   0.14316 258236.480000
   9923   9929     1   0.14233 265014.560000
   9932   9933     1   0.15375 251793.120000
   9932   9946     1   0.15375 251793.120000
   9932   9954     1   0.14316 258236.480000
   9933   9936     1   0.15375 251793.120000
   9933   9945     1   0.14233 265014.560000
   9936   9937     1   0.15375 251793.120000
   9936   9944     1   0.14233 265014.560000
   9937   9938     1   0.15375 251793.120000
   9937   9943     1   0.14233 265014.560000
   9938   9942     1   0.14316 258236.480000
   9938   9954     1   0.14316 258236.480000
   9946   9952     1   0.14233 265014.560000
   9955   9956     1   0.15375 251793.120000
   9955   9969     1   0.15375 251793.120000
   9955   9977     1   0.14316 258236.480000
   9956   9959     1   0.15375 251793.120000
   9956   9968     1   0.14233 265014.560000
   9959   9960     1   0.15375 251793.120000
   9959   9967     1   0.14233 265014.560000
   9960   9961     1   0.15375 251793.120000
   9960   9966     1   0.14233 265014.560000
   9961   9965     1   0.14316 258236.480000
   9961   9977     1   0.14316 258236.480000
   9969   9975     1   0.14233 265014.560000
   9978   9979     1   0.15375 251793.120000
   9978   9992     1   0.15375 251793.120000
   9978  10000     1   0.14316 258236.480000
   9979   9982     1   0.15375 251793.120000
   9979   9991     1   0.14233 265014.560000
   9982   9983     1   0.15375 251793.120000
   9982   9990     1   0.14233 265014.560000
   9983   9984     1   0.15375 251793.120000
   9983   9989     1   0.14233 265014.560000
   9984   9988     1   0.14316 258236.480000
   9984  10000     1   0.14316 258236.480000
   9992   9998     1   0.14233 265014.560000
  10001  10002     1   0.15375 251793.120000
  10001  10015     1   0.15375 251793.120000
  10001  10023     1   0.14316 258236.480000
  10002  10005     1   0.15375 251793.120000
  10002  10014     1   0.14233 265014.560000
  10005  10006     1   0.15375 251793.120000
  10005  10013     1   0.14233 265014.560000
  10006  10007     1   0.15375 251793.120000
  10006  10012     1   0.14233 265014.560000
  10007  10011     1   0.14316 258236.480000
  10007  10023     1   0.14316 258236.480000
  10015  10021     1   0.14233 265014.560000
  10024  10025     1   0.15375 251793.120000
  10024  10038     1   0.15375 251793.120000
  10024  10046     1   0.14316 258236.480000
  10025  10028     1   0.15375 251793.120000
  10025  10037     1   0.14233 265014.560000
  10028  10029     1   0.15375 251793.120000
  10028  10036     1   0.14233 265014.560000
  10029  10030     1   0.15375 251793.120000
  10029  10035     1   0.14233 265014.560000
  10030  10034     1   0.14316 258236.480000
  10030  10046     1   0.14316 258236.480000
  10038  10044     1   0.14233 265014.560000
  10047  10048     1   0.15375 251793.120000
  10047  10061     1   0.15375 251793.120000
  10047  10069     1   0.14316 258236.480000
  10048  10051     1   0.15375 251793.120000
  10048  10060     1   0.14233 265014.560000
  10051  10052     1   0.15375 251793.120000
  10051  10059     1   0.14233 265014.560000
  10052  10053     1   0.15375 251793.120000
  10052  10058     1   0.14233 265014.560000
  10053  10057     1   0.14316 258236.480000
  10053  10069     1   0.14316 258236.480000
  10061  10067     1   0.14233 265014.560000
  10070  10071     1   0.15375 251793.120000
  10070  10084     1   0.15375 251793.120000
  10070  10092     1   0.14316 258236.480000
  10071  10074     1   0.15375 251793.120000
  10071  10083     1   0.14233 265014.560000
  10074  10075     1   0.15375 251793.120000
  10074  10082     1   0.14233 265014.560000
  10075  10076     1   0.15375 251793.120000
  10075  10081     1   0.14233 265014.560000
  10076  10080     1   0.14316 258236.480000
  10076  10092     1   0.14316 258236.480000
  10084  10090     1   0.14233 265014.560000
  10093  10094     1   0.15375 251793.120000
  10093  10107     1   0.15375 251793.120000
  10093  10115     1   0.14316 258236.480000
  10094  10097     1   0.15375 251793.120000
  10094  10106     1   0.14233 265014.560000
  10097  10098     1   0.15375 251793.120000
  10097  10105     1   0.14233 265014.560000
  10098  10099     1   0.15375 251793.120000
  10098  10104     1   0.14233 265014.560000
  10099  10103     1   0.14316 258236.480000
  10099  10115     1   0.14316 258236.480000
  10107  10113     1   0.14233 265014.560000
      1     29     1   0.10304 312293.760000
      2      3     1   0.10910 283424.160000
      2      4     1   0.10910 283424.160000
      5      6     1   0.10910 283424.160000
      5      7     1   0.10910 283424.160000
      8      9     1   0.10910 283424.160000
      8     10     1   0.10910 283424.160000
     11     12     1   0.10969 276646.080000
     11     13     1   0.10969 276646.080000
     14     15     1   0.10969 276646.080000
     14     16     1   0.10969 276646.080000
     17     18     1   0.10969 276646.080000
     17     19     1   0.10969 276646.080000
     20     21     1   0.10969 276646.080000
     20     22     1   0.10969 276646.080000
     23     24     1   0.10969 276646.080000
     23     25     1   0.10969 276646.080000
     26     27     1   0.10969 276646.080000
     26     28     1   0.10969 276646.080000
     30     59     1   0.10304 312293.760000
     31     32     1   0.10910 283424.160000
     31     33     1   0.10910 283424.160000
     34     35     1   0.10910 283424.160000
     34     36     1   0.10910 283424.160000
     37     38     1   0.10910 283424.160000
     37     39     1   0.10910 283424.160000
     40     41     1   0.10969 276646.080000
     40     42     1   0.10969 276646.080000
     43     44     1   0.10969 276646.080000
     43     45     1   0.10969 276646.080000
     46     47     1   0.10969 276646.080000
     46     48     1   0.10969 276646.080000
     49     50     1   0.10969 276646.080000
     49     51     1   0.10969 276646.080000
     52     53     1   0.10969 276646.080000
     52     54     1   0.10969 276646.080000
     55     56     1   0.10969 276646.080000
     55     57     1   0.10969 276646.080000
     60     89     1   0.10304 312293.760000
     61     62     1   0.10910 283424.160000
     61     63     1   0.10910 283424.160000
     64     65     1   0.10910 283424.160000
     64     66     1   0.10910 283424.160000
     67     68     1   0.10910 283424.160000
     67     69     1   0.10910 283424.160000
     70     71     1   0.10969 276646.080000
     70     72     1   0.10969 276646.080000
     73     74     1   0.10969 276646.080000
     73     75     1   0.10969 276646.080000
     76     77     1   0.10969 276646.080000
     76     78     1   0.10969 276646.080000
     79     80     1   0.10969 276646.080000
     79     81     1   0.10969 276646.080000
     82     83     1   0.10969 276646.080000
     82     84     1   0.10969 276646.080000
     85     86     1   0.10969 276646.080000
     85     87     1   0.10969 276646.080000
     90    119     1   0.10304 312293.760000
     91     92     1   0.10910 283424.160000
     91     93     1   0.10910 283424.160000
     94     95     1   0.10910 283424.160000
     94     96     1   0.10910 283424.160000
     97     98     1   0.10910 283424.160000
     97     99     1   0.10910 283424.160000
    100    101     1   0.10969 276646.080000
    100    102     1   0.10969 276646.080000
    103    104     1   0.10969 276646.080000
    103    105     1   0.10969 276646.080000
    106    107     1   0.10969 276646.080000
    106    108     1   0.10969 276646.080000
    109    110     1   0.10969 276646.080000
    109    111     1   0.10969 276646.080000
    112    113     1   0.10969 276646.080000
    112    114     1   0.10969 276646.080000
    115    116     1   0.10969 276646.080000
    115    117     1   0.10969 276646.080000
    120    149     1   0.10304 312293.760000
    121    122     1   0.10910 283424.160000
    121    123     1   0.10910 283424.160000
    124    125     1   0.10910 283424.160000
    124    126     1   0.10910 283424.160000
    127    128     1   0.10910 283424.160000
    127    129     1   0.10910 283424.160000
    130    131     1   0.10969 276646.080000
    130    132     1   0.10969 276646.080000
    133    134     1   0.10969 276646.080000
    133    135     1   0.10969 276646.080000
    136    137     1   0.10969 276646.080000
    136    138     1   0.10969 276646.080000
    139    140     1   0.10969 276646.080000
    139    141     1   0.10969 276646.080000
    142    143     1   0.10969 276646.080000
    142    144     1   0.10969 276646.080000
    145    146     1   0.10969 276646.080000
    145    147     1   0.10969 276646.080000
    150    179     1   0.10304 312293.760000
    151    152     1   0.10910 283424.160000
    151    153     1   0.10910 283424.160000
    154    155     1   0.10910 283424.160000
    154    156     1   0.10910 283424.160000
    157    158     1   0.10910 283424.160000
    157    159     1   0.10910 283424.160000
    160    161     1   0.10969 276646.080000
    160    162     1   0.10969 276646.080000
    163    164     1   0.10969 276646.080000
    163    165     1   0.10969 276646.080000
    166    167     1   0.10969 276646.080000
    166    168     1   0.10969 276646.080000
    169    170     1   0.10969 276646.080000
    169    171     1   0.10969 276646.080000
    172    173     1   0.10969 276646.080000
    172    174     1   0.10969 276646.080000
    175    176     1   0.10969 276646.080000
    175    177     1   0.10969 276646.080000
    180    209     1   0.10304 312293.760000
    181    182     1   0.10910 283424.160000
    181    183     1   0.10910 283424.160000
    184    185     1   0.10910 283424.160000
    184    186     1   0.10910 283424.160000
    187    188     1   0.10910 283424.160000
    187    189     1   0.10910 283424.160000
    190    191     1   0.10969 276646.080000
    190    192     1   0.10969 276646.080000
    193    194     1   0.10969 276646.080000
    193    195     1   0.10969 276646.080000
    196    197     1   0.10969 276646.080000
    196    198     1   0.10969 276646.080000
    199    200     1   0.10969 276646.080000
    199    201     1   0.10969 276646.080000
    202    203     1   0.10969 276646.080000
    202    204     1   0.10969 276646.080000
    205    206     1   0.10969 276646.080000
    205    207     1   0.10969 276646.080000
    210    239     1   0.10304 312293.760000
    211    212     1   0.10910 283424.160000
    211    213     1   0.10910 283424.160000
    214    215     1   0.10910 283424.160000
    214    216     1   0.10910 283424.160000
    217    218     1   0.10910 283424.160000
    217    219     1   0.10910 283424.160000
    220    221     1   0.10969 276646.080000
    220    222     1   0.10969 276646.080000
    223    224     1   0.10969 276646.080000
    223    225     1   0.10969 276646.080000
    226    227     1   0.10969 276646.080000
    226    228     1   0.10969 276646.080000
    229    230     1   0.10969 276646.080000
    229    231     1   0.10969 276646.080000
    232    233     1   0.10969 276646.080000
    232    234     1   0.10969 276646.080000
    235    236     1   0.10969 276646.080000
    235    237     1   0.10969 276646.080000
    240    269     1   0.10304 312293.760000
    241    242     1   0.10910 283424.160000
    241    243     1   0.10910 283424.160000
    244    245     1   0.10910 283424.160000
    244    246     1   0.10910 283424.160000
    247    248     1   0.10910 283424.160000
    247    249     1   0.10910 283424.160000
    250    251     1   0.10969 276646.080000
    250    252     1   0.10969 276646.080000
    253    254     1   0.10969 276646.080000
    253    255     1   0.10969 276646.080000
    256    257     1   0.10969 276646.080000
    256    258     1   0.10969 276646.080000
    259    260     1   0.10969 276646.080000
    259    261     1   0.10969 276646.080000
    262    263     1   0.10969 276646.080000
    262    264     1   0.10969 276646.080000
    265    266     1   0.10969 276646.080000
    265    267     1   0.10969 276646.080000
    270    299     1   0.10304 312293.760000
    271    272     1   0.10910 283424.160000
    271    273     1   0.10910 283424.160000
    274    275     1   0.10910 283424.160000
    274    276     1   0.10910 283424.160000
    277    278     1   0.10910 283424.160000
    277    279     1   0.10910 283424.160000
    280    281     1   0.10969 276646.080000
    280    282     1   0.10969 276646.080000
    283    284     1   0.10969 276646.080000
    283    285     1   0.10969 276646.080000
    286    287     1   0.10969 276646.080000
    286    288     1   0.10969 276646.080000
    289    290     1   0.10969 276646.080000
    289    291     1   0.10969 276646.080000
    292    293     1   0.10969 276646.080000
    292    294     1   0.10969 276646.080000
    295    296     1   0.10969 276646.080000
    295    297     1   0.10969 276646.080000
    300    329     1   0.10304 312293.760000
    301    302     1   0.10910 283424.160000
    301    303     1   0.10910 283424.160000
    304    305     1   0.10910 283424.160000
    304    306     1   0.10910 283424.160000
    307    308     1   0.10910 283424.160000
    307    309     1   0.10910 283424.160000
    310    311     1   0.10969 276646.080000
    310    312     1   0.10969 276646.080000
    313    314     1   0.10969 276646.080000
    313    315     1   0.10969 276646.080000
    316    317     1   0.10969 276646.080000
    316    318     1   0.10969 276646.080000
    319    320     1   0.10969 276646.080000
    319    321     1   0.10969 276646.080000
    322    323     1   0.10969 276646.080000
    322    324     1   0.10969 276646.080000
    325    326     1   0.10969 276646.080000
    325    327     1   0.10969 276646.080000
    330    359     1   0.10304 312293.760000
    331    332     1   0.10910 283424.160000
    331    333     1   0.10910 283424.160000
    334    335     1   0.10910 283424.160000
    334    336     1   0.10910 283424.160000
    337    338     1   0.10910 283424.160000
    337    339     1   0.10910 283424.160000
    340    341     1   0.10969 276646.080000
    340    342     1   0.10969 276646.080000
    343    344     1   0.10969 276646.080000
    343    345     1   0.10969 276646.080000
    346    347     1   0.10969 276646.080000
    346    348     1   0.10969 276646.080000
    349    350     1   0.10969 276646.080000
    349    351     1   0.10969 276646.080000
    352    353     1   0.10969 276646.080000
    352    354     1   0.10969 276646.080000
    355    356     1   0.10969 276646.080000
    355    357     1   0.10969 276646.080000
    360    389     1   0.10304 312293.760000
    361    362     1   0.10910 283424.160000
    361    363     1   0.10910 283424.160000
    364    365     1   0.10910 283424.160000
    364    366     1   0.10910 283424.160000
    367    368     1   0.10910 283424.160000
    367    369     1   0.10910 283424.160000
    370    371     1   0.10969 276646.080000
    370    372     1   0.10969 276646.080000
    373    374     1   0.10969 276646.080000
    373    375     1   0.10969 276646.080000
    376    377     1   0.10969 276646.080000
    376    378     1   0.10969 276646.080000
    379    380     1   0.10969 276646.080000
    379    381     1   0.10969 276646.080000
    382    383     1   0.10969 276646.080000
    382    384     1   0.10969 276646.080000
    385    386     1   0.10969 276646.080000
    385    387     1   0.10969 276646.080000
    390    419     1   0.10304 312293.760000
    391    392     1   0.10910 283424.160000
    391    393     1   0.10910 283424.160000
    394    395     1   0.10910 283424.160000
    394    396     1   0.10910 283424.160000
    397    398     1   0.10910 283424.160000
    397    399     1   0.10910 283424.160000
    400    401     1   0.10969 276646.080000
    400    402     1   0.10969 276646.080000
    403    404     1   0.10969 276646.080000
    403    405     1   0.10969 276646.080000
    406    407     1   0.10969 276646.080000
    406    408     1   0.10969 276646.080000
    409    410     1   0.10969 276646.080000
    409    411     1   0.10969 276646.080000
    412    413     1   0.10969 276646.080000
    412    414     1   0.10969 276646.080000
    415    416     1   0.10969 276646.080000
    415    417     1   0.10969 276646.080000
    420    449     1   0.10304 312293.760000
    421    422     1   0.10910 283424.160000
    421    423     1   0.10910 283424.160000
    424    425     1   0.10910 283424.160000
    424    426     1   0.10910 283424.160000
    427    428     1   0.10910 283424.160000
    427    429     1   0.10910 283424.160000
    430    431     1   0.10969 276646.080000
    430    432     1   0.10969 276646.080000
    433    434     1   0.10969 276646.080000
    433    435     1   0.10969 276646.080000
    436    437     1   0.10969 276646.080000
    436    438     1   0.10969 276646.080000
    439    440     1   0.10969 276646.080000
    439    441     1   0.10969 276646.080000
    442    443     1   0.10969 276646.080000
    442    444     1   0.10969 276646.080000
    445    446     1   0.10969 276646.080000
    445    447     1   0.10969 276646.080000
    450    479     1   0.10304 312293.760000
    451    452     1   0.10910 283424.160000
    451    453     1   0.10910 283424.160000
    454    455     1   0.10910 283424.160000
    454    456     1   0.10910 283424.160000
    457    458     1   0.10910 283424.160000
    457    459     1   0.10910 283424.160000
    460    461     1   0.10969 276646.080000
    460    462     1   0.10969 276646.080000
    463    464     1   0.10969 276646.080000
    463    465     1   0.10969 276646.080000
    466    467     1   0.10969 276646.080000
    466    468     1   0.10969 276646.080000
    469    470     1   0.10969 276646.080000
    469    471     1   0.10969 276646.080000
    472    473     1   0.10969 276646.080000
    472    474     1   0.10969 276646.080000
    475    476     1   0.10969 276646.080000
    475    477     1   0.10969 276646.080000
    480    509     1   0.10304 312293.760000
    481    482     1   0.10910 283424.160000
    481    483     1   0.10910 283424.160000
    484    485     1   0.10910 283424.160000
    484    486     1   0.10910 283424.160000
    487    488     1   0.10910 283424.160000
    487    489     1   0.10910 283424.160000
    490    491     1   0.10969 276646.080000
    490    492     1   0.10969 276646.080000
    493    494     1   0.10969 276646.080000
    493    495     1   0.10969 276646.080000
    496    497     1   0.10969 276646.080000
    496    498     1   0.10969 276646.080000
    499    500     1   0.10969 276646.080000
    499    501     1   0.10969 276646.080000
    502    503     1   0.10969 276646.080000
    502    504     1   0.10969 276646.080000
    505    506     1   0.10969 276646.080000
    505    507     1   0.10969 276646.080000
    510    539     1   0.10304 312293.760000
    511    512     1   0.10910 283424.160000
    511    513     1   0.10910 283424.160000
    514    515     1   0.10910 283424.160000
    514    516     1   0.10910 283424.160000
    517    518     1   0.10910 283424.160000
    517    519     1   0.10910 283424.160000
    520    521     1   0.10969 276646.080000
    520    522     1   0.10969 276646.080000
    523    524     1   0.10969 276646.080000
    523    525     1   0.10969 276646.080000
    526    527     1   0.10969 276646.080000
    526    528     1   0.10969 276646.080000
    529    530     1   0.10969 276646.080000
    529    531     1   0.10969 276646.080000
    532    533     1   0.10969 276646.080000
    532    534     1   0.10969 276646.080000
    535    536     1   0.10969 276646.080000
    535    537     1   0.10969 276646.080000
    540    569     1   0.10304 312293.760000
    541    542     1   0.10910 283424.160000
    541    543     1   0.10910 283424.160000
    544    545     1   0.10910 283424.160000
    544    546     1   0.10910 283424.160000
    547    548     1   0.10910 283424.160000
    547    549     1   0.10910 283424.160000
    550    551     1   0.10969 276646.080000
    550    552     1   0.10969 276646.080000
    553    554     1   0.10969 276646.080000
    553    555     1   0.10969 276646.080000
    556    557     1   0.10969 276646.080000
    556    558     1   0.10969 276646.080000
    559    560     1   0.10969 276646.080000
    559    561     1   0.10969 276646.080000
    562    563     1   0.10969 276646.080000
    562    564     1   0.10969 276646.080000
    565    566     1   0.10969 276646.080000
    565    567     1   0.10969 276646.080000
    570    599     1   0.10304 312293.760000
    571    572     1   0.10910 283424.160000
    571    573     1   0.10910 283424.160000
    574    575     1   0.10910 283424.160000
    574    576     1   0.10910 283424.160000
    577    578     1   0.10910 283424.160000
    577    579     1   0.10910 283424.160000
    580    581     1   0.10969 276646.080000
    580    582     1   0.10969 276646.080000
    583    584     1   0.10969 276646.080000
    583    585     1   0.10969 276646.080000
    586    587     1   0.10969 276646.080000
    586    588     1   0.10969 276646.080000
    589    590     1   0.10969 276646.080000
    589    591     1   0.10969 276646.080000
    592    593     1   0.10969 276646.080000
    592    594     1   0.10969 276646.080000
    595    596     1   0.10969 276646.080000
    595    597     1   0.10969 276646.080000
    600    629     1   0.10304 312293.760000
    601    602     1   0.10910 283424.160000
    601    603     1   0.10910 283424.160000
    604    605     1   0.10910 283424.160000
    604    606     1   0.10910 283424.160000
    607    608     1   0.10910 283424.160000
    607    609     1   0.10910 283424.160000
    610    611     1   0.10969 276646.080000
    610    612     1   0.10969 276646.080000
    613    614     1   0.10969 276646.080000
    613    615     1   0.10969 276646.080000
    616    617     1   0.10969 276646.080000
    616    618     1   0.10969 276646.080000
    619    620     1   0.10969 276646.080000
    619    621     1   0.10969 276646.080000
    622    623     1   0.10969 276646.080000
    622    624     1   0.10969 276646.080000
    625    626     1   0.10969 276646.080000
    625    627     1   0.10969 276646.080000
    630    659     1   0.10304 312293.760000
    631    632     1   0.10910 283424.160000
    631    633     1   0.10910 283424.160000
    634    635     1   0.10910 283424.160000
    634    636     1   0.10910 283424.160000
    637    638     1   0.10910 283424.160000
    637    639     1   0.10910 283424.160000
    640    641     1   0.10969 276646.080000
    640    642     1   0.10969 276646.080000
    643    644     1   0.10969 276646.080000
    643    645     1   0.10969 276646.080000
    646    647     1   0.10969 276646.080000
    646    648     1   0.10969 276646.080000
    649    650     1   0.10969 276646.080000
    649    651     1   0.10969 276646.080000
    652    653     1   0.10969 276646.080000
    652    654     1   0.10969 276646.080000
    655    656     1   0.10969 276646.080000
    655    657     1   0.10969 276646.080000
    660    689     1   0.10304 312293.760000
    661    662     1   0.10910 283424.160000
    661    663     1   0.10910 283424.160000
    664    665     1   0.10910 283424.160000
    664    666     1   0.10910 283424.160000
    667    668     1   0.10910 283424.160000
    667    669     1   0.10910 283424.160000
    670    671     1   0.10969 276646.080000
    670    672     1   0.10969 276646.080000
    673    674     1   0.10969 276646.080000
    673    675     1   0.10969 276646.080000
    676    677     1   0.10969 276646.080000
    676    678     1   0.10969 276646.080000
    679    680     1   0.10969 276646.080000
    679    681     1   0.10969 276646.080000
    682    683     1   0.10969 276646.080000
    682    684     1   0.10969 276646.080000
    685    686     1   0.10969 276646.080000
    685    687     1   0.10969 276646.080000
    690    719     1   0.10304 312293.760000
    691    692     1   0.10910 283424.160000
    691    693     1   0.10910 283424.160000
    694    695     1   0.10910 283424.160000
    694    696     1   0.10910 283424.160000
    697    698     1   0.10910 283424.160000
    697    699     1   0.10910 283424.160000
    700    701     1   0.10969 276646.080000
    700    702     1   0.10969 276646.080000
    703    704     1   0.10969 276646.080000
    703    705     1   0.10969 276646.080000
    706    707     1   0.10969 276646.080000
    706    708     1   0.10969 276646.080000
    709    710     1   0.10969 276646.080000
    709    711     1   0.10969 276646.080000
    712    713     1   0.10969 276646.080000
    712    714     1   0.10969 276646.080000
    715    716     1   0.10969 276646.080000
    715    717     1   0.10969 276646.080000
    720    749     1   0.10304 312293.760000
    721    722     1   0.10910 283424.160000
    721    723     1   0.10910 283424.160000
    724    725     1   0.10910 283424.160000
    724    726     1   0.10910 283424.160000
    727    728     1   0.10910 283424.160000
    727    729     1   0.10910 283424.160000
    730    731     1   0.10969 276646.080000
    730    732     1   0.10969 276646.080000
    733    734     1   0.10969 276646.080000
    733    735     1   0.10969 276646.080000
    736    737     1   0.10969 276646.080000
    736    738     1   0.10969 276646.080000
    739    740     1   0.10969 276646.080000
    739    741     1   0.10969 276646.080000
    742    743     1   0.10969 276646.080000
    742    744     1   0.10969 276646.080000
    745    746     1   0.10969 276646.080000
    745    747     1   0.10969 276646.080000
    750    779     1   0.10304 312293.760000
    751    752     1   0.10910 283424.160000
    751    753     1   0.10910 283424.160000
    754    755     1   0.10910 283424.160000
    754    756     1   0.10910 283424.160000
    757    758     1   0.10910 283424.160000
    757    759     1   0.10910 283424.160000
    760    761     1   0.10969 276646.080000
    760    762     1   0.10969 276646.080000
    763    764     1   0.10969 276646.080000
    763    765     1   0.10969 276646.080000
    766    767     1   0.10969 276646.080000
    766    768     1   0.10969 276646.080000
    769    770     1   0.10969 276646.080000
    769    771     1   0.10969 276646.080000
    772    773     1   0.10969 276646.080000
    772    774     1   0.10969 276646.080000
    775    776     1   0.10969 276646.080000
    775    777     1   0.10969 276646.080000
    780    809     1   0.10304 312293.760000
    781    782     1   0.10910 283424.160000
    781    783     1   0.10910 283424.160000
    784    785     1   0.10910 283424.160000
    784    786     1   0.10910 283424.160000
    787    788     1   0.10910 283424.160000
    787    789     1   0.10910 283424.160000
    790    791     1   0.10969 276646.080000
    790    792     1   0.10969 276646.080000
    793    794     1   0.10969 276646.080000
    793    795     1   0.10969 276646.080000
    796    797     1   0.10969 276646.080000
    796    798     1   0.10969 276646.080000
    799    800     1   0.10969 276646.080000
    799    801     1   0.10969 276646.080000
    802    803     1   0.10969 276646.080000
    802    804     1   0.10969 276646.080000
    805    806     1   0.10969 276646.080000
    805    807     1   0.10969 276646.080000
    810    839     1   0.10304 312293.760000
    811    812     1   0.10910 283424.160000
    811    813     1   0.10910 283424.160000
    814    815     1   0.10910 283424.160000
    814    816     1   0.10910 283424.160000
    817    818     1   0.10910 283424.160000
    817    819     1   0.10910 283424.160000
    820    821     1   0.10969 276646.080000
    820    822     1   0.10969 276646.080000
    823    824     1   0.10969 276646.080000
    823    825     1   0.10969 276646.080000
    826    827     1   0.10969 276646.080000
    826    828     1   0.10969 276646.080000
    829    830     1   0.10969 276646.080000
    829    831     1   0.10969 276646.080000
    832    833     1   0.10969 276646.080000
    832    834     1   0.10969 276646.080000
    835    836     1   0.10969 276646.080000
    835    837     1   0.10969 276646.080000
    840    869     1   0.10304 312293.760000
    841    842     1   0.10910 283424.160000
    841    843     1   0.10910 283424.160000
    844    845     1   0.10910 283424.160000
    844    846     1   0.10910 283424.160000
    847    848     1   0.10910 283424.160000
    847    849     1   0.10910 283424.160000
    850    851     1   0.10969 276646.080000
    850    852     1   0.10969 276646.080000
    853    854     1   0.10969 276646.080000
    853    855     1   0.10969 276646.080000
    856    857     1   0.10969 276646.080000
    856    858     1   0.10969 276646.080000
    859    860     1   0.10969 276646.080000
    859    861     1   0.10969 276646.080000
    862    863     1   0.10969 276646.080000
    862    864     1   0.10969 276646.080000
    865    866     1   0.10969 276646.080000
    865    867     1   0.10969 276646.080000
    870    899     1   0.10304 312293.760000
    871    872     1   0.10910 283424.160000
    871    873     1   0.10910 283424.160000
    874    875     1   0.10910 283424.160000
    874    876     1   0.10910 283424.160000
    877    878     1   0.10910 283424.160000
    877    879     1   0.10910 283424.160000
    880    881     1   0.10969 276646.080000
    880    882     1   0.10969 276646.080000
    883    884     1   0.10969 276646.080000
    883    885     1   0.10969 276646.080000
    886    887     1   0.10969 276646.080000
    886    888     1   0.10969 276646.080000
    889    890     1   0.10969 276646.080000
    889    891     1   0.10969 276646.080000
    892    893     1   0.10969 276646.080000
    892    894     1   0.10969 276646.080000
    895    896     1   0.10969 276646.080000
    895    897     1   0.10969 276646.080000
    900    929     1   0.10304 312293.760000
    901    902     1   0.10910 283424.160000
    901    903     1   0.10910 283424.160000
    904    905     1   0.10910 283424.160000
    904    906     1   0.10910 283424.160000
    907    908     1   0.10910 283424.160000
    907    909     1   0.10910 283424.160000
    910    911     1   0.10969 276646.080000
    910    912     1   0.10969 276646.080000
    913    914     1   0.10969 276646.080000
    913    915     1   0.10969 276646.080000
    916    917     1   0.10969 276646.080000
    916    918     1   0.10969 276646.080000
    919    920     1   0.10969 276646.080000
    919    921     1   0.10969 276646.080000
    922    923     1   0.10969 276646.080000
    922    924     1   0.10969 276646.080000
    925    926     1   0.10969 276646.080000
    925    927     1   0.10969 276646.080000
    930    959     1   0.10304 312293.760000
    931    932     1   0.10910 283424.160000
    931    933     1   0.10910 283424.160000
    934    935     1   0.10910 283424.160000
    934    936     1   0.10910 283424.160000
    937    938     1   0.10910 283424.160000
    937    939     1   0.10910 283424.160000
    940    941     1   0.10969 276646.080000
    940    942     1   0.10969 276646.080000
    943    944     1   0.10969 276646.080000
    943    945     1   0.10969 276646.080000
    946    947     1   0.10969 276646.080000
    946    948     1   0.10969 276646.080000
    949    950     1   0.10969 276646.080000
    949    951     1   0.10969 276646.080000
    952    953     1   0.10969 276646.080000
    952    954     1   0.10969 276646.080000
    955    956     1   0.10969 276646.080000
    955    957     1   0.10969 276646.080000
    960    989     1   0.10304 312293.760000
    961    962     1   0.10910 283424.160000
    961    963     1   0.10910 283424.160000
    964    965     1   0.10910 283424.160000
    964    966     1   0.10910 283424.160000
    967    968     1   0.10910 283424.160000
    967    969     1   0.10910 283424.160000
    970    971     1   0.10969 276646.080000
    970    972     1   0.10969 276646.080000
    973    974     1   0.10969 276646.080000
    973    975     1   0.10969 276646.080000
    976    977     1   0.10969 276646.080000
    976    978     1   0.10969 276646.080000
    979    980     1   0.10969 276646.080000
    979    981     1   0.10969 276646.080000
    982    983     1   0.10969 276646.080000
    982    984     1   0.10969 276646.080000
    985    986     1   0.10969 276646.080000
    985    987     1   0.10969 276646.080000
    990   1019     1   0.10304 312293.760000
    991    992     1   0.10910 283424.160000
    991    993     1   0.10910 283424.160000
    994    995     1   0.10910 283424.160000
    994    996     1   0.10910 283424.160000
    997    998     1   0.10910 283424.160000
    997    999     1   0.10910 283424.160000
   1000   1001     1   0.10969 276646.080000
   1000   1002     1   0.10969 276646.080000
   1003   1004     1   0.10969 276646.080000
   1003   1005     1   0.10969 276646.080000
   1006   1007     1   0.10969 276646.080000
   1006   1008     1   0.10969 276646.080000
   1009   1010     1   0.10969 276646.080000
   1009   1011     1   0.10969 276646.080000
   1012   1013     1   0.10969 276646.080000
   1012   1014     1   0.10969 276646.080000
   1015   1016     1   0.10969 276646.080000
   1015   1017     1   0.10969 276646.080000
   1020   1049     1   0.10304 312293.760000
   1021   1022     1   0.10910 283424.160000
   1021   1023     1   0.10910 283424.160000
   1024   1025     1   0.10910 283424.160000
   1024   1026     1   0.10910 283424.160000
   1027   1028     1   0.10910 283424.160000
   1027   1029     1   0.10910 283424.160000
   1030   1031     1   0.10969 276646.080000
   1030   1032     1   0.10969 276646.080000
   1033   1034     1   0.10969 276646.080000
   1033   1035     1   0.10969 276646.080000
   1036   1037     1   0.10969 276646.080000
   1036   1038     1   0.10969 276646.080000
   1039   1040     1   0.10969 276646.080000
   1039   1041     1   0.10969 276646.080000
   1042   1043     1   0.10969 276646.080000
   1042   1044     1   0.10969 276646.080000
   1045   1046     1   0.10969 276646.080000
   1045   1047     1   0.10969 276646.080000
   1050   1079     1   0.10304 312293.760000
   1051   1052     1   0.10910 283424.160000
   1051   1053     1   0.10910 283424.160000
   1054   1055     1   0.10910 283424.160000
   1054   1056     1   0.10910 283424.160000
   1057   1058     1   0.10910 283424.160000
   1057   1059     1   0.10910 283424.160000
   1060   1061     1   0.10969 276646.080000
   1060   1062     1   0.10969 276646.080000
   1063   1064     1   0.10969 276646.080000
   1063   1065     1   0.10969 276646.080000
   1066   1067     1   0.10969 276646.080000
   1066   1068     1   0.10969 276646.080000
   1069   1070     1   0.10969 276646.080000
   1069   1071     1   0.10969 276646.080000
   1072   1073     1   0.10969 276646.080000
   1072   1074     1   0.10969 276646.080000
   1075   1076     1   0.10969 276646.080000
   1075   1077     1   0.10969 276646.080000
   1080   1109     1   0.10304 312293.760000
   1081   1082     1   0.10910 283424.160000
   1081   1083     1   0.10910 283424.160000
   1084   1085     1   0.10910 283424.160000
   1084   1086     1   0.10910 283424.160000
   1087   1088     1   0.10910 283424.160000
   1087   1089     1   0.10910 283424.160000
   1090   1091     1   0.10969 276646.080000
   1090   1092     1   0.10969 276646.080000
   1093   1094     1   0.10969 276646.080000
   1093   1095     1   0.10969 276646.080000
   1096   1097     1   0.10969 276646.080000
   1096   1098     1   0.10969 276646.080000
   1099   1100     1   0.10969 276646.080000
   1099   1101     1   0.10969 276646.080000
   1102   1103     1   0.10969 276646.080000
   1102   1104     1   0.10969 276646.080000
   1105   1106     1   0.10969 276646.080000
   1105   1107     1   0.10969 276646.080000
   1110   1139     1   0.10304 312293.760000
   1111   1112     1   0.10910 283424.160000
   1111   1113     1   0.10910 283424.160000
   1114   1115     1   0.10910 283424.160000
   1114   1116     1   0.10910 283424.160000
   1117   1118     1   0.10910 283424.160000
   1117   1119     1   0.10910 283424.160000
   1120   1121     1   0.10969 276646.080000
   1120   1122     1   0.10969 276646.080000
   1123   1124     1   0.10969 276646.080000
   1123   1125     1   0.10969 276646.080000
   1126   1127     1   0.10969 276646.080000
   1126   1128     1   0.10969 276646.080000
   1129   1130     1   0.10969 276646.080000
   1129   1131     1   0.10969 276646.080000
   1132   1133     1   0.10969 276646.080000
   1132   1134     1   0.10969 276646.080000
   1135   1136     1   0.10969 276646.080000
   1135   1137     1   0.10969 276646.080000
   1140   1169     1   0.10304 312293.760000
   1141   1142     1   0.10910 283424.160000
   1141   1143     1   0.10910 283424.160000
   1144   1145     1   0.10910 283424.160000
   1144   1146     1   0.10910 283424.160000
   1147   1148     1   0.10910 283424.160000
   1147   1149     1   0.10910 283424.160000
   1150   1151     1   0.10969 276646.080000
   1150   1152     1   0.10969 276646.080000
   1153   1154     1   0.10969 276646.080000
   1153   1155     1   0.10969 276646.080000
   1156   1157     1   0.10969 276646.080000
   1156   1158     1   0.10969 276646.080000
   1159   1160     1   0.10969 276646.080000
   1159   1161     1   0.10969 276646.080000
   1162   1163     1   0.10969 276646.080000
   1162   1164     1   0.10969 276646.080000
   1165   1166     1   0.10969 276646.080000
   1165   1167     1   0.10969 276646.080000
   1170   1199     1   0.10304 312293.760000
   1171   1172     1   0.10910 283424.160000
   1171   1173     1   0.10910 283424.160000
   1174   1175     1   0.10910 283424.160000
   1174   1176     1   0.10910 283424.160000
   1177   1178     1   0.10910 283424.160000
   1177   1179     1   0.10910 283424.160000
   1180   1181     1   0.10969 276646.080000
   1180   1182     1   0.10969 276646.080000
   1183   1184     1   0.10969 276646.080000
   1183   1185     1   0.10969 276646.080000
   1186   1187     1   0.10969 276646.080000
   1186   1188     1   0.10969 276646.080000
   1189   1190     1   0.10969 276646.080000
   1189   1191     1   0.10969 276646.080000
   1192   1193     1   0.10969 276646.080000
   1192   1194     1   0.10969 276646.080000
   1195   1196     1   0.10969 276646.080000
   1195   1197     1   0.10969 276646.080000
   1200   1229     1   0.10304 312293.760000
   1201   1202     1   0.10910 283424.160000
   1201   1203     1   0.10910 283424.160000
   1204   1205     1   0.10910 283424.160000
   1204   1206     1   0.10910 283424.160000
   1207   1208     1   0.10910 283424.160000
   1207   1209     1   0.10910 283424.160000
   1210   1211     1   0.10969 276646.080000
   1210   1212     1   0.10969 276646.080000
   1213   1214     1   0.10969 276646.080000
   1213   1215     1   0.10969 276646.080000
   1216   1217     1   0.10969 276646.080000
   1216   1218     1   0.10969 276646.080000
   1219   1220     1   0.10969 276646.080000
   1219   1221     1   0.10969 276646.080000
   1222   1223     1   0.10969 276646.080000
   1222   1224     1   0.10969 276646.080000
   1225   1226     1   0.10969 276646.080000
   1225   1227     1   0.10969 276646.080000
   1230   1259     1   0.10304 312293.760000
   1231   1232     1   0.10910 283424.160000
   1231   1233     1   0.10910 283424.160000
   1234   1235     1   0.10910 283424.160000
   1234   1236     1   0.10910 283424.160000
   1237   1238     1   0.10910 283424.160000
   1237   1239     1   0.10910 283424.160000
   1240   1241     1   0.10969 276646.080000
   1240   1242     1   0.10969 276646.080000
   1243   1244     1   0.10969 276646.080000
   1243   1245     1   0.10969 276646.080000
   1246   1247     1   0.10969 276646.080000
   1246   1248     1   0.10969 276646.080000
   1249   1250     1   0.10969 276646.080000
   1249   1251     1   0.10969 276646.080000
   1252   1253     1   0.10969 276646.080000
   1252   1254     1   0.10969 276646.080000
   1255   1256     1   0.10969 276646.080000
   1255   1257     1   0.10969 276646.080000
   1260   1289     1   0.10304 312293.760000
   1261   1262     1   0.10910 283424.160000
   1261   1263     1   0.10910 283424.160000
   1264   1265     1   0.10910 283424.160000
   1264   1266     1   0.10910 283424.160000
   1267   1268     1   0.10910 283424.160000
   1267   1269     1   0.10910 283424.160000
   1270   1271     1   0.10969 276646.080000
   1270   1272     1   0.10969 276646.080000
   1273   1274     1   0.10969 276646.080000
   1273   1275     1   0.10969 276646.080000
   1276   1277     1   0.10969 276646.080000
   1276   1278     1   0.10969 276646.080000
   1279   1280     1   0.10969 276646.080000
   1279   1281     1   0.10969 276646.080000
   1282   1283     1   0.10969 276646.080000
   1282   1284     1   0.10969 276646.080000
   1285   1286     1   0.10969 276646.080000
   1285   1287     1   0.10969 276646.080000
   1290   1319     1   0.10304 312293.760000
   1291   1292     1   0.10910 283424.160000
   1291   1293     1   0.10910 283424.160000
   1294   1295     1   0.10910 283424.160000
   1294   1296     1   0.10910 283424.160000
   1297   1298     1   0.10910 283424.160000
   1297   1299     1   0.10910 283424.160000
   1300   1301     1   0.10969 276646.080000
   1300   1302     1   0.10969 276646.080000
   1303   1304     1   0.10969 276646.080000
   1303   1305     1   0.10969 276646.080000
   1306   1307     1   0.10969 276646.080000
   1306   1308     1   0.10969 276646.080000
   1309   1310     1   0.10969 276646.080000
   1309   1311     1   0.10969 276646.080000
   1312   1313     1   0.10969 276646.080000
   1312   1314     1   0.10969 276646.080000
   1315   1316     1   0.10969 276646.080000
   1315   1317     1   0.10969 276646.080000
   1320   1349     1   0.10304 312293.760000
   1321   1322     1   0.10910 283424.160000
   1321   1323     1   0.10910 283424.160000
   1324   1325     1   0.10910 283424.160000
   1324   1326     1   0.10910 283424.160000
   1327   1328     1   0.10910 283424.160000
   1327   1329     1   0.10910 283424.160000
   1330   1331     1   0.10969 276646.080000
   1330   1332     1   0.10969 276646.080000
   1333   1334     1   0.10969 276646.080000
   1333   1335     1   0.10969 276646.080000
   1336   1337     1   0.10969 276646.080000
   1336   1338     1   0.10969 276646.080000
   1339   1340     1   0.10969 276646.080000
   1339   1341     1   0.10969 276646.080000
   1342   1343     1   0.10969 276646.080000
   1342   1344     1   0.10969 276646.080000
   1345   1346     1   0.10969 276646.080000
   1345   1347     1   0.10969 276646.080000
   1350   1379     1   0.10304 312293.760000
   1351   1352     1   0.10910 283424.160000
   1351   1353     1   0.10910 283424.160000
   1354   1355     1   0.10910 283424.160000
   1354   1356     1   0.10910 283424.160000
   1357   1358     1   0.10910 283424.160000
   1357   1359     1   0.10910 283424.160000
   1360   1361     1   0.10969 276646.080000
   1360   1362     1   0.10969 276646.080000
   1363   1364     1   0.10969 276646.080000
   1363   1365     1   0.10969 276646.080000
   1366   1367     1   0.10969 276646.080000
   1366   1368     1   0.10969 276646.080000
   1369   1370     1   0.10969 276646.080000
   1369   1371     1   0.10969 276646.080000
   1372   1373     1   0.10969 276646.080000
   1372   1374     1   0.10969 276646.080000
   1375   1376     1   0.10969 276646.080000
   1375   1377     1   0.10969 276646.080000
   1380   1409     1   0.10304 312293.760000
   1381   1382     1   0.10910 283424.160000
   1381   1383     1   0.10910 283424.160000
   1384   1385     1   0.10910 283424.160000
   1384   1386     1   0.10910 283424.160000
   1387   1388     1   0.10910 283424.160000
   1387   1389     1   0.10910 283424.160000
   1390   1391     1   0.10969 276646.080000
   1390   1392     1   0.10969 276646.080000
   1393   1394     1   0.10969 276646.080000
   1393   1395     1   0.10969 276646.080000
   1396   1397     1   0.10969 276646.080000
   1396   1398     1   0.10969 276646.080000
   1399   1400     1   0.10969 276646.080000
   1399   1401     1   0.10969 276646.080000
   1402   1403     1   0.10969 276646.080000
   1402   1404     1   0.10969 276646.080000
   1405   1406     1   0.10969 276646.080000
   1405   1407     1   0.10969 276646.080000
   1410   1439     1   0.10304 312293.760000
   1411   1412     1   0.10910 283424.160000
   1411   1413     1   0.10910 283424.160000
   1414   1415     1   0.10910 283424.160000
   1414   1416     1   0.10910 283424.160000
   1417   1418     1   0.10910 283424.160000
   1417   1419     1   0.10910 283424.160000
   1420   1421     1   0.10969 276646.080000
   1420   1422     1   0.10969 276646.080000
   1423   1424     1   0.10969 276646.080000
   1423   1425     1   0.10969 276646.080000
   1426   1427     1   0.10969 276646.080000
   1426   1428     1   0.10969 276646.080000
   1429   1430     1   0.10969 276646.080000
   1429   1431     1   0.10969 276646.080000
   1432   1433     1   0.10969 276646.080000
   1432   1434     1   0.10969 276646.080000
   1435   1436     1   0.10969 276646.080000
   1435   1437     1   0.10969 276646.080000
   1440   1469     1   0.10304 312293.760000
   1441   1442     1   0.10910 283424.160000
   1441   1443     1   0.10910 283424.160000
   1444   1445     1   0.10910 283424.160000
   1444   1446     1   0.10910 283424.160000
   1447   1448     1   0.10910 283424.160000
   1447   1449     1   0.10910 283424.160000
   1450   1451     1   0.10969 276646.080000
   1450   1452     1   0.10969 276646.080000
   1453   1454     1   0.10969 276646.080000
   1453   1455     1   0.10969 276646.080000
   1456   1457     1   0.10969 276646.080000
   1456   1458     1   0.10969 276646.080000
   1459   1460     1   0.10969 276646.080000
   1459   1461     1   0.10969 276646.080000
   1462   1463     1   0.10969 276646.080000
   1462   1464     1   0.10969 276646.080000
   1465   1466     1   0.10969 276646.080000
   1465   1467     1   0.10969 276646.080000
   1470   1499     1   0.10304 312293.760000
   1471   1472     1   0.10910 283424.160000
   1471   1473     1   0.10910 283424.160000
   1474   1475     1   0.10910 283424.160000
   1474   1476     1   0.10910 283424.160000
   1477   1478     1   0.10910 283424.160000
   1477   1479     1   0.10910 283424.160000
   1480   1481     1   0.10969 276646.080000
   1480   1482     1   0.10969 276646.080000
   1483   1484     1   0.10969 276646.080000
   1483   1485     1   0.10969 276646.080000
   1486   1487     1   0.10969 276646.080000
   1486   1488     1   0.10969 276646.080000
   1489   1490     1   0.10969 276646.080000
   1489   1491     1   0.10969 276646.080000
   1492   1493     1   0.10969 276646.080000
   1492   1494     1   0.10969 276646.080000
   1495   1496     1   0.10969 276646.080000
   1495   1497     1   0.10969 276646.080000
   1500   1529     1   0.10304 312293.760000
   1501   1502     1   0.10910 283424.160000
   1501   1503     1   0.10910 283424.160000
   1504   1505     1   0.10910 283424.160000
   1504   1506     1   0.10910 283424.160000
   1507   1508     1   0.10910 283424.160000
   1507   1509     1   0.10910 283424.160000
   1510   1511     1   0.10969 276646.080000
   1510   1512     1   0.10969 276646.080000
   1513   1514     1   0.10969 276646.080000
   1513   1515     1   0.10969 276646.080000
   1516   1517     1   0.10969 276646.080000
   1516   1518     1   0.10969 276646.080000
   1519   1520     1   0.10969 276646.080000
   1519   1521     1   0.10969 276646.080000
   1522   1523     1   0.10969 276646.080000
   1522   1524     1   0.10969 276646.080000
   1525   1526     1   0.10969 276646.080000
   1525   1527     1   0.10969 276646.080000
   1530   1559     1   0.10304 312293.760000
   1531   1532     1   0.10910 283424.160000
   1531   1533     1   0.10910 283424.160000
   1534   1535     1   0.10910 283424.160000
   1534   1536     1   0.10910 283424.160000
   1537   1538     1   0.10910 283424.160000
   1537   1539     1   0.10910 283424.160000
   1540   1541     1   0.10969 276646.080000
   1540   1542     1   0.10969 276646.080000
   1543   1544     1   0.10969 276646.080000
   1543   1545     1   0.10969 276646.080000
   1546   1547     1   0.10969 276646.080000
   1546   1548     1   0.10969 276646.080000
   1549   1550     1   0.10969 276646.080000
   1549   1551     1   0.10969 276646.080000
   1552   1553     1   0.10969 276646.080000
   1552   1554     1   0.10969 276646.080000
   1555   1556     1   0.10969 276646.080000
   1555   1557     1   0.10969 276646.080000
   1560   1589     1   0.10304 312293.760000
   1561   1562     1   0.10910 283424.160000
   1561   1563     1   0.10910 283424.160000
   1564   1565     1   0.10910 283424.160000
   1564   1566     1   0.10910 283424.160000
   1567   1568     1   0.10910 283424.160000
   1567   1569     1   0.10910 283424.160000
   1570   1571     1   0.10969 276646.080000
   1570   1572     1   0.10969 276646.080000
   1573   1574     1   0.10969 276646.080000
   1573   1575     1   0.10969 276646.080000
   1576   1577     1   0.10969 276646.080000
   1576   1578     1   0.10969 276646.080000
   1579   1580     1   0.10969 276646.080000
   1579   1581     1   0.10969 276646.080000
   1582   1583     1   0.10969 276646.080000
   1582   1584     1   0.10969 276646.080000
   1585   1586     1   0.10969 276646.080000
   1585   1587     1   0.10969 276646.080000
   1590   1619     1   0.10304 312293.760000
   1591   1592     1   0.10910 283424.160000
   1591   1593     1   0.10910 283424.160000
   1594   1595     1   0.10910 283424.160000
   1594   1596     1   0.10910 283424.160000
   1597   1598     1   0.10910 283424.160000
   1597   1599     1   0.10910 283424.160000
   1600   1601     1   0.10969 276646.080000
   1600   1602     1   0.10969 276646.080000
   1603   1604     1   0.10969 276646.080000
   1603   1605     1   0.10969 276646.080000
   1606   1607     1   0.10969 276646.080000
   1606   1608     1   0.10969 276646.080000
   1609   1610     1   0.10969 276646.080000
   1609   1611     1   0.10969 276646.080000
   1612   1613     1   0.10969 276646.080000
   1612   1614     1   0.10969 276646.080000
   1615   1616     1   0.10969 276646.080000
   1615   1617     1   0.10969 276646.080000
   1620   1649     1   0.10304 312293.760000
   1621   1622     1   0.10910 283424.160000
   1621   1623     1   0.10910 283424.160000
   1624   1625     1   0.10910 283424.160000
   1624   1626     1   0.10910 283424.160000
   1627   1628     1   0.10910 283424.160000
   1627   1629     1   0.10910 283424.160000
   1630   1631     1   0.10969 276646.080000
   1630   1632     1   0.10969 276646.080000
   1633   1634     1   0.10969 276646.080000
   1633   1635     1   0.10969 276646.080000
   1636   1637     1   0.10969 276646.080000
   1636   1638     1   0.10969 276646.080000
   1639   1640     1   0.10969 276646.080000
   1639   1641     1   0.10969 276646.080000
   1642   1643     1   0.10969 276646.080000
   1642   1644     1   0.10969 276646.080000
   1645   1646     1   0.10969 276646.080000
   1645   1647     1   0.10969 276646.080000
   1650   1679     1   0.10304 312293.760000
   1651   1652     1   0.10910 283424.160000
   1651   1653     1   0.10910 283424.160000
   1654   1655     1   0.10910 283424.160000
   1654   1656     1   0.10910 283424.160000
   1657   1658     1   0.10910 283424.160000
   1657   1659     1   0.10910 283424.160000
   1660   1661     1   0.10969 276646.080000
   1660   1662     1   0.10969 276646.080000
   1663   1664     1   0.10969 276646.080000
   1663   1665     1   0.10969 276646.080000
   1666   1667     1   0.10969 276646.080000
   1666   1668     1   0.10969 276646.080000
   1669   1670     1   0.10969 276646.080000
   1669   1671     1   0.10969 276646.080000
   1672   1673     1   0.10969 276646.080000
   1672   1674     1   0.10969 276646.080000
   1675   1676     1   0.10969 276646.080000
   1675   1677     1   0.10969 276646.080000
   1680   1709     1   0.10304 312293.760000
   1681   1682     1   0.10910 283424.160000
   1681   1683     1   0.10910 283424.160000
   1684   1685     1   0.10910 283424.160000
   1684   1686     1   0.10910 283424.160000
   1687   1688     1   0.10910 283424.160000
   1687   1689     1   0.10910 283424.160000
   1690   1691     1   0.10969 276646.080000
   1690   1692     1   0.10969 276646.080000
   1693   1694     1   0.10969 276646.080000
   1693   1695     1   0.10969 276646.080000
   1696   1697     1   0.10969 276646.080000
   1696   1698     1   0.10969 276646.080000
   1699   1700     1   0.10969 276646.080000
   1699   1701     1   0.10969 276646.080000
   1702   1703     1   0.10969 276646.080000
   1702   1704     1   0.10969 276646.080000
   1705   1706     1   0.10969 276646.080000
   1705   1707     1   0.10969 276646.080000
   1710   1739     1   0.10304 312293.760000
   1711   1712     1   0.10910 283424.160000
   1711   1713     1   0.10910 283424.160000
   1714   1715     1   0.10910 283424.160000
   1714   1716     1   0.10910 283424.160000
   1717   1718     1   0.10910 283424.160000
   1717   1719     1   0.10910 283424.160000
   1720   1721     1   0.10969 276646.080000
   1720   1722     1   0.10969 276646.080000
   1723   1724     1   0.10969 276646.080000
   1723   1725     1   0.10969 276646.080000
   1726   1727     1   0.10969 276646.080000
   1726   1728     1   0.10969 276646.080000
   1729   1730     1   0.10969 276646.080000
   1729   1731     1   0.10969 276646.080000
   1732   1733     1   0.10969 276646.080000
   1732   1734     1   0.10969 276646.080000
   1735   1736     1   0.10969 276646.080000
   1735   1737     1   0.10969 276646.080000
   1740   1769     1   0.10304 312293.760000
   1741   1742     1   0.10910 283424.160000
   1741   1743     1   0.10910 283424.160000
   1744   1745     1   0.10910 283424.160000
   1744   1746     1   0.10910 283424.160000
   1747   1748     1   0.10910 283424.160000
   1747   1749     1   0.10910 283424.160000
   1750   1751     1   0.10969 276646.080000
   1750   1752     1   0.10969 276646.080000
   1753   1754     1   0.10969 276646.080000
   1753   1755     1   0.10969 276646.080000
   1756   1757     1   0.10969 276646.080000
   1756   1758     1   0.10969 276646.080000
   1759   1760     1   0.10969 276646.080000
   1759   1761     1   0.10969 276646.080000
   1762   1763     1   0.10969 276646.080000
   1762   1764     1   0.10969 276646.080000
   1765   1766     1   0.10969 276646.080000
   1765   1767     1   0.10969 276646.080000
   1770   1799     1   0.10304 312293.760000
   1771   1772     1   0.10910 283424.160000
   1771   1773     1   0.10910 283424.160000
   1774   1775     1   0.10910 283424.160000
   1774   1776     1   0.10910 283424.160000
   1777   1778     1   0.10910 283424.160000
   1777   1779     1   0.10910 283424.160000
   1780   1781     1   0.10969 276646.080000
   1780   1782     1   0.10969 276646.080000
   1783   1784     1   0.10969 276646.080000
   1783   1785     1   0.10969 276646.080000
   1786   1787     1   0.10969 276646.080000
   1786   1788     1   0.10969 276646.080000
   1789   1790     1   0.10969 276646.080000
   1789   1791     1   0.10969 276646.080000
   1792   1793     1   0.10969 276646.080000
   1792   1794     1   0.10969 276646.080000
   1795   1796     1   0.10969 276646.080000
   1795   1797     1   0.10969 276646.080000
   1800   1829     1   0.10304 312293.760000
   1801   1802     1   0.10910 283424.160000
   1801   1803     1   0.10910 283424.160000
   1804   1805     1   0.10910 283424.160000
   1804   1806     1   0.10910 283424.160000
   1807   1808     1   0.10910 283424.160000
   1807   1809     1   0.10910 283424.160000
   1810   1811     1   0.10969 276646.080000
   1810   1812     1   0.10969 276646.080000
   1813   1814     1   0.10969 276646.080000
   1813   1815     1   0.10969 276646.080000
   1816   1817     1   0.10969 276646.080000
   1816   1818     1   0.10969 276646.080000
   1819   1820     1   0.10969 276646.080000
   1819   1821     1   0.10969 276646.080000
   1822   1823     1   0.10969 276646.080000
   1822   1824     1   0.10969 276646.080000
   1825   1826     1   0.10969 276646.080000
   1825   1827     1   0.10969 276646.080000
   1830   1859     1   0.10304 312293.760000
   1831   1832     1   0.10910 283424.160000
   1831   1833     1   0.10910 283424.160000
   1834   1835     1   0.10910 283424.160000
   1834   1836     1   0.10910 283424.160000
   1837   1838     1   0.10910 283424.160000
   1837   1839     1   0.10910 283424.160000
   1840   1841     1   0.10969 276646.080000
   1840   1842     1   0.10969 276646.080000
   1843   1844     1   0.10969 276646.080000
   1843   1845     1   0.10969 276646.080000
   1846   1847     1   0.10969 276646.080000
   1846   1848     1   0.10969 276646.080000
   1849   1850     1   0.10969 276646.080000
   1849   1851     1   0.10969 276646.080000
   1852   1853     1   0.10969 276646.080000
   1852   1854     1   0.10969 276646.080000
   1855   1856     1   0.10969 276646.080000
   1855   1857     1   0.10969 276646.080000
   1860   1889     1   0.10304 312293.760000
   1861   1862     1   0.10910 283424.160000
   1861   1863     1   0.10910 283424.160000
   1864   1865     1   0.10910 283424.160000
   1864   1866     1   0.10910 283424.160000
   1867   1868     1   0.10910 283424.160000
   1867   1869     1   0.10910 283424.160000
   1870   1871     1   0.10969 276646.080000
   1870   1872     1   0.10969 276646.080000
   1873   1874     1   0.10969 276646.080000
   1873   1875     1   0.10969 276646.080000
   1876   1877     1   0.10969 276646.080000
   1876   1878     1   0.10969 276646.080000
   1879   1880     1   0.10969 276646.080000
   1879   1881     1   0.10969 276646.080000
   1882   1883     1   0.10969 276646.080000
   1882   1884     1   0.10969 276646.080000
   1885   1886     1   0.10969 276646.080000
   1885   1887     1   0.10969 276646.080000
   1890   1919     1   0.10304 312293.760000
   1891   1892     1   0.10910 283424.160000
   1891   1893     1   0.10910 283424.160000
   1894   1895     1   0.10910 283424.160000
   1894   1896     1   0.10910 283424.160000
   1897   1898     1   0.10910 283424.160000
   1897   1899     1   0.10910 283424.160000
   1900   1901     1   0.10969 276646.080000
   1900   1902     1   0.10969 276646.080000
   1903   1904     1   0.10969 276646.080000
   1903   1905     1   0.10969 276646.080000
   1906   1907     1   0.10969 276646.080000
   1906   1908     1   0.10969 276646.080000
   1909   1910     1   0.10969 276646.080000
   1909   1911     1   0.10969 276646.080000
   1912   1913     1   0.10969 276646.080000
   1912   1914     1   0.10969 276646.080000
   1915   1916     1   0.10969 276646.080000
   1915   1917     1   0.10969 276646.080000
   1920   1949     1   0.10304 312293.760000
   1921   1922     1   0.10910 283424.160000
   1921   1923     1   0.10910 283424.160000
   1924   1925     1   0.10910 283424.160000
   1924   1926     1   0.10910 283424.160000
   1927   1928     1   0.10910 283424.160000
   1927   1929     1   0.10910 283424.160000
   1930   1931     1   0.10969 276646.080000
   1930   1932     1   0.10969 276646.080000
   1933   1934     1   0.10969 276646.080000
   1933   1935     1   0.10969 276646.080000
   1936   1937     1   0.10969 276646.080000
   1936   1938     1   0.10969 276646.080000
   1939   1940     1   0.10969 276646.080000
   1939   1941     1   0.10969 276646.080000
   1942   1943     1   0.10969 276646.080000
   1942   1944     1   0.10969 276646.080000
   1945   1946     1   0.10969 276646.080000
   1945   1947     1   0.10969 276646.080000
   1950   1979     1   0.10304 312293.760000
   1951   1952     1   0.10910 283424.160000
   1951   1953     1   0.10910 283424.160000
   1954   1955     1   0.10910 283424.160000
   1954   1956     1   0.10910 283424.160000
   1957   1958     1   0.10910 283424.160000
   1957   1959     1   0.10910 283424.160000
   1960   1961     1   0.10969 276646.080000
   1960   1962     1   0.10969 276646.080000
   1963   1964     1   0.10969 276646.080000
   1963   1965     1   0.10969 276646.080000
   1966   1967     1   0.10969 276646.080000
   1966   1968     1   0.10969 276646.080000
   1969   1970     1   0.10969 276646.080000
   1969   1971     1   0.10969 276646.080000
   1972   1973     1   0.10969 276646.080000
   1972   1974     1   0.10969 276646.080000
   1975   1976     1   0.10969 276646.080000
   1975   1977     1   0.10969 276646.080000
   1980   2009     1   0.10304 312293.760000
   1981   1982     1   0.10910 283424.160000
   1981   1983     1   0.10910 283424.160000
   1984   1985     1   0.10910 283424.160000
   1984   1986     1   0.10910 283424.160000
   1987   1988     1   0.10910 283424.160000
   1987   1989     1   0.10910 283424.160000
   1990   1991     1   0.10969 276646.080000
   1990   1992     1   0.10969 276646.080000
   1993   1994     1   0.10969 276646.080000
   1993   1995     1   0.10969 276646.080000
   1996   1997     1   0.10969 276646.080000
   1996   1998     1   0.10969 276646.080000
   1999   2000     1   0.10969 276646.080000
   1999   2001     1   0.10969 276646.080000
   2002   2003     1   0.10969 276646.080000
   2002   2004     1   0.10969 276646.080000
   2005   2006     1   0.10969 276646.080000
   2005   2007     1   0.10969 276646.080000
   2010   2039     1   0.10304 312293.760000
   2011   2012     1   0.10910 283424.160000
   2011   2013     1   0.10910 283424.160000
   2014   2015     1   0.10910 283424.160000
   2014   2016     1   0.10910 283424.160000
   2017   2018     1   0.10910 283424.160000
   2017   2019     1   0.10910 283424.160000
   2020   2021     1   0.10969 276646.080000
   2020   2022     1   0.10969 276646.080000
   2023   2024     1   0.10969 276646.080000
   2023   2025     1   0.10969 276646.080000
   2026   2027     1   0.10969 276646.080000
   2026   2028     1   0.10969 276646.080000
   2029   2030     1   0.10969 276646.080000
   2029   2031     1   0.10969 276646.080000
   2032   2033     1   0.10969 276646.080000
   2032   2034     1   0.10969 276646.080000
   2035   2036     1   0.10969 276646.080000
   2035   2037     1   0.10969 276646.080000
   2040   2069     1   0.10304 312293.760000
   2041   2042     1   0.10910 283424.160000
   2041   2043     1   0.10910 283424.160000
   2044   2045     1   0.10910 283424.160000
   2044   2046     1   0.10910 283424.160000
   2047   2048     1   0.10910 283424.160000
   2047   2049     1   0.10910 283424.160000
   2050   2051     1   0.10969 276646.080000
   2050   2052     1   0.10969 276646.080000
   2053   2054     1   0.10969 276646.080000
   2053   2055     1   0.10969 276646.080000
   2056   2057     1   0.10969 276646.080000
   2056   2058     1   0.10969 276646.080000
   2059   2060     1   0.10969 276646.080000
   2059   2061     1   0.10969 276646.080000
   2062   2063     1   0.10969 276646.080000
   2062   2064     1   0.10969 276646.080000
   2065   2066     1   0.10969 276646.080000
   2065   2067     1   0.10969 276646.080000
   2070   2099     1   0.10304 312293.760000
   2071   2072     1   0.10910 283424.160000
   2071   2073     1   0.10910 283424.160000
   2074   2075     1   0.10910 283424.160000
   2074   2076     1   0.10910 283424.160000
   2077   2078     1   0.10910 283424.160000
   2077   2079     1   0.10910 283424.160000
   2080   2081     1   0.10969 276646.080000
   2080   2082     1   0.10969 276646.080000
   2083   2084     1   0.10969 276646.080000
   2083   2085     1   0.10969 276646.080000
   2086   2087     1   0.10969 276646.080000
   2086   2088     1   0.10969 276646.080000
   2089   2090     1   0.10969 276646.080000
   2089   2091     1   0.10969 276646.080000
   2092   2093     1   0.10969 276646.080000
   2092   2094     1   0.10969 276646.080000
   2095   2096     1   0.10969 276646.080000
   2095   2097     1   0.10969 276646.080000
   2100   2129     1   0.10304 312293.760000
   2101   2102     1   0.10910 283424.160000
   2101   2103     1   0.10910 283424.160000
   2104   2105     1   0.10910 283424.160000
   2104   2106     1   0.10910 283424.160000
   2107   2108     1   0.10910 283424.160000
   2107   2109     1   0.10910 283424.160000
   2110   2111     1   0.10969 276646.080000
   2110   2112     1   0.10969 276646.080000
   2113   2114     1   0.10969 276646.080000
   2113   2115     1   0.10969 276646.080000
   2116   2117     1   0.10969 276646.080000
   2116   2118     1   0.10969 276646.080000
   2119   2120     1   0.10969 276646.080000
   2119   2121     1   0.10969 276646.080000
   2122   2123     1   0.10969 276646.080000
   2122   2124     1   0.10969 276646.080000
   2125   2126     1   0.10969 276646.080000
   2125   2127     1   0.10969 276646.080000
   2130   2159     1   0.10304 312293.760000
   2131   2132     1   0.10910 283424.160000
   2131   2133     1   0.10910 283424.160000
   2134   2135     1   0.10910 283424.160000
   2134   2136     1   0.10910 283424.160000
   2137   2138     1   0.10910 283424.160000
   2137   2139     1   0.10910 283424.160000
   2140   2141     1   0.10969 276646.080000
   2140   2142     1   0.10969 276646.080000
   2143   2144     1   0.10969 276646.080000
   2143   2145     1   0.10969 276646.080000
   2146   2147     1   0.10969 276646.080000
   2146   2148     1   0.10969 276646.080000
   2149   2150     1   0.10969 276646.080000
   2149   2151     1   0.10969 276646.080000
   2152   2153     1   0.10969 276646.080000
   2152   2154     1   0.10969 276646.080000
   2155   2156     1   0.10969 276646.080000
   2155   2157     1   0.10969 276646.080000
   2160   2189     1   0.10304 312293.760000
   2161   2162     1   0.10910 283424.160000
   2161   2163     1   0.10910 283424.160000
   2164   2165     1   0.10910 283424.160000
   2164   2166     1   0.10910 283424.160000
   2167   2168     1   0.10910 283424.160000
   2167   2169     1   0.10910 283424.160000
   2170   2171     1   0.10969 276646.080000
   2170   2172     1   0.10969 276646.080000
   2173   2174     1   0.10969 276646.080000
   2173   2175     1   0.10969 276646.080000
   2176   2177     1   0.10969 276646.080000
   2176   2178     1   0.10969 276646.080000
   2179   2180     1   0.10969 276646.080000
   2179   2181     1   0.10969 276646.080000
   2182   2183     1   0.10969 276646.080000
   2182   2184     1   0.10969 276646.080000
   2185   2186     1   0.10969 276646.080000
   2185   2187     1   0.10969 276646.080000
   2190   2219     1   0.10304 312293.760000
   2191   2192     1   0.10910 283424.160000
   2191   2193     1   0.10910 283424.160000
   2194   2195     1   0.10910 283424.160000
   2194   2196     1   0.10910 283424.160000
   2197   2198     1   0.10910 283424.160000
   2197   2199     1   0.10910 283424.160000
   2200   2201     1   0.10969 276646.080000
   2200   2202     1   0.10969 276646.080000
   2203   2204     1   0.10969 276646.080000
   2203   2205     1   0.10969 276646.080000
   2206   2207     1   0.10969 276646.080000
   2206   2208     1   0.10969 276646.080000
   2209   2210     1   0.10969 276646.080000
   2209   2211     1   0.10969 276646.080000
   2212   2213     1   0.10969 276646.080000
   2212   2214     1   0.10969 276646.080000
   2215   2216     1   0.10969 276646.080000
   2215   2217     1   0.10969 276646.080000
   2220   2249     1   0.10304 312293.760000
   2221   2222     1   0.10910 283424.160000
   2221   2223     1   0.10910 283424.160000
   2224   2225     1   0.10910 283424.160000
   2224   2226     1   0.10910 283424.160000
   2227   2228     1   0.10910 283424.160000
   2227   2229     1   0.10910 283424.160000
   2230   2231     1   0.10969 276646.080000
   2230   2232     1   0.10969 276646.080000
   2233   2234     1   0.10969 276646.080000
   2233   2235     1   0.10969 276646.080000
   2236   2237     1   0.10969 276646.080000
   2236   2238     1   0.10969 276646.080000
   2239   2240     1   0.10969 276646.080000
   2239   2241     1   0.10969 276646.080000
   2242   2243     1   0.10969 276646.080000
   2242   2244     1   0.10969 276646.080000
   2245   2246     1   0.10969 276646.080000
   2245   2247     1   0.10969 276646.080000
   2250   2279     1   0.10304 312293.760000
   2251   2252     1   0.10910 283424.160000
   2251   2253     1   0.10910 283424.160000
   2254   2255     1   0.10910 283424.160000
   2254   2256     1   0.10910 283424.160000
   2257   2258     1   0.10910 283424.160000
   2257   2259     1   0.10910 283424.160000
   2260   2261     1   0.10969 276646.080000
   2260   2262     1   0.10969 276646.080000
   2263   2264     1   0.10969 276646.080000
   2263   2265     1   0.10969 276646.080000
   2266   2267     1   0.10969 276646.080000
   2266   2268     1   0.10969 276646.080000
   2269   2270     1   0.10969 276646.080000
   2269   2271     1   0.10969 276646.080000
   2272   2273     1   0.10969 276646.080000
   2272   2274     1   0.10969 276646.080000
   2275   2276     1   0.10969 276646.080000
   2275   2277     1   0.10969 276646.080000
   2280   2309     1   0.10304 312293.760000
   2281   2282     1   0.10910 283424.160000
   2281   2283     1   0.10910 283424.160000
   2284   2285     1   0.10910 283424.160000
   2284   2286     1   0.10910 283424.160000
   2287   2288     1   0.10910 283424.160000
   2287   2289     1   0.10910 283424.160000
   2290   2291     1   0.10969 276646.080000
   2290   2292     1   0.10969 276646.080000
   2293   2294     1   0.10969 276646.080000
   2293   2295     1   0.10969 276646.080000
   2296   2297     1   0.10969 276646.080000
   2296   2298     1   0.10969 276646.080000
   2299   2300     1   0.10969 276646.080000
   2299   2301     1   0.10969 276646.080000
   2302   2303     1   0.10969 276646.080000
   2302   2304     1   0.10969 276646.080000
   2305   2306     1   0.10969 276646.080000
   2305   2307     1   0.10969 276646.080000
   2310   2339     1   0.10304 312293.760000
   2311   2312     1   0.10910 283424.160000
   2311   2313     1   0.10910 283424.160000
   2314   2315     1   0.10910 283424.160000
   2314   2316     1   0.10910 283424.160000
   2317   2318     1   0.10910 283424.160000
   2317   2319     1   0.10910 283424.160000
   2320   2321     1   0.10969 276646.080000
   2320   2322     1   0.10969 276646.080000
   2323   2324     1   0.10969 276646.080000
   2323   2325     1   0.10969 276646.080000
   2326   2327     1   0.10969 276646.080000
   2326   2328     1   0.10969 276646.080000
   2329   2330     1   0.10969 276646.080000
   2329   2331     1   0.10969 276646.080000
   2332   2333     1   0.10969 276646.080000
   2332   2334     1   0.10969 276646.080000
   2335   2336     1   0.10969 276646.080000
   2335   2337     1   0.10969 276646.080000
   2340   2369     1   0.10304 312293.760000
   2341   2342     1   0.10910 283424.160000
   2341   2343     1   0.10910 283424.160000
   2344   2345     1   0.10910 283424.160000
   2344   2346     1   0.10910 283424.160000
   2347   2348     1   0.10910 283424.160000
   2347   2349     1   0.10910 283424.160000
   2350   2351     1   0.10969 276646.080000
   2350   2352     1   0.10969 276646.080000
   2353   2354     1   0.10969 276646.080000
   2353   2355     1   0.10969 276646.080000
   2356   2357     1   0.10969 276646.080000
   2356   2358     1   0.10969 276646.080000
   2359   2360     1   0.10969 276646.080000
   2359   2361     1   0.10969 276646.080000
   2362   2363     1   0.10969 276646.080000
   2362   2364     1   0.10969 276646.080000
   2365   2366     1   0.10969 276646.080000
   2365   2367     1   0.10969 276646.080000
   2370   2399     1   0.10304 312293.760000
   2371   2372     1   0.10910 283424.160000
   2371   2373     1   0.10910 283424.160000
   2374   2375     1   0.10910 283424.160000
   2374   2376     1   0.10910 283424.160000
   2377   2378     1   0.10910 283424.160000
   2377   2379     1   0.10910 283424.160000
   2380   2381     1   0.10969 276646.080000
   2380   2382     1   0.10969 276646.080000
   2383   2384     1   0.10969 276646.080000
   2383   2385     1   0.10969 276646.080000
   2386   2387     1   0.10969 276646.080000
   2386   2388     1   0.10969 276646.080000
   2389   2390     1   0.10969 276646.080000
   2389   2391     1   0.10969 276646.080000
   2392   2393     1   0.10969 276646.080000
   2392   2394     1   0.10969 276646.080000
   2395   2396     1   0.10969 276646.080000
   2395   2397     1   0.10969 276646.080000
   2400   2429     1   0.10304 312293.760000
   2401   2402     1   0.10910 283424.160000
   2401   2403     1   0.10910 283424.160000
   2404   2405     1   0.10910 283424.160000
   2404   2406     1   0.10910 283424.160000
   2407   2408     1   0.10910 283424.160000
   2407   2409     1   0.10910 283424.160000
   2410   2411     1   0.10969 276646.080000
   2410   2412     1   0.10969 276646.080000
   2413   2414     1   0.10969 276646.080000
   2413   2415     1   0.10969 276646.080000
   2416   2417     1   0.10969 276646.080000
   2416   2418     1   0.10969 276646.080000
   2419   2420     1   0.10969 276646.080000
   2419   2421     1   0.10969 276646.080000
   2422   2423     1   0.10969 276646.080000
   2422   2424     1   0.10969 276646.080000
   2425   2426     1   0.10969 276646.080000
   2425   2427     1   0.10969 276646.080000
   2430   2459     1   0.10304 312293.760000
   2431   2432     1   0.10910 283424.160000
   2431   2433     1   0.10910 283424.160000
   2434   2435     1   0.10910 283424.160000
   2434   2436     1   0.10910 283424.160000
   2437   2438     1   0.10910 283424.160000
   2437   2439     1   0.10910 283424.160000
   2440   2441     1   0.10969 276646.080000
   2440   2442     1   0.10969 276646.080000
   2443   2444     1   0.10969 276646.080000
   2443   2445     1   0.10969 276646.080000
   2446   2447     1   0.10969 276646.080000
   2446   2448     1   0.10969 276646.080000
   2449   2450     1   0.10969 276646.080000
   2449   2451     1   0.10969 276646.080000
   2452   2453     1   0.10969 276646.080000
   2452   2454     1   0.10969 276646.080000
   2455   2456     1   0.10969 276646.080000
   2455   2457     1   0.10969 276646.080000
   2460   2489     1   0.10304 312293.760000
   2461   2462     1   0.10910 283424.160000
   2461   2463     1   0.10910 283424.160000
   2464   2465     1   0.10910 283424.160000
   2464   2466     1   0.10910 283424.160000
   2467   2468     1   0.10910 283424.160000
   2467   2469     1   0.10910 283424.160000
   2470   2471     1   0.10969 276646.080000
   2470   2472     1   0.10969 276646.080000
   2473   2474     1   0.10969 276646.080000
   2473   2475     1   0.10969 276646.080000
   2476   2477     1   0.10969 276646.080000
   2476   2478     1   0.10969 276646.080000
   2479   2480     1   0.10969 276646.080000
   2479   2481     1   0.10969 276646.080000
   2482   2483     1   0.10969 276646.080000
   2482   2484     1   0.10969 276646.080000
   2485   2486     1   0.10969 276646.080000
   2485   2487     1   0.10969 276646.080000
   2490   2519     1   0.10304 312293.760000
   2491   2492     1   0.10910 283424.160000
   2491   2493     1   0.10910 283424.160000
   2494   2495     1   0.10910 283424.160000
   2494   2496     1   0.10910 283424.160000
   2497   2498     1   0.10910 283424.160000
   2497   2499     1   0.10910 283424.160000
   2500   2501     1   0.10969 276646.080000
   2500   2502     1   0.10969 276646.080000
   2503   2504     1   0.10969 276646.080000
   2503   2505     1   0.10969 276646.080000
   2506   2507     1   0.10969 276646.080000
   2506   2508     1   0.10969 276646.080000
   2509   2510     1   0.10969 276646.080000
   2509   2511     1   0.10969 276646.080000
   2512   2513     1   0.10969 276646.080000
   2512   2514     1   0.10969 276646.080000
   2515   2516     1   0.10969 276646.080000
   2515   2517     1   0.10969 276646.080000
   2520   2549     1   0.10304 312293.760000
   2521   2522     1   0.10910 283424.160000
   2521   2523     1   0.10910 283424.160000
   2524   2525     1   0.10910 283424.160000
   2524   2526     1   0.10910 283424.160000
   2527   2528     1   0.10910 283424.160000
   2527   2529     1   0.10910 283424.160000
   2530   2531     1   0.10969 276646.080000
   2530   2532     1   0.10969 276646.080000
   2533   2534     1   0.10969 276646.080000
   2533   2535     1   0.10969 276646.080000
   2536   2537     1   0.10969 276646.080000
   2536   2538     1   0.10969 276646.080000
   2539   2540     1   0.10969 276646.080000
   2539   2541     1   0.10969 276646.080000
   2542   2543     1   0.10969 276646.080000
   2542   2544     1   0.10969 276646.080000
   2545   2546     1   0.10969 276646.080000
   2545   2547     1   0.10969 276646.080000
   2550   2579     1   0.10304 312293.760000
   2551   2552     1   0.10910 283424.160000
   2551   2553     1   0.10910 283424.160000
   2554   2555     1   0.10910 283424.160000
   2554   2556     1   0.10910 283424.160000
   2557   2558     1   0.10910 283424.160000
   2557   2559     1   0.10910 283424.160000
   2560   2561     1   0.10969 276646.080000
   2560   2562     1   0.10969 276646.080000
   2563   2564     1   0.10969 276646.080000
   2563   2565     1   0.10969 276646.080000
   2566   2567     1   0.10969 276646.080000
   2566   2568     1   0.10969 276646.080000
   2569   2570     1   0.10969 276646.080000
   2569   2571     1   0.10969 276646.080000
   2572   2573     1   0.10969 276646.080000
   2572   2574     1   0.10969 276646.080000
   2575   2576     1   0.10969 276646.080000
   2575   2577     1   0.10969 276646.080000
   2580   2609     1   0.10304 312293.760000
   2581   2582     1   0.10910 283424.160000
   2581   2583     1   0.10910 283424.160000
   2584   2585     1   0.10910 283424.160000
   2584   2586     1   0.10910 283424.160000
   2587   2588     1   0.10910 283424.160000
   2587   2589     1   0.10910 283424.160000
   2590   2591     1   0.10969 276646.080000
   2590   2592     1   0.10969 276646.080000
   2593   2594     1   0.10969 276646.080000
   2593   2595     1   0.10969 276646.080000
   2596   2597     1   0.10969 276646.080000
   2596   2598     1   0.10969 276646.080000
   2599   2600     1   0.10969 276646.080000
   2599   2601     1   0.10969 276646.080000
   2602   2603     1   0.10969 276646.080000
   2602   2604     1   0.10969 276646.080000
   2605   2606     1   0.10969 276646.080000
   2605   2607     1   0.10969 276646.080000
   2610   2639     1   0.10304 312293.760000
   2611   2612     1   0.10910 283424.160000
   2611   2613     1   0.10910 283424.160000
   2614   2615     1   0.10910 283424.160000
   2614   2616     1   0.10910 283424.160000
   2617   2618     1   0.10910 283424.160000
   2617   2619     1   0.10910 283424.160000
   2620   2621     1   0.10969 276646.080000
   2620   2622     1   0.10969 276646.080000
   2623   2624     1   0.10969 276646.080000
   2623   2625     1   0.10969 276646.080000
   2626   2627     1   0.10969 276646.080000
   2626   2628     1   0.10969 276646.080000
   2629   2630     1   0.10969 276646.080000
   2629   2631     1   0.10969 276646.080000
   2632   2633     1   0.10969 276646.080000
   2632   2634     1   0.10969 276646.080000
   2635   2636     1   0.10969 276646.080000
   2635   2637     1   0.10969 276646.080000
   2640   2669     1   0.10304 312293.760000
   2641   2642     1   0.10910 283424.160000
   2641   2643     1   0.10910 283424.160000
   2644   2645     1   0.10910 283424.160000
   2644   2646     1   0.10910 283424.160000
   2647   2648     1   0.10910 283424.160000
   2647   2649     1   0.10910 283424.160000
   2650   2651     1   0.10969 276646.080000
   2650   2652     1   0.10969 276646.080000
   2653   2654     1   0.10969 276646.080000
   2653   2655     1   0.10969 276646.080000
   2656   2657     1   0.10969 276646.080000
   2656   2658     1   0.10969 276646.080000
   2659   2660     1   0.10969 276646.080000
   2659   2661     1   0.10969 276646.080000
   2662   2663     1   0.10969 276646.080000
   2662   2664     1   0.10969 276646.080000
   2665   2666     1   0.10969 276646.080000
   2665   2667     1   0.10969 276646.080000
   2670   2699     1   0.10304 312293.760000
   2671   2672     1   0.10910 283424.160000
   2671   2673     1   0.10910 283424.160000
   2674   2675     1   0.10910 283424.160000
   2674   2676     1   0.10910 283424.160000
   2677   2678     1   0.10910 283424.160000
   2677   2679     1   0.10910 283424.160000
   2680   2681     1   0.10969 276646.080000
   2680   2682     1   0.10969 276646.080000
   2683   2684     1   0.10969 276646.080000
   2683   2685     1   0.10969 276646.080000
   2686   2687     1   0.10969 276646.080000
   2686   2688     1   0.10969 276646.080000
   2689   2690     1   0.10969 276646.080000
   2689   2691     1   0.10969 276646.080000
   2692   2693     1   0.10969 276646.080000
   2692   2694     1   0.10969 276646.080000
   2695   2696     1   0.10969 276646.080000
   2695   2697     1   0.10969 276646.080000
   2700   2729     1   0.10304 312293.760000
   2701   2702     1   0.10910 283424.160000
   2701   2703     1   0.10910 283424.160000
   2704   2705     1   0.10910 283424.160000
   2704   2706     1   0.10910 283424.160000
   2707   2708     1   0.10910 283424.160000
   2707   2709     1   0.10910 283424.160000
   2710   2711     1   0.10969 276646.080000
   2710   2712     1   0.10969 276646.080000
   2713   2714     1   0.10969 276646.080000
   2713   2715     1   0.10969 276646.080000
   2716   2717     1   0.10969 276646.080000
   2716   2718     1   0.10969 276646.080000
   2719   2720     1   0.10969 276646.080000
   2719   2721     1   0.10969 276646.080000
   2722   2723     1   0.10969 276646.080000
   2722   2724     1   0.10969 276646.080000
   2725   2726     1   0.10969 276646.080000
   2725   2727     1   0.10969 276646.080000
   2730   2759     1   0.10304 312293.760000
   2731   2732     1   0.10910 283424.160000
   2731   2733     1   0.10910 283424.160000
   2734   2735     1   0.10910 283424.160000
   2734   2736     1   0.10910 283424.160000
   2737   2738     1   0.10910 283424.160000
   2737   2739     1   0.10910 283424.160000
   2740   2741     1   0.10969 276646.080000
   2740   2742     1   0.10969 276646.080000
   2743   2744     1   0.10969 276646.080000
   2743   2745     1   0.10969 276646.080000
   2746   2747     1   0.10969 276646.080000
   2746   2748     1   0.10969 276646.080000
   2749   2750     1   0.10969 276646.080000
   2749   2751     1   0.10969 276646.080000
   2752   2753     1   0.10969 276646.080000
   2752   2754     1   0.10969 276646.080000
   2755   2756     1   0.10969 276646.080000
   2755   2757     1   0.10969 276646.080000
   2760   2789     1   0.10304 312293.760000
   2761   2762     1   0.10910 283424.160000
   2761   2763     1   0.10910 283424.160000
   2764   2765     1   0.10910 283424.160000
   2764   2766     1   0.10910 283424.160000
   2767   2768     1   0.10910 283424.160000
   2767   2769     1   0.10910 283424.160000
   2770   2771     1   0.10969 276646.080000
   2770   2772     1   0.10969 276646.080000
   2773   2774     1   0.10969 276646.080000
   2773   2775     1   0.10969 276646.080000
   2776   2777     1   0.10969 276646.080000
   2776   2778     1   0.10969 276646.080000
   2779   2780     1   0.10969 276646.080000
   2779   2781     1   0.10969 276646.080000
   2782   2783     1   0.10969 276646.080000
   2782   2784     1   0.10969 276646.080000
   2785   2786     1   0.10969 276646.080000
   2785   2787     1   0.10969 276646.080000
   2790   2819     1   0.10304 312293.760000
   2791   2792     1   0.10910 283424.160000
   2791   2793     1   0.10910 283424.160000
   2794   2795     1   0.10910 283424.160000
   2794   2796     1   0.10910 283424.160000
   2797   2798     1   0.10910 283424.160000
   2797   2799     1   0.10910 283424.160000
   2800   2801     1   0.10969 276646.080000
   2800   2802     1   0.10969 276646.080000
   2803   2804     1   0.10969 276646.080000
   2803   2805     1   0.10969 276646.080000
   2806   2807     1   0.10969 276646.080000
   2806   2808     1   0.10969 276646.080000
   2809   2810     1   0.10969 276646.080000
   2809   2811     1   0.10969 276646.080000
   2812   2813     1   0.10969 276646.080000
   2812   2814     1   0.10969 276646.080000
   2815   2816     1   0.10969 276646.080000
   2815   2817     1   0.10969 276646.080000
   2820   2849     1   0.10304 312293.760000
   2821   2822     1   0.10910 283424.160000
   2821   2823     1   0.10910 283424.160000
   2824   2825     1   0.10910 283424.160000
   2824   2826     1   0.10910 283424.160000
   2827   2828     1   0.10910 283424.160000
   2827   2829     1   0.10910 283424.160000
   2830   2831     1   0.10969 276646.080000
   2830   2832     1   0.10969 276646.080000
   2833   2834     1   0.10969 276646.080000
   2833   2835     1   0.10969 276646.080000
   2836   2837     1   0.10969 276646.080000
   2836   2838     1   0.10969 276646.080000
   2839   2840     1   0.10969 276646.080000
   2839   2841     1   0.10969 276646.080000
   2842   2843     1   0.10969 276646.080000
   2842   2844     1   0.10969 276646.080000
   2845   2846     1   0.10969 276646.080000
   2845   2847     1   0.10969 276646.080000
   2850   2879     1   0.10304 312293.760000
   2851   2852     1   0.10910 283424.160000
   2851   2853     1   0.10910 283424.160000
   2854   2855     1   0.10910 283424.160000
   2854   2856     1   0.10910 283424.160000
   2857   2858     1   0.10910 283424.160000
   2857   2859     1   0.10910 283424.160000
   2860   2861     1   0.10969 276646.080000
   2860   2862     1   0.10969 276646.080000
   2863   2864     1   0.10969 276646.080000
   2863   2865     1   0.10969 276646.080000
   2866   2867     1   0.10969 276646.080000
   2866   2868     1   0.10969 276646.080000
   2869   2870     1   0.10969 276646.080000
   2869   2871     1   0.10969 276646.080000
   2872   2873     1   0.10969 276646.080000
   2872   2874     1   0.10969 276646.080000
   2875   2876     1   0.10969 276646.080000
   2875   2877     1   0.10969 276646.080000
   2880   2909     1   0.10304 312293.760000
   2881   2882     1   0.10910 283424.160000
   2881   2883     1   0.10910 283424.160000
   2884   2885     1   0.10910 283424.160000
   2884   2886     1   0.10910 283424.160000
   2887   2888     1   0.10910 283424.160000
   2887   2889     1   0.10910 283424.160000
   2890   2891     1   0.10969 276646.080000
   2890   2892     1   0.10969 276646.080000
   2893   2894     1   0.10969 276646.080000
   2893   2895     1   0.10969 276646.080000
   2896   2897     1   0.10969 276646.080000
   2896   2898     1   0.10969 276646.080000
   2899   2900     1   0.10969 276646.080000
   2899   2901     1   0.10969 276646.080000
   2902   2903     1   0.10969 276646.080000
   2902   2904     1   0.10969 276646.080000
   2905   2906     1   0.10969 276646.080000
   2905   2907     1   0.10969 276646.080000
   2910   2939     1   0.10304 312293.760000
   2911   2912     1   0.10910 283424.160000
   2911   2913     1   0.10910 283424.160000
   2914   2915     1   0.10910 283424.160000
   2914   2916     1   0.10910 283424.160000
   2917   2918     1   0.10910 283424.160000
   2917   2919     1   0.10910 283424.160000
   2920   2921     1   0.10969 276646.080000
   2920   2922     1   0.10969 276646.080000
   2923   2924     1   0.10969 276646.080000
   2923   2925     1   0.10969 276646.080000
   2926   2927     1   0.10969 276646.080000
   2926   2928     1   0.10969 276646.080000
   2929   2930     1   0.10969 276646.080000
   2929   2931     1   0.10969 276646.080000
   2932   2933     1   0.10969 276646.080000
   2932   2934     1   0.10969 276646.080000
   2935   2936     1   0.10969 276646.080000
   2935   2937     1   0.10969 276646.080000
   2940   2969     1   0.10304 312293.760000
   2941   2942     1   0.10910 283424.160000
   2941   2943     1   0.10910 283424.160000
   2944   2945     1   0.10910 283424.160000
   2944   2946     1   0.10910 283424.160000
   2947   2948     1   0.10910 283424.160000
   2947   2949     1   0.10910 283424.160000
   2950   2951     1   0.10969 276646.080000
   2950   2952     1   0.10969 276646.080000
   2953   2954     1   0.10969 276646.080000
   2953   2955     1   0.10969 276646.080000
   2956   2957     1   0.10969 276646.080000
   2956   2958     1   0.10969 276646.080000
   2959   2960     1   0.10969 276646.080000
   2959   2961     1   0.10969 276646.080000
   2962   2963     1   0.10969 276646.080000
   2962   2964     1   0.10969 276646.080000
   2965   2966     1   0.10969 276646.080000
   2965   2967     1   0.10969 276646.080000
   2970   2999     1   0.10304 312293.760000
   2971   2972     1   0.10910 283424.160000
   2971   2973     1   0.10910 283424.160000
   2974   2975     1   0.10910 283424.160000
   2974   2976     1   0.10910 283424.160000
   2977   2978     1   0.10910 283424.160000
   2977   2979     1   0.10910 283424.160000
   2980   2981     1   0.10969 276646.080000
   2980   2982     1   0.10969 276646.080000
   2983   2984     1   0.10969 276646.080000
   2983   2985     1   0.10969 276646.080000
   2986   2987     1   0.10969 276646.080000
   2986   2988     1   0.10969 276646.080000
   2989   2990     1   0.10969 276646.080000
   2989   2991     1   0.10969 276646.080000
   2992   2993     1   0.10969 276646.080000
   2992   2994     1   0.10969 276646.080000
   2995   2996     1   0.10969 276646.080000
   2995   2997     1   0.10969 276646.080000
   3000   3029     1   0.10304 312293.760000
   3001   3002     1   0.10910 283424.160000
   3001   3003     1   0.10910 283424.160000
   3004   3005     1   0.10910 283424.160000
   3004   3006     1   0.10910 283424.160000
   3007   3008     1   0.10910 283424.160000
   3007   3009     1   0.10910 283424.160000
   3010   3011     1   0.10969 276646.080000
   3010   3012     1   0.10969 276646.080000
   3013   3014     1   0.10969 276646.080000
   3013   3015     1   0.10969 276646.080000
   3016   3017     1   0.10969 276646.080000
   3016   3018     1   0.10969 276646.080000
   3019   3020     1   0.10969 276646.080000
   3019   3021     1   0.10969 276646.080000
   3022   3023     1   0.10969 276646.080000
   3022   3024     1   0.10969 276646.080000
   3025   3026     1   0.10969 276646.080000
   3025   3027     1   0.10969 276646.080000
   3030   3059     1   0.10304 312293.760000
   3031   3032     1   0.10910 283424.160000
   3031   3033     1   0.10910 283424.160000
   3034   3035     1   0.10910 283424.160000
   3034   3036     1   0.10910 283424.160000
   3037   3038     1   0.10910 283424.160000
   3037   3039     1   0.10910 283424.160000
   3040   3041     1   0.10969 276646.080000
   3040   3042     1   0.10969 276646.080000
   3043   3044     1   0.10969 276646.080000
   3043   3045     1   0.10969 276646.080000
   3046   3047     1   0.10969 276646.080000
   3046   3048     1   0.10969 276646.080000
   3049   3050     1   0.10969 276646.080000
   3049   3051     1   0.10969 276646.080000
   3052   3053     1   0.10969 276646.080000
   3052   3054     1   0.10969 276646.080000
   3055   3056     1   0.10969 276646.080000
   3055   3057     1   0.10969 276646.080000
   3060   3089     1   0.10304 312293.760000
   3061   3062     1   0.10910 283424.160000
   3061   3063     1   0.10910 283424.160000
   3064   3065     1   0.10910 283424.160000
   3064   3066     1   0.10910 283424.160000
   3067   3068     1   0.10910 283424.160000
   3067   3069     1   0.10910 283424.160000
   3070   3071     1   0.10969 276646.080000
   3070   3072     1   0.10969 276646.080000
   3073   3074     1   0.10969 276646.080000
   3073   3075     1   0.10969 276646.080000
   3076   3077     1   0.10969 276646.080000
   3076   3078     1   0.10969 276646.080000
   3079   3080     1   0.10969 276646.080000
   3079   3081     1   0.10969 276646.080000
   3082   3083     1   0.10969 276646.080000
   3082   3084     1   0.10969 276646.080000
   3085   3086     1   0.10969 276646.080000
   3085   3087     1   0.10969 276646.080000
   3090   3119     1   0.10304 312293.760000
   3091   3092     1   0.10910 283424.160000
   3091   3093     1   0.10910 283424.160000
   3094   3095     1   0.10910 283424.160000
   3094   3096     1   0.10910 283424.160000
   3097   3098     1   0.10910 283424.160000
   3097   3099     1   0.10910 283424.160000
   3100   3101     1   0.10969 276646.080000
   3100   3102     1   0.10969 276646.080000
   3103   3104     1   0.10969 276646.080000
   3103   3105     1   0.10969 276646.080000
   3106   3107     1   0.10969 276646.080000
   3106   3108     1   0.10969 276646.080000
   3109   3110     1   0.10969 276646.080000
   3109   3111     1   0.10969 276646.080000
   3112   3113     1   0.10969 276646.080000
   3112   3114     1   0.10969 276646.080000
   3115   3116     1   0.10969 276646.080000
   3115   3117     1   0.10969 276646.080000
   3120   3149     1   0.10304 312293.760000
   3121   3122     1   0.10910 283424.160000
   3121   3123     1   0.10910 283424.160000
   3124   3125     1   0.10910 283424.160000
   3124   3126     1   0.10910 283424.160000
   3127   3128     1   0.10910 283424.160000
   3127   3129     1   0.10910 283424.160000
   3130   3131     1   0.10969 276646.080000
   3130   3132     1   0.10969 276646.080000
   3133   3134     1   0.10969 276646.080000
   3133   3135     1   0.10969 276646.080000
   3136   3137     1   0.10969 276646.080000
   3136   3138     1   0.10969 276646.080000
   3139   3140     1   0.10969 276646.080000
   3139   3141     1   0.10969 276646.080000
   3142   3143     1   0.10969 276646.080000
   3142   3144     1   0.10969 276646.080000
   3145   3146     1   0.10969 276646.080000
   3145   3147     1   0.10969 276646.080000
   3150   3179     1   0.10304 312293.760000
   3151   3152     1   0.10910 283424.160000
   3151   3153     1   0.10910 283424.160000
   3154   3155     1   0.10910 283424.160000
   3154   3156     1   0.10910 283424.160000
   3157   3158     1   0.10910 283424.160000
   3157   3159     1   0.10910 283424.160000
   3160   3161     1   0.10969 276646.080000
   3160   3162     1   0.10969 276646.080000
   3163   3164     1   0.10969 276646.080000
   3163   3165     1   0.10969 276646.080000
   3166   3167     1   0.10969 276646.080000
   3166   3168     1   0.10969 276646.080000
   3169   3170     1   0.10969 276646.080000
   3169   3171     1   0.10969 276646.080000
   3172   3173     1   0.10969 276646.080000
   3172   3174     1   0.10969 276646.080000
   3175   3176     1   0.10969 276646.080000
   3175   3177     1   0.10969 276646.080000
   3180   3209     1   0.10304 312293.760000
   3181   3182     1   0.10910 283424.160000
   3181   3183     1   0.10910 283424.160000
   3184   3185     1   0.10910 283424.160000
   3184   3186     1   0.10910 283424.160000
   3187   3188     1   0.10910 283424.160000
   3187   3189     1   0.10910 283424.160000
   3190   3191     1   0.10969 276646.080000
   3190   3192     1   0.10969 276646.080000
   3193   3194     1   0.10969 276646.080000
   3193   3195     1   0.10969 276646.080000
   3196   3197     1   0.10969 276646.080000
   3196   3198     1   0.10969 276646.080000
   3199   3200     1   0.10969 276646.080000
   3199   3201     1   0.10969 276646.080000
   3202   3203     1   0.10969 276646.080000
   3202   3204     1   0.10969 276646.080000
   3205   3206     1   0.10969 276646.080000
   3205   3207     1   0.10969 276646.080000
   3210   3239     1   0.10304 312293.760000
   3211   3212     1   0.10910 283424.160000
   3211   3213     1   0.10910 283424.160000
   3214   3215     1   0.10910 283424.160000
   3214   3216     1   0.10910 283424.160000
   3217   3218     1   0.10910 283424.160000
   3217   3219     1   0.10910 283424.160000
   3220   3221     1   0.10969 276646.080000
   3220   3222     1   0.10969 276646.080000
   3223   3224     1   0.10969 276646.080000
   3223   3225     1   0.10969 276646.080000
   3226   3227     1   0.10969 276646.080000
   3226   3228     1   0.10969 276646.080000
   3229   3230     1   0.10969 276646.080000
   3229   3231     1   0.10969 276646.080000
   3232   3233     1   0.10969 276646.080000
   3232   3234     1   0.10969 276646.080000
   3235   3236     1   0.10969 276646.080000
   3235   3237     1   0.10969 276646.080000
   3240   3269     1   0.10304 312293.760000
   3241   3242     1   0.10910 283424.160000
   3241   3243     1   0.10910 283424.160000
   3244   3245     1   0.10910 283424.160000
   3244   3246     1   0.10910 283424.160000
   3247   3248     1   0.10910 283424.160000
   3247   3249     1   0.10910 283424.160000
   3250   3251     1   0.10969 276646.080000
   3250   3252     1   0.10969 276646.080000
   3253   3254     1   0.10969 276646.080000
   3253   3255     1   0.10969 276646.080000
   3256   3257     1   0.10969 276646.080000
   3256   3258     1   0.10969 276646.080000
   3259   3260     1   0.10969 276646.080000
   3259   3261     1   0.10969 276646.080000
   3262   3263     1   0.10969 276646.080000
   3262   3264     1   0.10969 276646.080000
   3265   3266     1   0.10969 276646.080000
   3265   3267     1   0.10969 276646.080000
   3270   3299     1   0.10304 312293.760000
   3271   3272     1   0.10910 283424.160000
   3271   3273     1   0.10910 283424.160000
   3274   3275     1   0.10910 283424.160000
   3274   3276     1   0.10910 283424.160000
   3277   3278     1   0.10910 283424.160000
   3277   3279     1   0.10910 283424.160000
   3280   3281     1   0.10969 276646.080000
   3280   3282     1   0.10969 276646.080000
   3283   3284     1   0.10969 276646.080000
   3283   3285     1   0.10969 276646.080000
   3286   3287     1   0.10969 276646.080000
   3286   3288     1   0.10969 276646.080000
   3289   3290     1   0.10969 276646.080000
   3289   3291     1   0.10969 276646.080000
   3292   3293     1   0.10969 276646.080000
   3292   3294     1   0.10969 276646.080000
   3295   3296     1   0.10969 276646.080000
   3295   3297     1   0.10969 276646.080000
   3300   3329     1   0.10304 312293.760000
   3301   3302     1   0.10910 283424.160000
   3301   3303     1   0.10910 283424.160000
   3304   3305     1   0.10910 283424.160000
   3304   3306     1   0.10910 283424.160000
   3307   3308     1   0.10910 283424.160000
   3307   3309     1   0.10910 283424.160000
   3310   3311     1   0.10969 276646.080000
   3310   3312     1   0.10969 276646.080000
   3313   3314     1   0.10969 276646.080000
   3313   3315     1   0.10969 276646.080000
   3316   3317     1   0.10969 276646.080000
   3316   3318     1   0.10969 276646.080000
   3319   3320     1   0.10969 276646.080000
   3319   3321     1   0.10969 276646.080000
   3322   3323     1   0.10969 276646.080000
   3322   3324     1   0.10969 276646.080000
   3325   3326     1   0.10969 276646.080000
   3325   3327     1   0.10969 276646.080000
   3330   3359     1   0.10304 312293.760000
   3331   3332     1   0.10910 283424.160000
   3331   3333     1   0.10910 283424.160000
   3334   3335     1   0.10910 283424.160000
   3334   3336     1   0.10910 283424.160000
   3337   3338     1   0.10910 283424.160000
   3337   3339     1   0.10910 283424.160000
   3340   3341     1   0.10969 276646.080000
   3340   3342     1   0.10969 276646.080000
   3343   3344     1   0.10969 276646.080000
   3343   3345     1   0.10969 276646.080000
   3346   3347     1   0.10969 276646.080000
   3346   3348     1   0.10969 276646.080000
   3349   3350     1   0.10969 276646.080000
   3349   3351     1   0.10969 276646.080000
   3352   3353     1   0.10969 276646.080000
   3352   3354     1   0.10969 276646.080000
   3355   3356     1   0.10969 276646.080000
   3355   3357     1   0.10969 276646.080000
   3360   3389     1   0.10304 312293.760000
   3361   3362     1   0.10910 283424.160000
   3361   3363     1   0.10910 283424.160000
   3364   3365     1   0.10910 283424.160000
   3364   3366     1   0.10910 283424.160000
   3367   3368     1   0.10910 283424.160000
   3367   3369     1   0.10910 283424.160000
   3370   3371     1   0.10969 276646.080000
   3370   3372     1   0.10969 276646.080000
   3373   3374     1   0.10969 276646.080000
   3373   3375     1   0.10969 276646.080000
   3376   3377     1   0.10969 276646.080000
   3376   3378     1   0.10969 276646.080000
   3379   3380     1   0.10969 276646.080000
   3379   3381     1   0.10969 276646.080000
   3382   3383     1   0.10969 276646.080000
   3382   3384     1   0.10969 276646.080000
   3385   3386     1   0.10969 276646.080000
   3385   3387     1   0.10969 276646.080000
   3390   3419     1   0.10304 312293.760000
   3391   3392     1   0.10910 283424.160000
   3391   3393     1   0.10910 283424.160000
   3394   3395     1   0.10910 283424.160000
   3394   3396     1   0.10910 283424.160000
   3397   3398     1   0.10910 283424.160000
   3397   3399     1   0.10910 283424.160000
   3400   3401     1   0.10969 276646.080000
   3400   3402     1   0.10969 276646.080000
   3403   3404     1   0.10969 276646.080000
   3403   3405     1   0.10969 276646.080000
   3406   3407     1   0.10969 276646.080000
   3406   3408     1   0.10969 276646.080000
   3409   3410     1   0.10969 276646.080000
   3409   3411     1   0.10969 276646.080000
   3412   3413     1   0.10969 276646.080000
   3412   3414     1   0.10969 276646.080000
   3415   3416     1   0.10969 276646.080000
   3415   3417     1   0.10969 276646.080000
   3420   3449     1   0.10304 312293.760000
   3421   3422     1   0.10910 283424.160000
   3421   3423     1   0.10910 283424.160000
   3424   3425     1   0.10910 283424.160000
   3424   3426     1   0.10910 283424.160000
   3427   3428     1   0.10910 283424.160000
   3427   3429     1   0.10910 283424.160000
   3430   3431     1   0.10969 276646.080000
   3430   3432     1   0.10969 276646.080000
   3433   3434     1   0.10969 276646.080000
   3433   3435     1   0.10969 276646.080000
   3436   3437     1   0.10969 276646.080000
   3436   3438     1   0.10969 276646.080000
   3439   3440     1   0.10969 276646.080000
   3439   3441     1   0.10969 276646.080000
   3442   3443     1   0.10969 276646.080000
   3442   3444     1   0.10969 276646.080000
   3445   3446     1   0.10969 276646.080000
   3445   3447     1   0.10969 276646.080000
   3450   3479     1   0.10304 312293.760000
   3451   3452     1   0.10910 283424.160000
   3451   3453     1   0.10910 283424.160000
   3454   3455     1   0.10910 283424.160000
   3454   3456     1   0.10910 283424.160000
   3457   3458     1   0.10910 283424.160000
   3457   3459     1   0.10910 283424.160000
   3460   3461     1   0.10969 276646.080000
   3460   3462     1   0.10969 276646.080000
   3463   3464     1   0.10969 276646.080000
   3463   3465     1   0.10969 276646.080000
   3466   3467     1   0.10969 276646.080000
   3466   3468     1   0.10969 276646.080000
   3469   3470     1   0.10969 276646.080000
   3469   3471     1   0.10969 276646.080000
   3472   3473     1   0.10969 276646.080000
   3472   3474     1   0.10969 276646.080000
   3475   3476     1   0.10969 276646.080000
   3475   3477     1   0.10969 276646.080000
   3480   3509     1   0.10304 312293.760000
   3481   3482     1   0.10910 283424.160000
   3481   3483     1   0.10910 283424.160000
   3484   3485     1   0.10910 283424.160000
   3484   3486     1   0.10910 283424.160000
   3487   3488     1   0.10910 283424.160000
   3487   3489     1   0.10910 283424.160000
   3490   3491     1   0.10969 276646.080000
   3490   3492     1   0.10969 276646.080000
   3493   3494     1   0.10969 276646.080000
   3493   3495     1   0.10969 276646.080000
   3496   3497     1   0.10969 276646.080000
   3496   3498     1   0.10969 276646.080000
   3499   3500     1   0.10969 276646.080000
   3499   3501     1   0.10969 276646.080000
   3502   3503     1   0.10969 276646.080000
   3502   3504     1   0.10969 276646.080000
   3505   3506     1   0.10969 276646.080000
   3505   3507     1   0.10969 276646.080000
   3510   3539     1   0.10304 312293.760000
   3511   3512     1   0.10910 283424.160000
   3511   3513     1   0.10910 283424.160000
   3514   3515     1   0.10910 283424.160000
   3514   3516     1   0.10910 283424.160000
   3517   3518     1   0.10910 283424.160000
   3517   3519     1   0.10910 283424.160000
   3520   3521     1   0.10969 276646.080000
   3520   3522     1   0.10969 276646.080000
   3523   3524     1   0.10969 276646.080000
   3523   3525     1   0.10969 276646.080000
   3526   3527     1   0.10969 276646.080000
   3526   3528     1   0.10969 276646.080000
   3529   3530     1   0.10969 276646.080000
   3529   3531     1   0.10969 276646.080000
   3532   3533     1   0.10969 276646.080000
   3532   3534     1   0.10969 276646.080000
   3535   3536     1   0.10969 276646.080000
   3535   3537     1   0.10969 276646.080000
   3540   3569     1   0.10304 312293.760000
   3541   3542     1   0.10910 283424.160000
   3541   3543     1   0.10910 283424.160000
   3544   3545     1   0.10910 283424.160000
   3544   3546     1   0.10910 283424.160000
   3547   3548     1   0.10910 283424.160000
   3547   3549     1   0.10910 283424.160000
   3550   3551     1   0.10969 276646.080000
   3550   3552     1   0.10969 276646.080000
   3553   3554     1   0.10969 276646.080000
   3553   3555     1   0.10969 276646.080000
   3556   3557     1   0.10969 276646.080000
   3556   3558     1   0.10969 276646.080000
   3559   3560     1   0.10969 276646.080000
   3559   3561     1   0.10969 276646.080000
   3562   3563     1   0.10969 276646.080000
   3562   3564     1   0.10969 276646.080000
   3565   3566     1   0.10969 276646.080000
   3565   3567     1   0.10969 276646.080000
   3570   3599     1   0.10304 312293.760000
   3571   3572     1   0.10910 283424.160000
   3571   3573     1   0.10910 283424.160000
   3574   3575     1   0.10910 283424.160000
   3574   3576     1   0.10910 283424.160000
   3577   3578     1   0.10910 283424.160000
   3577   3579     1   0.10910 283424.160000
   3580   3581     1   0.10969 276646.080000
   3580   3582     1   0.10969 276646.080000
   3583   3584     1   0.10969 276646.080000
   3583   3585     1   0.10969 276646.080000
   3586   3587     1   0.10969 276646.080000
   3586   3588     1   0.10969 276646.080000
   3589   3590     1   0.10969 276646.080000
   3589   3591     1   0.10969 276646.080000
   3592   3593     1   0.10969 276646.080000
   3592   3594     1   0.10969 276646.080000
   3595   3596     1   0.10969 276646.080000
   3595   3597     1   0.10969 276646.080000
   3600   3629     1   0.10304 312293.760000
   3601   3602     1   0.10910 283424.160000
   3601   3603     1   0.10910 283424.160000
   3604   3605     1   0.10910 283424.160000
   3604   3606     1   0.10910 283424.160000
   3607   3608     1   0.10910 283424.160000
   3607   3609     1   0.10910 283424.160000
   3610   3611     1   0.10969 276646.080000
   3610   3612     1   0.10969 276646.080000
   3613   3614     1   0.10969 276646.080000
   3613   3615     1   0.10969 276646.080000
   3616   3617     1   0.10969 276646.080000
   3616   3618     1   0.10969 276646.080000
   3619   3620     1   0.10969 276646.080000
   3619   3621     1   0.10969 276646.080000
   3622   3623     1   0.10969 276646.080000
   3622   3624     1   0.10969 276646.080000
   3625   3626     1   0.10969 276646.080000
   3625   3627     1   0.10969 276646.080000
   3630   3659     1   0.10304 312293.760000
   3631   3632     1   0.10910 283424.160000
   3631   3633     1   0.10910 283424.160000
   3634   3635     1   0.10910 283424.160000
   3634   3636     1   0.10910 283424.160000
   3637   3638     1   0.10910 283424.160000
   3637   3639     1   0.10910 283424.160000
   3640   3641     1   0.10969 276646.080000
   3640   3642     1   0.10969 276646.080000
   3643   3644     1   0.10969 276646.080000
   3643   3645     1   0.10969 276646.080000
   3646   3647     1   0.10969 276646.080000
   3646   3648     1   0.10969 276646.080000
   3649   3650     1   0.10969 276646.080000
   3649   3651     1   0.10969 276646.080000
   3652   3653     1   0.10969 276646.080000
   3652   3654     1   0.10969 276646.080000
   3655   3656     1   0.10969 276646.080000
   3655   3657     1   0.10969 276646.080000
   3660   3689     1   0.10304 312293.760000
   3661   3662     1   0.10910 283424.160000
   3661   3663     1   0.10910 283424.160000
   3664   3665     1   0.10910 283424.160000
   3664   3666     1   0.10910 283424.160000
   3667   3668     1   0.10910 283424.160000
   3667   3669     1   0.10910 283424.160000
   3670   3671     1   0.10969 276646.080000
   3670   3672     1   0.10969 276646.080000
   3673   3674     1   0.10969 276646.080000
   3673   3675     1   0.10969 276646.080000
   3676   3677     1   0.10969 276646.080000
   3676   3678     1   0.10969 276646.080000
   3679   3680     1   0.10969 276646.080000
   3679   3681     1   0.10969 276646.080000
   3682   3683     1   0.10969 276646.080000
   3682   3684     1   0.10969 276646.080000
   3685   3686     1   0.10969 276646.080000
   3685   3687     1   0.10969 276646.080000
   3690   3719     1   0.10304 312293.760000
   3691   3692     1   0.10910 283424.160000
   3691   3693     1   0.10910 283424.160000
   3694   3695     1   0.10910 283424.160000
   3694   3696     1   0.10910 283424.160000
   3697   3698     1   0.10910 283424.160000
   3697   3699     1   0.10910 283424.160000
   3700   3701     1   0.10969 276646.080000
   3700   3702     1   0.10969 276646.080000
   3703   3704     1   0.10969 276646.080000
   3703   3705     1   0.10969 276646.080000
   3706   3707     1   0.10969 276646.080000
   3706   3708     1   0.10969 276646.080000
   3709   3710     1   0.10969 276646.080000
   3709   3711     1   0.10969 276646.080000
   3712   3713     1   0.10969 276646.080000
   3712   3714     1   0.10969 276646.080000
   3715   3716     1   0.10969 276646.080000
   3715   3717     1   0.10969 276646.080000
   3720   3749     1   0.10304 312293.760000
   3721   3722     1   0.10910 283424.160000
   3721   3723     1   0.10910 283424.160000
   3724   3725     1   0.10910 283424.160000
   3724   3726     1   0.10910 283424.160000
   3727   3728     1   0.10910 283424.160000
   3727   3729     1   0.10910 283424.160000
   3730   3731     1   0.10969 276646.080000
   3730   3732     1   0.10969 276646.080000
   3733   3734     1   0.10969 276646.080000
   3733   3735     1   0.10969 276646.080000
   3736   3737     1   0.10969 276646.080000
   3736   3738     1   0.10969 276646.080000
   3739   3740     1   0.10969 276646.080000
   3739   3741     1   0.10969 276646.080000
   3742   3743     1   0.10969 276646.080000
   3742   3744     1   0.10969 276646.080000
   3745   3746     1   0.10969 276646.080000
   3745   3747     1   0.10969 276646.080000
   3750   3779     1   0.10304 312293.760000
   3751   3752     1   0.10910 283424.160000
   3751   3753     1   0.10910 283424.160000
   3754   3755     1   0.10910 283424.160000
   3754   3756     1   0.10910 283424.160000
   3757   3758     1   0.10910 283424.160000
   3757   3759     1   0.10910 283424.160000
   3760   3761     1   0.10969 276646.080000
   3760   3762     1   0.10969 276646.080000
   3763   3764     1   0.10969 276646.080000
   3763   3765     1   0.10969 276646.080000
   3766   3767     1   0.10969 276646.080000
   3766   3768     1   0.10969 276646.080000
   3769   3770     1   0.10969 276646.080000
   3769   3771     1   0.10969 276646.080000
   3772   3773     1   0.10969 276646.080000
   3772   3774     1   0.10969 276646.080000
   3775   3776     1   0.10969 276646.080000
   3775   3777     1   0.10969 276646.080000
   3780   3809     1   0.10304 312293.760000
   3781   3782     1   0.10910 283424.160000
   3781   3783     1   0.10910 283424.160000
   3784   3785     1   0.10910 283424.160000
   3784   3786     1   0.10910 283424.160000
   3787   3788     1   0.10910 283424.160000
   3787   3789     1   0.10910 283424.160000
   3790   3791     1   0.10969 276646.080000
   3790   3792     1   0.10969 276646.080000
   3793   3794     1   0.10969 276646.080000
   3793   3795     1   0.10969 276646.080000
   3796   3797     1   0.10969 276646.080000
   3796   3798     1   0.10969 276646.080000
   3799   3800     1   0.10969 276646.080000
   3799   3801     1   0.10969 276646.080000
   3802   3803     1   0.10969 276646.080000
   3802   3804     1   0.10969 276646.080000
   3805   3806     1   0.10969 276646.080000
   3805   3807     1   0.10969 276646.080000
   3810   3839     1   0.10304 312293.760000
   3811   3812     1   0.10910 283424.160000
   3811   3813     1   0.10910 283424.160000
   3814   3815     1   0.10910 283424.160000
   3814   3816     1   0.10910 283424.160000
   3817   3818     1   0.10910 283424.160000
   3817   3819     1   0.10910 283424.160000
   3820   3821     1   0.10969 276646.080000
   3820   3822     1   0.10969 276646.080000
   3823   3824     1   0.10969 276646.080000
   3823   3825     1   0.10969 276646.080000
   3826   3827     1   0.10969 276646.080000
   3826   3828     1   0.10969 276646.080000
   3829   3830     1   0.10969 276646.080000
   3829   3831     1   0.10969 276646.080000
   3832   3833     1   0.10969 276646.080000
   3832   3834     1   0.10969 276646.080000
   3835   3836     1   0.10969 276646.080000
   3835   3837     1   0.10969 276646.080000
   3840   3869     1   0.10304 312293.760000
   3841   3842     1   0.10910 283424.160000
   3841   3843     1   0.10910 283424.160000
   3844   3845     1   0.10910 283424.160000
   3844   3846     1   0.10910 283424.160000
   3847   3848     1   0.10910 283424.160000
   3847   3849     1   0.10910 283424.160000
   3850   3851     1   0.10969 276646.080000
   3850   3852     1   0.10969 276646.080000
   3853   3854     1   0.10969 276646.080000
   3853   3855     1   0.10969 276646.080000
   3856   3857     1   0.10969 276646.080000
   3856   3858     1   0.10969 276646.080000
   3859   3860     1   0.10969 276646.080000
   3859   3861     1   0.10969 276646.080000
   3862   3863     1   0.10969 276646.080000
   3862   3864     1   0.10969 276646.080000
   3865   3866     1   0.10969 276646.080000
   3865   3867     1   0.10969 276646.080000
   3870   3899     1   0.10304 312293.760000
   3871   3872     1   0.10910 283424.160000
   3871   3873     1   0.10910 283424.160000
   3874   3875     1   0.10910 283424.160000
   3874   3876     1   0.10910 283424.160000
   3877   3878     1   0.10910 283424.160000
   3877   3879     1   0.10910 283424.160000
   3880   3881     1   0.10969 276646.080000
   3880   3882     1   0.10969 276646.080000
   3883   3884     1   0.10969 276646.080000
   3883   3885     1   0.10969 276646.080000
   3886   3887     1   0.10969 276646.080000
   3886   3888     1   0.10969 276646.080000
   3889   3890     1   0.10969 276646.080000
   3889   3891     1   0.10969 276646.080000
   3892   3893     1   0.10969 276646.080000
   3892   3894     1   0.10969 276646.080000
   3895   3896     1   0.10969 276646.080000
   3895   3897     1   0.10969 276646.080000
   3900   3929     1   0.10304 312293.760000
   3901   3902     1   0.10910 283424.160000
   3901   3903     1   0.10910 283424.160000
   3904   3905     1   0.10910 283424.160000
   3904   3906     1   0.10910 283424.160000
   3907   3908     1   0.10910 283424.160000
   3907   3909     1   0.10910 283424.160000
   3910   3911     1   0.10969 276646.080000
   3910   3912     1   0.10969 276646.080000
   3913   3914     1   0.10969 276646.080000
   3913   3915     1   0.10969 276646.080000
   3916   3917     1   0.10969 276646.080000
   3916   3918     1   0.10969 276646.080000
   3919   3920     1   0.10969 276646.080000
   3919   3921     1   0.10969 276646.080000
   3922   3923     1   0.10969 276646.080000
   3922   3924     1   0.10969 276646.080000
   3925   3926     1   0.10969 276646.080000
   3925   3927     1   0.10969 276646.080000
   3930   3959     1   0.10304 312293.760000
   3931   3932     1   0.10910 283424.160000
   3931   3933     1   0.10910 283424.160000
   3934   3935     1   0.10910 283424.160000
   3934   3936     1   0.10910 283424.160000
   3937   3938     1   0.10910 283424.160000
   3937   3939     1   0.10910 283424.160000
   3940   3941     1   0.10969 276646.080000
   3940   3942     1   0.10969 276646.080000
   3943   3944     1   0.10969 276646.080000
   3943   3945     1   0.10969 276646.080000
   3946   3947     1   0.10969 276646.080000
   3946   3948     1   0.10969 276646.080000
   3949   3950     1   0.10969 276646.080000
   3949   3951     1   0.10969 276646.080000
   3952   3953     1   0.10969 276646.080000
   3952   3954     1   0.10969 276646.080000
   3955   3956     1   0.10969 276646.080000
   3955   3957     1   0.10969 276646.080000
   3960   3989     1   0.10304 312293.760000
   3961   3962     1   0.10910 283424.160000
   3961   3963     1   0.10910 283424.160000
   3964   3965     1   0.10910 283424.160000
   3964   3966     1   0.10910 283424.160000
   3967   3968     1   0.10910 283424.160000
   3967   3969     1   0.10910 283424.160000
   3970   3971     1   0.10969 276646.080000
   3970   3972     1   0.10969 276646.080000
   3973   3974     1   0.10969 276646.080000
   3973   3975     1   0.10969 276646.080000
   3976   3977     1   0.10969 276646.080000
   3976   3978     1   0.10969 276646.080000
   3979   3980     1   0.10969 276646.080000
   3979   3981     1   0.10969 276646.080000
   3982   3983     1   0.10969 276646.080000
   3982   3984     1   0.10969 276646.080000
   3985   3986     1   0.10969 276646.080000
   3985   3987     1   0.10969 276646.080000
   3990   4019     1   0.10304 312293.760000
   3991   3992     1   0.10910 283424.160000
   3991   3993     1   0.10910 283424.160000
   3994   3995     1   0.10910 283424.160000
   3994   3996     1   0.10910 283424.160000
   3997   3998     1   0.10910 283424.160000
   3997   3999     1   0.10910 283424.160000
   4000   4001     1   0.10969 276646.080000
   4000   4002     1   0.10969 276646.080000
   4003   4004     1   0.10969 276646.080000
   4003   4005     1   0.10969 276646.080000
   4006   4007     1   0.10969 276646.080000
   4006   4008     1   0.10969 276646.080000
   4009   4010     1   0.10969 276646.080000
   4009   4011     1   0.10969 276646.080000
   4012   4013     1   0.10969 276646.080000
   4012   4014     1   0.10969 276646.080000
   4015   4016     1   0.10969 276646.080000
   4015   4017     1   0.10969 276646.080000
   4020   4049     1   0.10304 312293.760000
   4021   4022     1   0.10910 283424.160000
   4021   4023     1   0.10910 283424.160000
   4024   4025     1   0.10910 283424.160000
   4024   4026     1   0.10910 283424.160000
   4027   4028     1   0.10910 283424.160000
   4027   4029     1   0.10910 283424.160000
   4030   4031     1   0.10969 276646.080000
   4030   4032     1   0.10969 276646.080000
   4033   4034     1   0.10969 276646.080000
   4033   4035     1   0.10969 276646.080000
   4036   4037     1   0.10969 276646.080000
   4036   4038     1   0.10969 276646.080000
   4039   4040     1   0.10969 276646.080000
   4039   4041     1   0.10969 276646.080000
   4042   4043     1   0.10969 276646.080000
   4042   4044     1   0.10969 276646.080000
   4045   4046     1   0.10969 276646.080000
   4045   4047     1   0.10969 276646.080000
   4050   4079     1   0.10304 312293.760000
   4051   4052     1   0.10910 283424.160000
   4051   4053     1   0.10910 283424.160000
   4054   4055     1   0.10910 283424.160000
   4054   4056     1   0.10910 283424.160000
   4057   4058     1   0.10910 283424.160000
   4057   4059     1   0.10910 283424.160000
   4060   4061     1   0.10969 276646.080000
   4060   4062     1   0.10969 276646.080000
   4063   4064     1   0.10969 276646.080000
   4063   4065     1   0.10969 276646.080000
   4066   4067     1   0.10969 276646.080000
   4066   4068     1   0.10969 276646.080000
   4069   4070     1   0.10969 276646.080000
   4069   4071     1   0.10969 276646.080000
   4072   4073     1   0.10969 276646.080000
   4072   4074     1   0.10969 276646.080000
   4075   4076     1   0.10969 276646.080000
   4075   4077     1   0.10969 276646.080000
   4080   4109     1   0.10304 312293.760000
   4081   4082     1   0.10910 283424.160000
   4081   4083     1   0.10910 283424.160000
   4084   4085     1   0.10910 283424.160000
   4084   4086     1   0.10910 283424.160000
   4087   4088     1   0.10910 283424.160000
   4087   4089     1   0.10910 283424.160000
   4090   4091     1   0.10969 276646.080000
   4090   4092     1   0.10969 276646.080000
   4093   4094     1   0.10969 276646.080000
   4093   4095     1   0.10969 276646.080000
   4096   4097     1   0.10969 276646.080000
   4096   4098     1   0.10969 276646.080000
   4099   4100     1   0.10969 276646.080000
   4099   4101     1   0.10969 276646.080000
   4102   4103     1   0.10969 276646.080000
   4102   4104     1   0.10969 276646.080000
   4105   4106     1   0.10969 276646.080000
   4105   4107     1   0.10969 276646.080000
   4110   4139     1   0.10304 312293.760000
   4111   4112     1   0.10910 283424.160000
   4111   4113     1   0.10910 283424.160000
   4114   4115     1   0.10910 283424.160000
   4114   4116     1   0.10910 283424.160000
   4117   4118     1   0.10910 283424.160000
   4117   4119     1   0.10910 283424.160000
   4120   4121     1   0.10969 276646.080000
   4120   4122     1   0.10969 276646.080000
   4123   4124     1   0.10969 276646.080000
   4123   4125     1   0.10969 276646.080000
   4126   4127     1   0.10969 276646.080000
   4126   4128     1   0.10969 276646.080000
   4129   4130     1   0.10969 276646.080000
   4129   4131     1   0.10969 276646.080000
   4132   4133     1   0.10969 276646.080000
   4132   4134     1   0.10969 276646.080000
   4135   4136     1   0.10969 276646.080000
   4135   4137     1   0.10969 276646.080000
   4140   4169     1   0.10304 312293.760000
   4141   4142     1   0.10910 283424.160000
   4141   4143     1   0.10910 283424.160000
   4144   4145     1   0.10910 283424.160000
   4144   4146     1   0.10910 283424.160000
   4147   4148     1   0.10910 283424.160000
   4147   4149     1   0.10910 283424.160000
   4150   4151     1   0.10969 276646.080000
   4150   4152     1   0.10969 276646.080000
   4153   4154     1   0.10969 276646.080000
   4153   4155     1   0.10969 276646.080000
   4156   4157     1   0.10969 276646.080000
   4156   4158     1   0.10969 276646.080000
   4159   4160     1   0.10969 276646.080000
   4159   4161     1   0.10969 276646.080000
   4162   4163     1   0.10969 276646.080000
   4162   4164     1   0.10969 276646.080000
   4165   4166     1   0.10969 276646.080000
   4165   4167     1   0.10969 276646.080000
   4170   4199     1   0.10304 312293.760000
   4171   4172     1   0.10910 283424.160000
   4171   4173     1   0.10910 283424.160000
   4174   4175     1   0.10910 283424.160000
   4174   4176     1   0.10910 283424.160000
   4177   4178     1   0.10910 283424.160000
   4177   4179     1   0.10910 283424.160000
   4180   4181     1   0.10969 276646.080000
   4180   4182     1   0.10969 276646.080000
   4183   4184     1   0.10969 276646.080000
   4183   4185     1   0.10969 276646.080000
   4186   4187     1   0.10969 276646.080000
   4186   4188     1   0.10969 276646.080000
   4189   4190     1   0.10969 276646.080000
   4189   4191     1   0.10969 276646.080000
   4192   4193     1   0.10969 276646.080000
   4192   4194     1   0.10969 276646.080000
   4195   4196     1   0.10969 276646.080000
   4195   4197     1   0.10969 276646.080000
   4200   4229     1   0.10304 312293.760000
   4201   4202     1   0.10910 283424.160000
   4201   4203     1   0.10910 283424.160000
   4204   4205     1   0.10910 283424.160000
   4204   4206     1   0.10910 283424.160000
   4207   4208     1   0.10910 283424.160000
   4207   4209     1   0.10910 283424.160000
   4210   4211     1   0.10969 276646.080000
   4210   4212     1   0.10969 276646.080000
   4213   4214     1   0.10969 276646.080000
   4213   4215     1   0.10969 276646.080000
   4216   4217     1   0.10969 276646.080000
   4216   4218     1   0.10969 276646.080000
   4219   4220     1   0.10969 276646.080000
   4219   4221     1   0.10969 276646.080000
   4222   4223     1   0.10969 276646.080000
   4222   4224     1   0.10969 276646.080000
   4225   4226     1   0.10969 276646.080000
   4225   4227     1   0.10969 276646.080000
   4230   4259     1   0.10304 312293.760000
   4231   4232     1   0.10910 283424.160000
   4231   4233     1   0.10910 283424.160000
   4234   4235     1   0.10910 283424.160000
   4234   4236     1   0.10910 283424.160000
   4237   4238     1   0.10910 283424.160000
   4237   4239     1   0.10910 283424.160000
   4240   4241     1   0.10969 276646.080000
   4240   4242     1   0.10969 276646.080000
   4243   4244     1   0.10969 276646.080000
   4243   4245     1   0.10969 276646.080000
   4246   4247     1   0.10969 276646.080000
   4246   4248     1   0.10969 276646.080000
   4249   4250     1   0.10969 276646.080000
   4249   4251     1   0.10969 276646.080000
   4252   4253     1   0.10969 276646.080000
   4252   4254     1   0.10969 276646.080000
   4255   4256     1   0.10969 276646.080000
   4255   4257     1   0.10969 276646.080000
   4260   4289     1   0.10304 312293.760000
   4261   4262     1   0.10910 283424.160000
   4261   4263     1   0.10910 283424.160000
   4264   4265     1   0.10910 283424.160000
   4264   4266     1   0.10910 283424.160000
   4267   4268     1   0.10910 283424.160000
   4267   4269     1   0.10910 283424.160000
   4270   4271     1   0.10969 276646.080000
   4270   4272     1   0.10969 276646.080000
   4273   4274     1   0.10969 276646.080000
   4273   4275     1   0.10969 276646.080000
   4276   4277     1   0.10969 276646.080000
   4276   4278     1   0.10969 276646.080000
   4279   4280     1   0.10969 276646.080000
   4279   4281     1   0.10969 276646.080000
   4282   4283     1   0.10969 276646.080000
   4282   4284     1   0.10969 276646.080000
   4285   4286     1   0.10969 276646.080000
   4285   4287     1   0.10969 276646.080000
   4290   4319     1   0.10304 312293.760000
   4291   4292     1   0.10910 283424.160000
   4291   4293     1   0.10910 283424.160000
   4294   4295     1   0.10910 283424.160000
   4294   4296     1   0.10910 283424.160000
   4297   4298     1   0.10910 283424.160000
   4297   4299     1   0.10910 283424.160000
   4300   4301     1   0.10969 276646.080000
   4300   4302     1   0.10969 276646.080000
   4303   4304     1   0.10969 276646.080000
   4303   4305     1   0.10969 276646.080000
   4306   4307     1   0.10969 276646.080000
   4306   4308     1   0.10969 276646.080000
   4309   4310     1   0.10969 276646.080000
   4309   4311     1   0.10969 276646.080000
   4312   4313     1   0.10969 276646.080000
   4312   4314     1   0.10969 276646.080000
   4315   4316     1   0.10969 276646.080000
   4315   4317     1   0.10969 276646.080000
   4320   4349     1   0.10304 312293.760000
   4321   4322     1   0.10910 283424.160000
   4321   4323     1   0.10910 283424.160000
   4324   4325     1   0.10910 283424.160000
   4324   4326     1   0.10910 283424.160000
   4327   4328     1   0.10910 283424.160000
   4327   4329     1   0.10910 283424.160000
   4330   4331     1   0.10969 276646.080000
   4330   4332     1   0.10969 276646.080000
   4333   4334     1   0.10969 276646.080000
   4333   4335     1   0.10969 276646.080000
   4336   4337     1   0.10969 276646.080000
   4336   4338     1   0.10969 276646.080000
   4339   4340     1   0.10969 276646.080000
   4339   4341     1   0.10969 276646.080000
   4342   4343     1   0.10969 276646.080000
   4342   4344     1   0.10969 276646.080000
   4345   4346     1   0.10969 276646.080000
   4345   4347     1   0.10969 276646.080000
   4350   4379     1   0.10304 312293.760000
   4351   4352     1   0.10910 283424.160000
   4351   4353     1   0.10910 283424.160000
   4354   4355     1   0.10910 283424.160000
   4354   4356     1   0.10910 283424.160000
   4357   4358     1   0.10910 283424.160000
   4357   4359     1   0.10910 283424.160000
   4360   4361     1   0.10969 276646.080000
   4360   4362     1   0.10969 276646.080000
   4363   4364     1   0.10969 276646.080000
   4363   4365     1   0.10969 276646.080000
   4366   4367     1   0.10969 276646.080000
   4366   4368     1   0.10969 276646.080000
   4369   4370     1   0.10969 276646.080000
   4369   4371     1   0.10969 276646.080000
   4372   4373     1   0.10969 276646.080000
   4372   4374     1   0.10969 276646.080000
   4375   4376     1   0.10969 276646.080000
   4375   4377     1   0.10969 276646.080000
   4380   4409     1   0.10304 312293.760000
   4381   4382     1   0.10910 283424.160000
   4381   4383     1   0.10910 283424.160000
   4384   4385     1   0.10910 283424.160000
   4384   4386     1   0.10910 283424.160000
   4387   4388     1   0.10910 283424.160000
   4387   4389     1   0.10910 283424.160000
   4390   4391     1   0.10969 276646.080000
   4390   4392     1   0.10969 276646.080000
   4393   4394     1   0.10969 276646.080000
   4393   4395     1   0.10969 276646.080000
   4396   4397     1   0.10969 276646.080000
   4396   4398     1   0.10969 276646.080000
   4399   4400     1   0.10969 276646.080000
   4399   4401     1   0.10969 276646.080000
   4402   4403     1   0.10969 276646.080000
   4402   4404     1   0.10969 276646.080000
   4405   4406     1   0.10969 276646.080000
   4405   4407     1   0.10969 276646.080000
   4410   4439     1   0.10304 312293.760000
   4411   4412     1   0.10910 283424.160000
   4411   4413     1   0.10910 283424.160000
   4414   4415     1   0.10910 283424.160000
   4414   4416     1   0.10910 283424.160000
   4417   4418     1   0.10910 283424.160000
   4417   4419     1   0.10910 283424.160000
   4420   4421     1   0.10969 276646.080000
   4420   4422     1   0.10969 276646.080000
   4423   4424     1   0.10969 276646.080000
   4423   4425     1   0.10969 276646.080000
   4426   4427     1   0.10969 276646.080000
   4426   4428     1   0.10969 276646.080000
   4429   4430     1   0.10969 276646.080000
   4429   4431     1   0.10969 276646.080000
   4432   4433     1   0.10969 276646.080000
   4432   4434     1   0.10969 276646.080000
   4435   4436     1   0.10969 276646.080000
   4435   4437     1   0.10969 276646.080000
   4440   4469     1   0.10304 312293.760000
   4441   4442     1   0.10910 283424.160000
   4441   4443     1   0.10910 283424.160000
   4444   4445     1   0.10910 283424.160000
   4444   4446     1   0.10910 283424.160000
   4447   4448     1   0.10910 283424.160000
   4447   4449     1   0.10910 283424.160000
   4450   4451     1   0.10969 276646.080000
   4450   4452     1   0.10969 276646.080000
   4453   4454     1   0.10969 276646.080000
   4453   4455     1   0.10969 276646.080000
   4456   4457     1   0.10969 276646.080000
   4456   4458     1   0.10969 276646.080000
   4459   4460     1   0.10969 276646.080000
   4459   4461     1   0.10969 276646.080000
   4462   4463     1   0.10969 276646.080000
   4462   4464     1   0.10969 276646.080000
   4465   4466     1   0.10969 276646.080000
   4465   4467     1   0.10969 276646.080000
   4470   4499     1   0.10304 312293.760000
   4471   4472     1   0.10910 283424.160000
   4471   4473     1   0.10910 283424.160000
   4474   4475     1   0.10910 283424.160000
   4474   4476     1   0.10910 283424.160000
   4477   4478     1   0.10910 283424.160000
   4477   4479     1   0.10910 283424.160000
   4480   4481     1   0.10969 276646.080000
   4480   4482     1   0.10969 276646.080000
   4483   4484     1   0.10969 276646.080000
   4483   4485     1   0.10969 276646.080000
   4486   4487     1   0.10969 276646.080000
   4486   4488     1   0.10969 276646.080000
   4489   4490     1   0.10969 276646.080000
   4489   4491     1   0.10969 276646.080000
   4492   4493     1   0.10969 276646.080000
   4492   4494     1   0.10969 276646.080000
   4495   4496     1   0.10969 276646.080000
   4495   4497     1   0.10969 276646.080000
   4500   4529     1   0.10304 312293.760000
   4501   4502     1   0.10910 283424.160000
   4501   4503     1   0.10910 283424.160000
   4504   4505     1   0.10910 283424.160000
   4504   4506     1   0.10910 283424.160000
   4507   4508     1   0.10910 283424.160000
   4507   4509     1   0.10910 283424.160000
   4510   4511     1   0.10969 276646.080000
   4510   4512     1   0.10969 276646.080000
   4513   4514     1   0.10969 276646.080000
   4513   4515     1   0.10969 276646.080000
   4516   4517     1   0.10969 276646.080000
   4516   4518     1   0.10969 276646.080000
   4519   4520     1   0.10969 276646.080000
   4519   4521     1   0.10969 276646.080000
   4522   4523     1   0.10969 276646.080000
   4522   4524     1   0.10969 276646.080000
   4525   4526     1   0.10969 276646.080000
   4525   4527     1   0.10969 276646.080000
   4530   4559     1   0.10304 312293.760000
   4531   4532     1   0.10910 283424.160000
   4531   4533     1   0.10910 283424.160000
   4534   4535     1   0.10910 283424.160000
   4534   4536     1   0.10910 283424.160000
   4537   4538     1   0.10910 283424.160000
   4537   4539     1   0.10910 283424.160000
   4540   4541     1   0.10969 276646.080000
   4540   4542     1   0.10969 276646.080000
   4543   4544     1   0.10969 276646.080000
   4543   4545     1   0.10969 276646.080000
   4546   4547     1   0.10969 276646.080000
   4546   4548     1   0.10969 276646.080000
   4549   4550     1   0.10969 276646.080000
   4549   4551     1   0.10969 276646.080000
   4552   4553     1   0.10969 276646.080000
   4552   4554     1   0.10969 276646.080000
   4555   4556     1   0.10969 276646.080000
   4555   4557     1   0.10969 276646.080000
   4560   4589     1   0.10304 312293.760000
   4561   4562     1   0.10910 283424.160000
   4561   4563     1   0.10910 283424.160000
   4564   4565     1   0.10910 283424.160000
   4564   4566     1   0.10910 283424.160000
   4567   4568     1   0.10910 283424.160000
   4567   4569     1   0.10910 283424.160000
   4570   4571     1   0.10969 276646.080000
   4570   4572     1   0.10969 276646.080000
   4573   4574     1   0.10969 276646.080000
   4573   4575     1   0.10969 276646.080000
   4576   4577     1   0.10969 276646.080000
   4576   4578     1   0.10969 276646.080000
   4579   4580     1   0.10969 276646.080000
   4579   4581     1   0.10969 276646.080000
   4582   4583     1   0.10969 276646.080000
   4582   4584     1   0.10969 276646.080000
   4585   4586     1   0.10969 276646.080000
   4585   4587     1   0.10969 276646.080000
   4590   4619     1   0.10304 312293.760000
   4591   4592     1   0.10910 283424.160000
   4591   4593     1   0.10910 283424.160000
   4594   4595     1   0.10910 283424.160000
   4594   4596     1   0.10910 283424.160000
   4597   4598     1   0.10910 283424.160000
   4597   4599     1   0.10910 283424.160000
   4600   4601     1   0.10969 276646.080000
   4600   4602     1   0.10969 276646.080000
   4603   4604     1   0.10969 276646.080000
   4603   4605     1   0.10969 276646.080000
   4606   4607     1   0.10969 276646.080000
   4606   4608     1   0.10969 276646.080000
   4609   4610     1   0.10969 276646.080000
   4609   4611     1   0.10969 276646.080000
   4612   4613     1   0.10969 276646.080000
   4612   4614     1   0.10969 276646.080000
   4615   4616     1   0.10969 276646.080000
   4615   4617     1   0.10969 276646.080000
   4620   4649     1   0.10304 312293.760000
   4621   4622     1   0.10910 283424.160000
   4621   4623     1   0.10910 283424.160000
   4624   4625     1   0.10910 283424.160000
   4624   4626     1   0.10910 283424.160000
   4627   4628     1   0.10910 283424.160000
   4627   4629     1   0.10910 283424.160000
   4630   4631     1   0.10969 276646.080000
   4630   4632     1   0.10969 276646.080000
   4633   4634     1   0.10969 276646.080000
   4633   4635     1   0.10969 276646.080000
   4636   4637     1   0.10969 276646.080000
   4636   4638     1   0.10969 276646.080000
   4639   4640     1   0.10969 276646.080000
   4639   4641     1   0.10969 276646.080000
   4642   4643     1   0.10969 276646.080000
   4642   4644     1   0.10969 276646.080000
   4645   4646     1   0.10969 276646.080000
   4645   4647     1   0.10969 276646.080000
   4650   4679     1   0.10304 312293.760000
   4651   4652     1   0.10910 283424.160000
   4651   4653     1   0.10910 283424.160000
   4654   4655     1   0.10910 283424.160000
   4654   4656     1   0.10910 283424.160000
   4657   4658     1   0.10910 283424.160000
   4657   4659     1   0.10910 283424.160000
   4660   4661     1   0.10969 276646.080000
   4660   4662     1   0.10969 276646.080000
   4663   4664     1   0.10969 276646.080000
   4663   4665     1   0.10969 276646.080000
   4666   4667     1   0.10969 276646.080000
   4666   4668     1   0.10969 276646.080000
   4669   4670     1   0.10969 276646.080000
   4669   4671     1   0.10969 276646.080000
   4672   4673     1   0.10969 276646.080000
   4672   4674     1   0.10969 276646.080000
   4675   4676     1   0.10969 276646.080000
   4675   4677     1   0.10969 276646.080000
   4680   4709     1   0.10304 312293.760000
   4681   4682     1   0.10910 283424.160000
   4681   4683     1   0.10910 283424.160000
   4684   4685     1   0.10910 283424.160000
   4684   4686     1   0.10910 283424.160000
   4687   4688     1   0.10910 283424.160000
   4687   4689     1   0.10910 283424.160000
   4690   4691     1   0.10969 276646.080000
   4690   4692     1   0.10969 276646.080000
   4693   4694     1   0.10969 276646.080000
   4693   4695     1   0.10969 276646.080000
   4696   4697     1   0.10969 276646.080000
   4696   4698     1   0.10969 276646.080000
   4699   4700     1   0.10969 276646.080000
   4699   4701     1   0.10969 276646.080000
   4702   4703     1   0.10969 276646.080000
   4702   4704     1   0.10969 276646.080000
   4705   4706     1   0.10969 276646.080000
   4705   4707     1   0.10969 276646.080000
   4710   4739     1   0.10304 312293.760000
   4711   4712     1   0.10910 283424.160000
   4711   4713     1   0.10910 283424.160000
   4714   4715     1   0.10910 283424.160000
   4714   4716     1   0.10910 283424.160000
   4717   4718     1   0.10910 283424.160000
   4717   4719     1   0.10910 283424.160000
   4720   4721     1   0.10969 276646.080000
   4720   4722     1   0.10969 276646.080000
   4723   4724     1   0.10969 276646.080000
   4723   4725     1   0.10969 276646.080000
   4726   4727     1   0.10969 276646.080000
   4726   4728     1   0.10969 276646.080000
   4729   4730     1   0.10969 276646.080000
   4729   4731     1   0.10969 276646.080000
   4732   4733     1   0.10969 276646.080000
   4732   4734     1   0.10969 276646.080000
   4735   4736     1   0.10969 276646.080000
   4735   4737     1   0.10969 276646.080000
   4740   4769     1   0.10304 312293.760000
   4741   4742     1   0.10910 283424.160000
   4741   4743     1   0.10910 283424.160000
   4744   4745     1   0.10910 283424.160000
   4744   4746     1   0.10910 283424.160000
   4747   4748     1   0.10910 283424.160000
   4747   4749     1   0.10910 283424.160000
   4750   4751     1   0.10969 276646.080000
   4750   4752     1   0.10969 276646.080000
   4753   4754     1   0.10969 276646.080000
   4753   4755     1   0.10969 276646.080000
   4756   4757     1   0.10969 276646.080000
   4756   4758     1   0.10969 276646.080000
   4759   4760     1   0.10969 276646.080000
   4759   4761     1   0.10969 276646.080000
   4762   4763     1   0.10969 276646.080000
   4762   4764     1   0.10969 276646.080000
   4765   4766     1   0.10969 276646.080000
   4765   4767     1   0.10969 276646.080000
   4770   4799     1   0.10304 312293.760000
   4771   4772     1   0.10910 283424.160000
   4771   4773     1   0.10910 283424.160000
   4774   4775     1   0.10910 283424.160000
   4774   4776     1   0.10910 283424.160000
   4777   4778     1   0.10910 283424.160000
   4777   4779     1   0.10910 283424.160000
   4780   4781     1   0.10969 276646.080000
   4780   4782     1   0.10969 276646.080000
   4783   4784     1   0.10969 276646.080000
   4783   4785     1   0.10969 276646.080000
   4786   4787     1   0.10969 276646.080000
   4786   4788     1   0.10969 276646.080000
   4789   4790     1   0.10969 276646.080000
   4789   4791     1   0.10969 276646.080000
   4792   4793     1   0.10969 276646.080000
   4792   4794     1   0.10969 276646.080000
   4795   4796     1   0.10969 276646.080000
   4795   4797     1   0.10969 276646.080000
   4800   4829     1   0.10304 312293.760000
   4801   4802     1   0.10910 283424.160000
   4801   4803     1   0.10910 283424.160000
   4804   4805     1   0.10910 283424.160000
   4804   4806     1   0.10910 283424.160000
   4807   4808     1   0.10910 283424.160000
   4807   4809     1   0.10910 283424.160000
   4810   4811     1   0.10969 276646.080000
   4810   4812     1   0.10969 276646.080000
   4813   4814     1   0.10969 276646.080000
   4813   4815     1   0.10969 276646.080000
   4816   4817     1   0.10969 276646.080000
   4816   4818     1   0.10969 276646.080000
   4819   4820     1   0.10969 276646.080000
   4819   4821     1   0.10969 276646.080000
   4822   4823     1   0.10969 276646.080000
   4822   4824     1   0.10969 276646.080000
   4825   4826     1   0.10969 276646.080000
   4825   4827     1   0.10969 276646.080000
   4830   4859     1   0.10304 312293.760000
   4831   4832     1   0.10910 283424.160000
   4831   4833     1   0.10910 283424.160000
   4834   4835     1   0.10910 283424.160000
   4834   4836     1   0.10910 283424.160000
   4837   4838     1   0.10910 283424.160000
   4837   4839     1   0.10910 283424.160000
   4840   4841     1   0.10969 276646.080000
   4840   4842     1   0.10969 276646.080000
   4843   4844     1   0.10969 276646.080000
   4843   4845     1   0.10969 276646.080000
   4846   4847     1   0.10969 276646.080000
   4846   4848     1   0.10969 276646.080000
   4849   4850     1   0.10969 276646.080000
   4849   4851     1   0.10969 276646.080000
   4852   4853     1   0.10969 276646.080000
   4852   4854     1   0.10969 276646.080000
   4855   4856     1   0.10969 276646.080000
   4855   4857     1   0.10969 276646.080000
   4860   4889     1   0.10304 312293.760000
   4861   4862     1   0.10910 283424.160000
   4861   4863     1   0.10910 283424.160000
   4864   4865     1   0.10910 283424.160000
   4864   4866     1   0.10910 283424.160000
   4867   4868     1   0.10910 283424.160000
   4867   4869     1   0.10910 283424.160000
   4870   4871     1   0.10969 276646.080000
   4870   4872     1   0.10969 276646.080000
   4873   4874     1   0.10969 276646.080000
   4873   4875     1   0.10969 276646.080000
   4876   4877     1   0.10969 276646.080000
   4876   4878     1   0.10969 276646.080000
   4879   4880     1   0.10969 276646.080000
   4879   4881     1   0.10969 276646.080000
   4882   4883     1   0.10969 276646.080000
   4882   4884     1   0.10969 276646.080000
   4885   4886     1   0.10969 276646.080000
   4885   4887     1   0.10969 276646.080000
   4890   4919     1   0.10304 312293.760000
   4891   4892     1   0.10910 283424.160000
   4891   4893     1   0.10910 283424.160000
   4894   4895     1   0.10910 283424.160000
   4894   4896     1   0.10910 283424.160000
   4897   4898     1   0.10910 283424.160000
   4897   4899     1   0.10910 283424.160000
   4900   4901     1   0.10969 276646.080000
   4900   4902     1   0.10969 276646.080000
   4903   4904     1   0.10969 276646.080000
   4903   4905     1   0.10969 276646.080000
   4906   4907     1   0.10969 276646.080000
   4906   4908     1   0.10969 276646.080000
   4909   4910     1   0.10969 276646.080000
   4909   4911     1   0.10969 276646.080000
   4912   4913     1   0.10969 276646.080000
   4912   4914     1   0.10969 276646.080000
   4915   4916     1   0.10969 276646.080000
   4915   4917     1   0.10969 276646.080000
   4920   4949     1   0.10304 312293.760000
   4921   4922     1   0.10910 283424.160000
   4921   4923     1   0.10910 283424.160000
   4924   4925     1   0.10910 283424.160000
   4924   4926     1   0.10910 283424.160000
   4927   4928     1   0.10910 283424.160000
   4927   4929     1   0.10910 283424.160000
   4930   4931     1   0.10969 276646.080000
   4930   4932     1   0.10969 276646.080000
   4933   4934     1   0.10969 276646.080000
   4933   4935     1   0.10969 276646.080000
   4936   4937     1   0.10969 276646.080000
   4936   4938     1   0.10969 276646.080000
   4939   4940     1   0.10969 276646.080000
   4939   4941     1   0.10969 276646.080000
   4942   4943     1   0.10969 276646.080000
   4942   4944     1   0.10969 276646.080000
   4945   4946     1   0.10969 276646.080000
   4945   4947     1   0.10969 276646.080000
   4950   4979     1   0.10304 312293.760000
   4951   4952     1   0.10910 283424.160000
   4951   4953     1   0.10910 283424.160000
   4954   4955     1   0.10910 283424.160000
   4954   4956     1   0.10910 283424.160000
   4957   4958     1   0.10910 283424.160000
   4957   4959     1   0.10910 283424.160000
   4960   4961     1   0.10969 276646.080000
   4960   4962     1   0.10969 276646.080000
   4963   4964     1   0.10969 276646.080000
   4963   4965     1   0.10969 276646.080000
   4966   4967     1   0.10969 276646.080000
   4966   4968     1   0.10969 276646.080000
   4969   4970     1   0.10969 276646.080000
   4969   4971     1   0.10969 276646.080000
   4972   4973     1   0.10969 276646.080000
   4972   4974     1   0.10969 276646.080000
   4975   4976     1   0.10969 276646.080000
   4975   4977     1   0.10969 276646.080000
   4980   5009     1   0.10304 312293.760000
   4981   4982     1   0.10910 283424.160000
   4981   4983     1   0.10910 283424.160000
   4984   4985     1   0.10910 283424.160000
   4984   4986     1   0.10910 283424.160000
   4987   4988     1   0.10910 283424.160000
   4987   4989     1   0.10910 283424.160000
   4990   4991     1   0.10969 276646.080000
   4990   4992     1   0.10969 276646.080000
   4993   4994     1   0.10969 276646.080000
   4993   4995     1   0.10969 276646.080000
   4996   4997     1   0.10969 276646.080000
   4996   4998     1   0.10969 276646.080000
   4999   5000     1   0.10969 276646.080000
   4999   5001     1   0.10969 276646.080000
   5002   5003     1   0.10969 276646.080000
   5002   5004     1   0.10969 276646.080000
   5005   5006     1   0.10969 276646.080000
   5005   5007     1   0.10969 276646.080000
   5010   5039     1   0.10304 312293.760000
   5011   5012     1   0.10910 283424.160000
   5011   5013     1   0.10910 283424.160000
   5014   5015     1   0.10910 283424.160000
   5014   5016     1   0.10910 283424.160000
   5017   5018     1   0.10910 283424.160000
   5017   5019     1   0.10910 283424.160000
   5020   5021     1   0.10969 276646.080000
   5020   5022     1   0.10969 276646.080000
   5023   5024     1   0.10969 276646.080000
   5023   5025     1   0.10969 276646.080000
   5026   5027     1   0.10969 276646.080000
   5026   5028     1   0.10969 276646.080000
   5029   5030     1   0.10969 276646.080000
   5029   5031     1   0.10969 276646.080000
   5032   5033     1   0.10969 276646.080000
   5032   5034     1   0.10969 276646.080000
   5035   5036     1   0.10969 276646.080000
   5035   5037     1   0.10969 276646.080000
   5040   5069     1   0.10304 312293.760000
   5041   5042     1   0.10910 283424.160000
   5041   5043     1   0.10910 283424.160000
   5044   5045     1   0.10910 283424.160000
   5044   5046     1   0.10910 283424.160000
   5047   5048     1   0.10910 283424.160000
   5047   5049     1   0.10910 283424.160000
   5050   5051     1   0.10969 276646.080000
   5050   5052     1   0.10969 276646.080000
   5053   5054     1   0.10969 276646.080000
   5053   5055     1   0.10969 276646.080000
   5056   5057     1   0.10969 276646.080000
   5056   5058     1   0.10969 276646.080000
   5059   5060     1   0.10969 276646.080000
   5059   5061     1   0.10969 276646.080000
   5062   5063     1   0.10969 276646.080000
   5062   5064     1   0.10969 276646.080000
   5065   5066     1   0.10969 276646.080000
   5065   5067     1   0.10969 276646.080000
   5070   5099     1   0.10304 312293.760000
   5071   5072     1   0.10910 283424.160000
   5071   5073     1   0.10910 283424.160000
   5074   5075     1   0.10910 283424.160000
   5074   5076     1   0.10910 283424.160000
   5077   5078     1   0.10910 283424.160000
   5077   5079     1   0.10910 283424.160000
   5080   5081     1   0.10969 276646.080000
   5080   5082     1   0.10969 276646.080000
   5083   5084     1   0.10969 276646.080000
   5083   5085     1   0.10969 276646.080000
   5086   5087     1   0.10969 276646.080000
   5086   5088     1   0.10969 276646.080000
   5089   5090     1   0.10969 276646.080000
   5089   5091     1   0.10969 276646.080000
   5092   5093     1   0.10969 276646.080000
   5092   5094     1   0.10969 276646.080000
   5095   5096     1   0.10969 276646.080000
   5095   5097     1   0.10969 276646.080000
   5100   5129     1   0.10304 312293.760000
   5101   5102     1   0.10910 283424.160000
   5101   5103     1   0.10910 283424.160000
   5104   5105     1   0.10910 283424.160000
   5104   5106     1   0.10910 283424.160000
   5107   5108     1   0.10910 283424.160000
   5107   5109     1   0.10910 283424.160000
   5110   5111     1   0.10969 276646.080000
   5110   5112     1   0.10969 276646.080000
   5113   5114     1   0.10969 276646.080000
   5113   5115     1   0.10969 276646.080000
   5116   5117     1   0.10969 276646.080000
   5116   5118     1   0.10969 276646.080000
   5119   5120     1   0.10969 276646.080000
   5119   5121     1   0.10969 276646.080000
   5122   5123     1   0.10969 276646.080000
   5122   5124     1   0.10969 276646.080000
   5125   5126     1   0.10969 276646.080000
   5125   5127     1   0.10969 276646.080000
   5130   5159     1   0.10304 312293.760000
   5131   5132     1   0.10910 283424.160000
   5131   5133     1   0.10910 283424.160000
   5134   5135     1   0.10910 283424.160000
   5134   5136     1   0.10910 283424.160000
   5137   5138     1   0.10910 283424.160000
   5137   5139     1   0.10910 283424.160000
   5140   5141     1   0.10969 276646.080000
   5140   5142     1   0.10969 276646.080000
   5143   5144     1   0.10969 276646.080000
   5143   5145     1   0.10969 276646.080000
   5146   5147     1   0.10969 276646.080000
   5146   5148     1   0.10969 276646.080000
   5149   5150     1   0.10969 276646.080000
   5149   5151     1   0.10969 276646.080000
   5152   5153     1   0.10969 276646.080000
   5152   5154     1   0.10969 276646.080000
   5155   5156     1   0.10969 276646.080000
   5155   5157     1   0.10969 276646.080000
   5160   5189     1   0.10304 312293.760000
   5161   5162     1   0.10910 283424.160000
   5161   5163     1   0.10910 283424.160000
   5164   5165     1   0.10910 283424.160000
   5164   5166     1   0.10910 283424.160000
   5167   5168     1   0.10910 283424.160000
   5167   5169     1   0.10910 283424.160000
   5170   5171     1   0.10969 276646.080000
   5170   5172     1   0.10969 276646.080000
   5173   5174     1   0.10969 276646.080000
   5173   5175     1   0.10969 276646.080000
   5176   5177     1   0.10969 276646.080000
   5176   5178     1   0.10969 276646.080000
   5179   5180     1   0.10969 276646.080000
   5179   5181     1   0.10969 276646.080000
   5182   5183     1   0.10969 276646.080000
   5182   5184     1   0.10969 276646.080000
   5185   5186     1   0.10969 276646.080000
   5185   5187     1   0.10969 276646.080000
   5190   5219     1   0.10304 312293.760000
   5191   5192     1   0.10910 283424.160000
   5191   5193     1   0.10910 283424.160000
   5194   5195     1   0.10910 283424.160000
   5194   5196     1   0.10910 283424.160000
   5197   5198     1   0.10910 283424.160000
   5197   5199     1   0.10910 283424.160000
   5200   5201     1   0.10969 276646.080000
   5200   5202     1   0.10969 276646.080000
   5203   5204     1   0.10969 276646.080000
   5203   5205     1   0.10969 276646.080000
   5206   5207     1   0.10969 276646.080000
   5206   5208     1   0.10969 276646.080000
   5209   5210     1   0.10969 276646.080000
   5209   5211     1   0.10969 276646.080000
   5212   5213     1   0.10969 276646.080000
   5212   5214     1   0.10969 276646.080000
   5215   5216     1   0.10969 276646.080000
   5215   5217     1   0.10969 276646.080000
   5220   5249     1   0.10304 312293.760000
   5221   5222     1   0.10910 283424.160000
   5221   5223     1   0.10910 283424.160000
   5224   5225     1   0.10910 283424.160000
   5224   5226     1   0.10910 283424.160000
   5227   5228     1   0.10910 283424.160000
   5227   5229     1   0.10910 283424.160000
   5230   5231     1   0.10969 276646.080000
   5230   5232     1   0.10969 276646.080000
   5233   5234     1   0.10969 276646.080000
   5233   5235     1   0.10969 276646.080000
   5236   5237     1   0.10969 276646.080000
   5236   5238     1   0.10969 276646.080000
   5239   5240     1   0.10969 276646.080000
   5239   5241     1   0.10969 276646.080000
   5242   5243     1   0.10969 276646.080000
   5242   5244     1   0.10969 276646.080000
   5245   5246     1   0.10969 276646.080000
   5245   5247     1   0.10969 276646.080000
   5250   5279     1   0.10304 312293.760000
   5251   5252     1   0.10910 283424.160000
   5251   5253     1   0.10910 283424.160000
   5254   5255     1   0.10910 283424.160000
   5254   5256     1   0.10910 283424.160000
   5257   5258     1   0.10910 283424.160000
   5257   5259     1   0.10910 283424.160000
   5260   5261     1   0.10969 276646.080000
   5260   5262     1   0.10969 276646.080000
   5263   5264     1   0.10969 276646.080000
   5263   5265     1   0.10969 276646.080000
   5266   5267     1   0.10969 276646.080000
   5266   5268     1   0.10969 276646.080000
   5269   5270     1   0.10969 276646.080000
   5269   5271     1   0.10969 276646.080000
   5272   5273     1   0.10969 276646.080000
   5272   5274     1   0.10969 276646.080000
   5275   5276     1   0.10969 276646.080000
   5275   5277     1   0.10969 276646.080000
   5280   5309     1   0.10304 312293.760000
   5281   5282     1   0.10910 283424.160000
   5281   5283     1   0.10910 283424.160000
   5284   5285     1   0.10910 283424.160000
   5284   5286     1   0.10910 283424.160000
   5287   5288     1   0.10910 283424.160000
   5287   5289     1   0.10910 283424.160000
   5290   5291     1   0.10969 276646.080000
   5290   5292     1   0.10969 276646.080000
   5293   5294     1   0.10969 276646.080000
   5293   5295     1   0.10969 276646.080000
   5296   5297     1   0.10969 276646.080000
   5296   5298     1   0.10969 276646.080000
   5299   5300     1   0.10969 276646.080000
   5299   5301     1   0.10969 276646.080000
   5302   5303     1   0.10969 276646.080000
   5302   5304     1   0.10969 276646.080000
   5305   5306     1   0.10969 276646.080000
   5305   5307     1   0.10969 276646.080000
   5310   5339     1   0.10304 312293.760000
   5311   5312     1   0.10910 283424.160000
   5311   5313     1   0.10910 283424.160000
   5314   5315     1   0.10910 283424.160000
   5314   5316     1   0.10910 283424.160000
   5317   5318     1   0.10910 283424.160000
   5317   5319     1   0.10910 283424.160000
   5320   5321     1   0.10969 276646.080000
   5320   5322     1   0.10969 276646.080000
   5323   5324     1   0.10969 276646.080000
   5323   5325     1   0.10969 276646.080000
   5326   5327     1   0.10969 276646.080000
   5326   5328     1   0.10969 276646.080000
   5329   5330     1   0.10969 276646.080000
   5329   5331     1   0.10969 276646.080000
   5332   5333     1   0.10969 276646.080000
   5332   5334     1   0.10969 276646.080000
   5335   5336     1   0.10969 276646.080000
   5335   5337     1   0.10969 276646.080000
   5340   5369     1   0.10304 312293.760000
   5341   5342     1   0.10910 283424.160000
   5341   5343     1   0.10910 283424.160000
   5344   5345     1   0.10910 283424.160000
   5344   5346     1   0.10910 283424.160000
   5347   5348     1   0.10910 283424.160000
   5347   5349     1   0.10910 283424.160000
   5350   5351     1   0.10969 276646.080000
   5350   5352     1   0.10969 276646.080000
   5353   5354     1   0.10969 276646.080000
   5353   5355     1   0.10969 276646.080000
   5356   5357     1   0.10969 276646.080000
   5356   5358     1   0.10969 276646.080000
   5359   5360     1   0.10969 276646.080000
   5359   5361     1   0.10969 276646.080000
   5362   5363     1   0.10969 276646.080000
   5362   5364     1   0.10969 276646.080000
   5365   5366     1   0.10969 276646.080000
   5365   5367     1   0.10969 276646.080000
   5370   5399     1   0.10304 312293.760000
   5371   5372     1   0.10910 283424.160000
   5371   5373     1   0.10910 283424.160000
   5374   5375     1   0.10910 283424.160000
   5374   5376     1   0.10910 283424.160000
   5377   5378     1   0.10910 283424.160000
   5377   5379     1   0.10910 283424.160000
   5380   5381     1   0.10969 276646.080000
   5380   5382     1   0.10969 276646.080000
   5383   5384     1   0.10969 276646.080000
   5383   5385     1   0.10969 276646.080000
   5386   5387     1   0.10969 276646.080000
   5386   5388     1   0.10969 276646.080000
   5389   5390     1   0.10969 276646.080000
   5389   5391     1   0.10969 276646.080000
   5392   5393     1   0.10969 276646.080000
   5392   5394     1   0.10969 276646.080000
   5395   5396     1   0.10969 276646.080000
   5395   5397     1   0.10969 276646.080000
   5400   5429     1   0.10304 312293.760000
   5401   5402     1   0.10910 283424.160000
   5401   5403     1   0.10910 283424.160000
   5404   5405     1   0.10910 283424.160000
   5404   5406     1   0.10910 283424.160000
   5407   5408     1   0.10910 283424.160000
   5407   5409     1   0.10910 283424.160000
   5410   5411     1   0.10969 276646.080000
   5410   5412     1   0.10969 276646.080000
   5413   5414     1   0.10969 276646.080000
   5413   5415     1   0.10969 276646.080000
   5416   5417     1   0.10969 276646.080000
   5416   5418     1   0.10969 276646.080000
   5419   5420     1   0.10969 276646.080000
   5419   5421     1   0.10969 276646.080000
   5422   5423     1   0.10969 276646.080000
   5422   5424     1   0.10969 276646.080000
   5425   5426     1   0.10969 276646.080000
   5425   5427     1   0.10969 276646.080000
   5430   5459     1   0.10304 312293.760000
   5431   5432     1   0.10910 283424.160000
   5431   5433     1   0.10910 283424.160000
   5434   5435     1   0.10910 283424.160000
   5434   5436     1   0.10910 283424.160000
   5437   5438     1   0.10910 283424.160000
   5437   5439     1   0.10910 283424.160000
   5440   5441     1   0.10969 276646.080000
   5440   5442     1   0.10969 276646.080000
   5443   5444     1   0.10969 276646.080000
   5443   5445     1   0.10969 276646.080000
   5446   5447     1   0.10969 276646.080000
   5446   5448     1   0.10969 276646.080000
   5449   5450     1   0.10969 276646.080000
   5449   5451     1   0.10969 276646.080000
   5452   5453     1   0.10969 276646.080000
   5452   5454     1   0.10969 276646.080000
   5455   5456     1   0.10969 276646.080000
   5455   5457     1   0.10969 276646.080000
   5460   5489     1   0.10304 312293.760000
   5461   5462     1   0.10910 283424.160000
   5461   5463     1   0.10910 283424.160000
   5464   5465     1   0.10910 283424.160000
   5464   5466     1   0.10910 283424.160000
   5467   5468     1   0.10910 283424.160000
   5467   5469     1   0.10910 283424.160000
   5470   5471     1   0.10969 276646.080000
   5470   5472     1   0.10969 276646.080000
   5473   5474     1   0.10969 276646.080000
   5473   5475     1   0.10969 276646.080000
   5476   5477     1   0.10969 276646.080000
   5476   5478     1   0.10969 276646.080000
   5479   5480     1   0.10969 276646.080000
   5479   5481     1   0.10969 276646.080000
   5482   5483     1   0.10969 276646.080000
   5482   5484     1   0.10969 276646.080000
   5485   5486     1   0.10969 276646.080000
   5485   5487     1   0.10969 276646.080000
   5490   5519     1   0.10304 312293.760000
   5491   5492     1   0.10910 283424.160000
   5491   5493     1   0.10910 283424.160000
   5494   5495     1   0.10910 283424.160000
   5494   5496     1   0.10910 283424.160000
   5497   5498     1   0.10910 283424.160000
   5497   5499     1   0.10910 283424.160000
   5500   5501     1   0.10969 276646.080000
   5500   5502     1   0.10969 276646.080000
   5503   5504     1   0.10969 276646.080000
   5503   5505     1   0.10969 276646.080000
   5506   5507     1   0.10969 276646.080000
   5506   5508     1   0.10969 276646.080000
   5509   5510     1   0.10969 276646.080000
   5509   5511     1   0.10969 276646.080000
   5512   5513     1   0.10969 276646.080000
   5512   5514     1   0.10969 276646.080000
   5515   5516     1   0.10969 276646.080000
   5515   5517     1   0.10969 276646.080000
   5520   5549     1   0.10304 312293.760000
   5521   5522     1   0.10910 283424.160000
   5521   5523     1   0.10910 283424.160000
   5524   5525     1   0.10910 283424.160000
   5524   5526     1   0.10910 283424.160000
   5527   5528     1   0.10910 283424.160000
   5527   5529     1   0.10910 283424.160000
   5530   5531     1   0.10969 276646.080000
   5530   5532     1   0.10969 276646.080000
   5533   5534     1   0.10969 276646.080000
   5533   5535     1   0.10969 276646.080000
   5536   5537     1   0.10969 276646.080000
   5536   5538     1   0.10969 276646.080000
   5539   5540     1   0.10969 276646.080000
   5539   5541     1   0.10969 276646.080000
   5542   5543     1   0.10969 276646.080000
   5542   5544     1   0.10969 276646.080000
   5545   5546     1   0.10969 276646.080000
   5545   5547     1   0.10969 276646.080000
   5550   5579     1   0.10304 312293.760000
   5551   5552     1   0.10910 283424.160000
   5551   5553     1   0.10910 283424.160000
   5554   5555     1   0.10910 283424.160000
   5554   5556     1   0.10910 283424.160000
   5557   5558     1   0.10910 283424.160000
   5557   5559     1   0.10910 283424.160000
   5560   5561     1   0.10969 276646.080000
   5560   5562     1   0.10969 276646.080000
   5563   5564     1   0.10969 276646.080000
   5563   5565     1   0.10969 276646.080000
   5566   5567     1   0.10969 276646.080000
   5566   5568     1   0.10969 276646.080000
   5569   5570     1   0.10969 276646.080000
   5569   5571     1   0.10969 276646.080000
   5572   5573     1   0.10969 276646.080000
   5572   5574     1   0.10969 276646.080000
   5575   5576     1   0.10969 276646.080000
   5575   5577     1   0.10969 276646.080000
   5580   5609     1   0.10304 312293.760000
   5581   5582     1   0.10910 283424.160000
   5581   5583     1   0.10910 283424.160000
   5584   5585     1   0.10910 283424.160000
   5584   5586     1   0.10910 283424.160000
   5587   5588     1   0.10910 283424.160000
   5587   5589     1   0.10910 283424.160000
   5590   5591     1   0.10969 276646.080000
   5590   5592     1   0.10969 276646.080000
   5593   5594     1   0.10969 276646.080000
   5593   5595     1   0.10969 276646.080000
   5596   5597     1   0.10969 276646.080000
   5596   5598     1   0.10969 276646.080000
   5599   5600     1   0.10969 276646.080000
   5599   5601     1   0.10969 276646.080000
   5602   5603     1   0.10969 276646.080000
   5602   5604     1   0.10969 276646.080000
   5605   5606     1   0.10969 276646.080000
   5605   5607     1   0.10969 276646.080000
   5610   5639     1   0.10304 312293.760000
   5611   5612     1   0.10910 283424.160000
   5611   5613     1   0.10910 283424.160000
   5614   5615     1   0.10910 283424.160000
   5614   5616     1   0.10910 283424.160000
   5617   5618     1   0.10910 283424.160000
   5617   5619     1   0.10910 283424.160000
   5620   5621     1   0.10969 276646.080000
   5620   5622     1   0.10969 276646.080000
   5623   5624     1   0.10969 276646.080000
   5623   5625     1   0.10969 276646.080000
   5626   5627     1   0.10969 276646.080000
   5626   5628     1   0.10969 276646.080000
   5629   5630     1   0.10969 276646.080000
   5629   5631     1   0.10969 276646.080000
   5632   5633     1   0.10969 276646.080000
   5632   5634     1   0.10969 276646.080000
   5635   5636     1   0.10969 276646.080000
   5635   5637     1   0.10969 276646.080000
   5640   5669     1   0.10304 312293.760000
   5641   5642     1   0.10910 283424.160000
   5641   5643     1   0.10910 283424.160000
   5644   5645     1   0.10910 283424.160000
   5644   5646     1   0.10910 283424.160000
   5647   5648     1   0.10910 283424.160000
   5647   5649     1   0.10910 283424.160000
   5650   5651     1   0.10969 276646.080000
   5650   5652     1   0.10969 276646.080000
   5653   5654     1   0.10969 276646.080000
   5653   5655     1   0.10969 276646.080000
   5656   5657     1   0.10969 276646.080000
   5656   5658     1   0.10969 276646.080000
   5659   5660     1   0.10969 276646.080000
   5659   5661     1   0.10969 276646.080000
   5662   5663     1   0.10969 276646.080000
   5662   5664     1   0.10969 276646.080000
   5665   5666     1   0.10969 276646.080000
   5665   5667     1   0.10969 276646.080000
   5670   5699     1   0.10304 312293.760000
   5671   5672     1   0.10910 283424.160000
   5671   5673     1   0.10910 283424.160000
   5674   5675     1   0.10910 283424.160000
   5674   5676     1   0.10910 283424.160000
   5677   5678     1   0.10910 283424.160000
   5677   5679     1   0.10910 283424.160000
   5680   5681     1   0.10969 276646.080000
   5680   5682     1   0.10969 276646.080000
   5683   5684     1   0.10969 276646.080000
   5683   5685     1   0.10969 276646.080000
   5686   5687     1   0.10969 276646.080000
   5686   5688     1   0.10969 276646.080000
   5689   5690     1   0.10969 276646.080000
   5689   5691     1   0.10969 276646.080000
   5692   5693     1   0.10969 276646.080000
   5692   5694     1   0.10969 276646.080000
   5695   5696     1   0.10969 276646.080000
   5695   5697     1   0.10969 276646.080000
   5700   5702     1   0.10969 276646.080000
   5701   5703     1   0.10969 276646.080000
   5704   5708     1   0.10969 276646.080000
   5705   5707     1   0.10969 276646.080000
   5706   5709     1   0.10961 277566.560000
   5711   5717     1   0.09730 310787.520000
   5712   5715     1   0.09730 310787.520000
   5713   5716     1   0.09730 310787.520000
   5714   5718     1   0.10969 276646.080000
   5714   5719     1   0.10969 276646.080000
   5720   5721     1   0.09730 310787.520000
   5723   5725     1   0.10969 276646.080000
   5724   5726     1   0.10969 276646.080000
   5727   5731     1   0.10969 276646.080000
   5728   5730     1   0.10969 276646.080000
   5729   5732     1   0.10961 277566.560000
   5734   5740     1   0.09730 310787.520000
   5735   5738     1   0.09730 310787.520000
   5736   5739     1   0.09730 310787.520000
   5737   5741     1   0.10969 276646.080000
   5737   5742     1   0.10969 276646.080000
   5743   5744     1   0.09730 310787.520000
   5746   5748     1   0.10969 276646.080000
   5747   5749     1   0.10969 276646.080000
   5750   5754     1   0.10969 276646.080000
   5751   5753     1   0.10969 276646.080000
   5752   5755     1   0.10961 277566.560000
   5757   5763     1   0.09730 310787.520000
   5758   5761     1   0.09730 310787.520000
   5759   5762     1   0.09730 310787.520000
   5760   5764     1   0.10969 276646.080000
   5760   5765     1   0.10969 276646.080000
   5766   5767     1   0.09730 310787.520000
   5769   5771     1   0.10969 276646.080000
   5770   5772     1   0.10969 276646.080000
   5773   5777     1   0.10969 276646.080000
   5774   5776     1   0.10969 276646.080000
   5775   5778     1   0.10961 277566.560000
   5780   5786     1   0.09730 310787.520000
   5781   5784     1   0.09730 310787.520000
   5782   5785     1   0.09730 310787.520000
   5783   5787     1   0.10969 276646.080000
   5783   5788     1   0.10969 276646.080000
   5789   5790     1   0.09730 310787.520000
   5792   5794     1   0.10969 276646.080000
   5793   5795     1   0.10969 276646.080000
   5796   5800     1   0.10969 276646.080000
   5797   5799     1   0.10969 276646.080000
   5798   5801     1   0.10961 277566.560000
   5803   5809     1   0.09730 310787.520000
   5804   5807     1   0.09730 310787.520000
   5805   5808     1   0.09730 310787.520000
   5806   5810     1   0.10969 276646.080000
   5806   5811     1   0.10969 276646.080000
   5812   5813     1   0.09730 310787.520000
   5815   5817     1   0.10969 276646.080000
   5816   5818     1   0.10969 276646.080000
   5819   5823     1   0.10969 276646.080000
   5820   5822     1   0.10969 276646.080000
   5821   5824     1   0.10961 277566.560000
   5826   5832     1   0.09730 310787.520000
   5827   5830     1   0.09730 310787.520000
   5828   5831     1   0.09730 310787.520000
   5829   5833     1   0.10969 276646.080000
   5829   5834     1   0.10969 276646.080000
   5835   5836     1   0.09730 310787.520000
   5838   5840     1   0.10969 276646.080000
   5839   5841     1   0.10969 276646.080000
   5842   5846     1   0.10969 276646.080000
   5843   5845     1   0.10969 276646.080000
   5844   5847     1   0.10961 277566.560000
   5849   5855     1   0.09730 310787.520000
   5850   5853     1   0.09730 310787.520000
   5851   5854     1   0.09730 310787.520000
   5852   5856     1   0.10969 276646.080000
   5852   5857     1   0.10969 276646.080000
   5858   5859     1   0.09730 310787.520000
   5861   5863     1   0.10969 276646.080000
   5862   5864     1   0.10969 276646.080000
   5865   5869     1   0.10969 276646.080000
   5866   5868     1   0.10969 276646.080000
   5867   5870     1   0.10961 277566.560000
   5872   5878     1   0.09730 310787.520000
   5873   5876     1   0.09730 310787.520000
   5874   5877     1   0.09730 310787.520000
   5875   5879     1   0.10969 276646.080000
   5875   5880     1   0.10969 276646.080000
   5881   5882     1   0.09730 310787.520000
   5884   5886     1   0.10969 276646.080000
   5885   5887     1   0.10969 276646.080000
   5888   5892     1   0.10969 276646.080000
   5889   5891     1   0.10969 276646.080000
   5890   5893     1   0.10961 277566.560000
   5895   5901     1   0.09730 310787.520000
   5896   5899     1   0.09730 310787.520000
   5897   5900     1   0.09730 310787.520000
   5898   5902     1   0.10969 276646.080000
   5898   5903     1   0.10969 276646.080000
   5904   5905     1   0.09730 310787.520000
   5907   5909     1   0.10969 276646.080000
   5908   5910     1   0.10969 276646.080000
   5911   5915     1   0.10969 276646.080000
   5912   5914     1   0.10969 276646.080000
   5913   5916     1   0.10961 277566.560000
   5918   5924     1   0.09730 310787.520000
   5919   5922     1   0.09730 310787.520000
   5920   5923     1   0.09730 310787.520000
   5921   5925     1   0.10969 276646.080000
   5921   5926     1   0.10969 276646.080000
   5927   5928     1   0.09730 310787.520000
   5930   5932     1   0.10969 276646.080000
   5931   5933     1   0.10969 276646.080000
   5934   5938     1   0.10969 276646.080000
   5935   5937     1   0.10969 276646.080000
   5936   5939     1   0.10961 277566.560000
   5941   5947     1   0.09730 310787.520000
   5942   5945     1   0.09730 310787.520000
   5943   5946     1   0.09730 310787.520000
   5944   5948     1   0.10969 276646.080000
   5944   5949     1   0.10969 276646.080000
   5950   5951     1   0.09730 310787.520000
   5953   5955     1   0.10969 276646.080000
   5954   5956     1   0.10969 276646.080000
   5957   5961     1   0.10969 276646.080000
   5958   5960     1   0.10969 276646.080000
   5959   5962     1   0.10961 277566.560000
   5964   5970     1   0.09730 310787.520000
   5965   5968     1   0.09730 310787.520000
   5966   5969     1   0.09730 310787.520000
   5967   5971     1   0.10969 276646.080000
   5967   5972     1   0.10969 276646.080000
   5973   5974     1   0.09730 310787.520000
   5976   5978     1   0.10969 276646.080000
   5977   5979     1   0.10969 276646.080000
   5980   5984     1   0.10969 276646.080000
   5981   5983     1   0.10969 276646.080000
   5982   5985     1   0.10961 277566.560000
   5987   5993     1   0.09730 310787.520000
   5988   5991     1   0.09730 310787.520000
   5989   5992     1   0.09730 310787.520000
   5990   5994     1   0.10969 276646.080000
   5990   5995     1   0.10969 276646.080000
   5996   5997     1   0.09730 310787.520000
   5999   6001     1   0.10969 276646.080000
   6000   6002     1   0.10969 276646.080000
   6003   6007     1   0.10969 276646.080000
   6004   6006     1   0.10969 276646.080000
   6005   6008     1   0.10961 277566.560000
   6010   6016     1   0.09730 310787.520000
   6011   6014     1   0.09730 310787.520000
   6012   6015     1   0.09730 310787.520000
   6013   6017     1   0.10969 276646.080000
   6013   6018     1   0.10969 276646.080000
   6019   6020     1   0.09730 310787.520000
   6022   6024     1   0.10969 276646.080000
   6023   6025     1   0.10969 276646.080000
   6026   6030     1   0.10969 276646.080000
   6027   6029     1   0.10969 276646.080000
   6028   6031     1   0.10961 277566.560000
   6033   6039     1   0.09730 310787.520000
   6034   6037     1   0.09730 310787.520000
   6035   6038     1   0.09730 310787.520000
   6036   6040     1   0.10969 276646.080000
   6036   6041     1   0.10969 276646.080000
   6042   6043     1   0.09730 310787.520000
   6045   6047     1   0.10969 276646.080000
   6046   6048     1   0.10969 276646.080000
   6049   6053     1   0.10969 276646.080000
   6050   6052     1   0.10969 276646.080000
   6051   6054     1   0.10961 277566.560000
   6056   6062     1   0.09730 310787.520000
   6057   6060     1   0.09730 310787.520000
   6058   6061     1   0.09730 310787.520000
   6059   6063     1   0.10969 276646.080000
   6059   6064     1   0.10969 276646.080000
   6065   6066     1   0.09730 310787.520000
   6068   6070     1   0.10969 276646.080000
   6069   6071     1   0.10969 276646.080000
   6072   6076     1   0.10969 276646.080000
   6073   6075     1   0.10969 276646.080000
   6074   6077     1   0.10961 277566.560000
   6079   6085     1   0.09730 310787.520000
   6080   6083     1   0.09730 310787.520000
   6081   6084     1   0.09730 310787.520000
   6082   6086     1   0.10969 276646.080000
   6082   6087     1   0.10969 276646.080000
   6088   6089     1   0.09730 310787.520000
   6091   6093     1   0.10969 276646.080000
   6092   6094     1   0.10969 276646.080000
   6095   6099     1   0.10969 276646.080000
   6096   6098     1   0.10969 276646.080000
   6097   6100     1   0.10961 277566.560000
   6102   6108     1   0.09730 310787.520000
   6103   6106     1   0.09730 310787.520000
   6104   6107     1   0.09730 310787.520000
   6105   6109     1   0.10969 276646.080000
   6105   6110     1   0.10969 276646.080000
   6111   6112     1   0.09730 310787.520000
   6114   6116     1   0.10969 276646.080000
   6115   6117     1   0.10969 276646.080000
   6118   6122     1   0.10969 276646.080000
   6119   6121     1   0.10969 276646.080000
   6120   6123     1   0.10961 277566.560000
   6125   6131     1   0.09730 310787.520000
   6126   6129     1   0.09730 310787.520000
   6127   6130     1   0.09730 310787.520000
   6128   6132     1   0.10969 276646.080000
   6128   6133     1   0.10969 276646.080000
   6134   6135     1   0.09730 310787.520000
   6137   6139     1   0.10969 276646.080000
   6138   6140     1   0.10969 276646.080000
   6141   6145     1   0.10969 276646.080000
   6142   6144     1   0.10969 276646.080000
   6143   6146     1   0.10961 277566.560000
   6148   6154     1   0.09730 310787.520000
   6149   6152     1   0.09730 310787.520000
   6150   6153     1   0.09730 310787.520000
   6151   6155     1   0.10969 276646.080000
   6151   6156     1   0.10969 276646.080000
   6157   6158     1   0.09730 310787.520000
   6160   6162     1   0.10969 276646.080000
   6161   6163     1   0.10969 276646.080000
   6164   6168     1   0.10969 276646.080000
   6165   6167     1   0.10969 276646.080000
   6166   6169     1   0.10961 277566.560000
   6171   6177     1   0.09730 310787.520000
   6172   6175     1   0.09730 310787.520000
   6173   6176     1   0.09730 310787.520000
   6174   6178     1   0.10969 276646.080000
   6174   6179     1   0.10969 276646.080000
   6180   6181     1   0.09730 310787.520000
   6183   6185     1   0.10969 276646.080000
   6184   6186     1   0.10969 276646.080000
   6187   6191     1   0.10969 276646.080000
   6188   6190     1   0.10969 276646.080000
   6189   6192     1   0.10961 277566.560000
   6194   6200     1   0.09730 310787.520000
   6195   6198     1   0.09730 310787.520000
   6196   6199     1   0.09730 310787.520000
   6197   6201     1   0.10969 276646.080000
   6197   6202     1   0.10969 276646.080000
   6203   6204     1   0.09730 310787.520000
   6206   6208     1   0.10969 276646.080000
   6207   6209     1   0.10969 276646.080000
   6210   6214     1   0.10969 276646.080000
   6211   6213     1   0.10969 276646.080000
   6212   6215     1   0.10961 277566.560000
   6217   6223     1   0.09730 310787.520000
   6218   6221     1   0.09730 310787.520000
   6219   6222     1   0.09730 310787.520000
   6220   6224     1   0.10969 276646.080000
   6220   6225     1   0.10969 276646.080000
   6226   6227     1   0.09730 310787.520000
   6229   6231     1   0.10969 276646.080000
   6230   6232     1   0.10969 276646.080000
   6233   6237     1   0.10969 276646.080000
   6234   6236     1   0.10969 276646.080000
   6235   6238     1   0.10961 277566.560000
   6240   6246     1   0.09730 310787.520000
   6241   6244     1   0.09730 310787.520000
   6242   6245     1   0.09730 310787.520000
   6243   6247     1   0.10969 276646.080000
   6243   6248     1   0.10969 276646.080000
   6249   6250     1   0.09730 310787.520000
   6252   6254     1   0.10969 276646.080000
   6253   6255     1   0.10969 276646.080000
   6256   6260     1   0.10969 276646.080000
   6257   6259     1   0.10969 276646.080000
   6258   6261     1   0.10961 277566.560000
   6263   6269     1   0.09730 310787.520000
   6264   6267     1   0.09730 310787.520000
   6265   6268     1   0.09730 310787.520000
   6266   6270     1   0.10969 276646.080000
   6266   6271     1   0.10969 276646.080000
   6272   6273     1   0.09730 310787.520000
   6275   6277     1   0.10969 276646.080000
   6276   6278     1   0.10969 276646.080000
   6279   6283     1   0.10969 276646.080000
   6280   6282     1   0.10969 276646.080000
   6281   6284     1   0.10961 277566.560000
   6286   6292     1   0.09730 310787.520000
   6287   6290     1   0.09730 310787.520000
   6288   6291     1   0.09730 310787.520000
   6289   6293     1   0.10969 276646.080000
   6289   6294     1   0.10969 276646.080000
   6295   6296     1   0.09730 310787.520000
   6298   6300     1   0.10969 276646.080000
   6299   6301     1   0.10969 276646.080000
   6302   6306     1   0.10969 276646.080000
   6303   6305     1   0.10969 276646.080000
   6304   6307     1   0.10961 277566.560000
   6309   6315     1   0.09730 310787.520000
   6310   6313     1   0.09730 310787.520000
   6311   6314     1   0.09730 310787.520000
   6312   6316     1   0.10969 276646.080000
   6312   6317     1   0.10969 276646.080000
   6318   6319     1   0.09730 310787.520000
   6321   6323     1   0.10969 276646.080000
   6322   6324     1   0.10969 276646.080000
   6325   6329     1   0.10969 276646.080000
   6326   6328     1   0.10969 276646.080000
   6327   6330     1   0.10961 277566.560000
   6332   6338     1   0.09730 310787.520000
   6333   6336     1   0.09730 310787.520000
   6334   6337     1   0.09730 310787.520000
   6335   6339     1   0.10969 276646.080000
   6335   6340     1   0.10969 276646.080000
   6341   6342     1   0.09730 310787.520000
   6344   6346     1   0.10969 276646.080000
   6345   6347     1   0.10969 276646.080000
   6348   6352     1   0.10969 276646.080000
   6349   6351     1   0.10969 276646.080000
   6350   6353     1   0.10961 277566.560000
   6355   6361     1   0.09730 310787.520000
   6356   6359     1   0.09730 310787.520000
   6357   6360     1   0.09730 310787.520000
   6358   6362     1   0.10969 276646.080000
   6358   6363     1   0.10969 276646.080000
   6364   6365     1   0.09730 310787.520000
   6367   6369     1   0.10969 276646.080000
   6368   6370     1   0.10969 276646.080000
   6371   6375     1   0.10969 276646.080000
   6372   6374     1   0.10969 276646.080000
   6373   6376     1   0.10961 277566.560000
   6378   6384     1   0.09730 310787.520000
   6379   6382     1   0.09730 310787.520000
   6380   6383     1   0.09730 310787.520000
   6381   6385     1   0.10969 276646.080000
   6381   6386     1   0.10969 276646.080000
   6387   6388     1   0.09730 310787.520000
   6390   6392     1   0.10969 276646.080000
   6391   6393     1   0.10969 276646.080000
   6394   6398     1   0.10969 276646.080000
   6395   6397     1   0.10969 276646.080000
   6396   6399     1   0.10961 277566.560000
   6401   6407     1   0.09730 310787.520000
   6402   6405     1   0.09730 310787.520000
   6403   6406     1   0.09730 310787.520000
   6404   6408     1   0.10969 276646.080000
   6404   6409     1   0.10969 276646.080000
   6410   6411     1   0.09730 310787.520000
   6413   6415     1   0.10969 276646.080000
   6414   6416     1   0.10969 276646.080000
   6417   6421     1   0.10969 276646.080000
   6418   6420     1   0.10969 276646.080000
   6419   6422     1   0.10961 277566.560000
   6424   6430     1   0.09730 310787.520000
   6425   6428     1   0.09730 310787.520000
   6426   6429     1   0.09730 310787.520000
   6427   6431     1   0.10969 276646.080000
   6427   6432     1   0.10969 276646.080000
   6433   6434     1   0.09730 310787.520000
   6436   6438     1   0.10969 276646.080000
   6437   6439     1   0.10969 276646.080000
   6440   6444     1   0.10969 276646.080000
   6441   6443     1   0.10969 276646.080000
   6442   6445     1   0.10961 277566.560000
   6447   6453     1   0.09730 310787.520000
   6448   6451     1   0.09730 310787.520000
   6449   6452     1   0.09730 310787.520000
   6450   6454     1   0.10969 276646.080000
   6450   6455     1   0.10969 276646.080000
   6456   6457     1   0.09730 310787.520000
   6459   6461     1   0.10969 276646.080000
   6460   6462     1   0.10969 276646.080000
   6463   6467     1   0.10969 276646.080000
   6464   6466     1   0.10969 276646.080000
   6465   6468     1   0.10961 277566.560000
   6470   6476     1   0.09730 310787.520000
   6471   6474     1   0.09730 310787.520000
   6472   6475     1   0.09730 310787.520000
   6473   6477     1   0.10969 276646.080000
   6473   6478     1   0.10969 276646.080000
   6479   6480     1   0.09730 310787.520000
   6482   6484     1   0.10969 276646.080000
   6483   6485     1   0.10969 276646.080000
   6486   6490     1   0.10969 276646.080000
   6487   6489     1   0.10969 276646.080000
   6488   6491     1   0.10961 277566.560000
   6493   6499     1   0.09730 310787.520000
   6494   6497     1   0.09730 310787.520000
   6495   6498     1   0.09730 310787.520000
   6496   6500     1   0.10969 276646.080000
   6496   6501     1   0.10969 276646.080000
   6502   6503     1   0.09730 310787.520000
   6505   6507     1   0.10969 276646.080000
   6506   6508     1   0.10969 276646.080000
   6509   6513     1   0.10969 276646.080000
   6510   6512     1   0.10969 276646.080000
   6511   6514     1   0.10961 277566.560000
   6516   6522     1   0.09730 310787.520000
   6517   6520     1   0.09730 310787.520000
   6518   6521     1   0.09730 310787.520000
   6519   6523     1   0.10969 276646.080000
   6519   6524     1   0.10969 276646.080000
   6525   6526     1   0.09730 310787.520000
   6528   6530     1   0.10969 276646.080000
   6529   6531     1   0.10969 276646.080000
   6532   6536     1   0.10969 276646.080000
   6533   6535     1   0.10969 276646.080000
   6534   6537     1   0.10961 277566.560000
   6539   6545     1   0.09730 310787.520000
   6540   6543     1   0.09730 310787.520000
   6541   6544     1   0.09730 310787.520000
   6542   6546     1   0.10969 276646.080000
   6542   6547     1   0.10969 276646.080000
   6548   6549     1   0.09730 310787.520000
   6551   6553     1   0.10969 276646.080000
   6552   6554     1   0.10969 276646.080000
   6555   6559     1   0.10969 276646.080000
   6556   6558     1   0.10969 276646.080000
   6557   6560     1   0.10961 277566.560000
   6562   6568     1   0.09730 310787.520000
   6563   6566     1   0.09730 310787.520000
   6564   6567     1   0.09730 310787.520000
   6565   6569     1   0.10969 276646.080000
   6565   6570     1   0.10969 276646.080000
   6571   6572     1   0.09730 310787.520000
   6574   6576     1   0.10969 276646.080000
   6575   6577     1   0.10969 276646.080000
   6578   6582     1   0.10969 276646.080000
   6579   6581     1   0.10969 276646.080000
   6580   6583     1   0.10961 277566.560000
   6585   6591     1   0.09730 310787.520000
   6586   6589     1   0.09730 310787.520000
   6587   6590     1   0.09730 310787.520000
   6588   6592     1   0.10969 276646.080000
   6588   6593     1   0.10969 276646.080000
   6594   6595     1   0.09730 310787.520000
   6597   6599     1   0.10969 276646.080000
   6598   6600     1   0.10969 276646.080000
   6601   6605     1   0.10969 276646.080000
   6602   6604     1   0.10969 276646.080000
   6603   6606     1   0.10961 277566.560000
   6608   6614     1   0.09730 310787.520000
   6609   6612     1   0.09730 310787.520000
   6610   6613     1   0.09730 310787.520000
   6611   6615     1   0.10969 276646.080000
   6611   6616     1   0.10969 276646.080000
   6617   6618     1   0.09730 310787.520000
   6620   6622     1   0.10969 276646.080000
   6621   6623     1   0.10969 276646.080000
   6624   6628     1   0.10969 276646.080000
   6625   6627     1   0.10969 276646.080000
   6626   6629     1   0.10961 277566.560000
   6631   6637     1   0.09730 310787.520000
   6632   6635     1   0.09730 310787.520000
   6633   6636     1   0.09730 310787.520000
   6634   6638     1   0.10969 276646.080000
   6634   6639     1   0.10969 276646.080000
   6640   6641     1   0.09730 310787.520000
   6643   6645     1   0.10969 276646.080000
   6644   6646     1   0.10969 276646.080000
   6647   6651     1   0.10969 276646.080000
   6648   6650     1   0.10969 276646.080000
   6649   6652     1   0.10961 277566.560000
   6654   6660     1   0.09730 310787.520000
   6655   6658     1   0.09730 310787.520000
   6656   6659     1   0.09730 310787.520000
   6657   6661     1   0.10969 276646.080000
   6657   6662     1   0.10969 276646.080000
   6663   6664     1   0.09730 310787.520000
   6666   6668     1   0.10969 276646.080000
   6667   6669     1   0.10969 276646.080000
   6670   6674     1   0.10969 276646.080000
   6671   6673     1   0.10969 276646.080000
   6672   6675     1   0.10961 277566.560000
   6677   6683     1   0.09730 310787.520000
   6678   6681     1   0.09730 310787.520000
   6679   6682     1   0.09730 310787.520000
   6680   6684     1   0.10969 276646.080000
   6680   6685     1   0.10969 276646.080000
   6686   6687     1   0.09730 310787.520000
   6689   6691     1   0.10969 276646.080000
   6690   6692     1   0.10969 276646.080000
   6693   6697     1   0.10969 276646.080000
   6694   6696     1   0.10969 276646.080000
   6695   6698     1   0.10961 277566.560000
   6700   6706     1   0.09730 310787.520000
   6701   6704     1   0.09730 310787.520000
   6702   6705     1   0.09730 310787.520000
   6703   6707     1   0.10969 276646.080000
   6703   6708     1   0.10969 276646.080000
   6709   6710     1   0.09730 310787.520000
   6712   6714     1   0.10969 276646.080000
   6713   6715     1   0.10969 276646.080000
   6716   6720     1   0.10969 276646.080000
   6717   6719     1   0.10969 276646.080000
   6718   6721     1   0.10961 277566.560000
   6723   6729     1   0.09730 310787.520000
   6724   6727     1   0.09730 310787.520000
   6725   6728     1   0.09730 310787.520000
   6726   6730     1   0.10969 276646.080000
   6726   6731     1   0.10969 276646.080000
   6732   6733     1   0.09730 310787.520000
   6735   6737     1   0.10969 276646.080000
   6736   6738     1   0.10969 276646.080000
   6739   6743     1   0.10969 276646.080000
   6740   6742     1   0.10969 276646.080000
   6741   6744     1   0.10961 277566.560000
   6746   6752     1   0.09730 310787.520000
   6747   6750     1   0.09730 310787.520000
   6748   6751     1   0.09730 310787.520000
   6749   6753     1   0.10969 276646.080000
   6749   6754     1   0.10969 276646.080000
   6755   6756     1   0.09730 310787.520000
   6758   6760     1   0.10969 276646.080000
   6759   6761     1   0.10969 276646.080000
   6762   6766     1   0.10969 276646.080000
   6763   6765     1   0.10969 276646.080000
   6764   6767     1   0.10961 277566.560000
   6769   6775     1   0.09730 310787.520000
   6770   6773     1   0.09730 310787.520000
   6771   6774     1   0.09730 310787.520000
   6772   6776     1   0.10969 276646.080000
   6772   6777     1   0.10969 276646.080000
   6778   6779     1   0.09730 310787.520000
   6781   6783     1   0.10969 276646.080000
   6782   6784     1   0.10969 276646.080000
   6785   6789     1   0.10969 276646.080000
   6786   6788     1   0.10969 276646.080000
   6787   6790     1   0.10961 277566.560000
   6792   6798     1   0.09730 310787.520000
   6793   6796     1   0.09730 310787.520000
   6794   6797     1   0.09730 310787.520000
   6795   6799     1   0.10969 276646.080000
   6795   6800     1   0.10969 276646.080000
   6801   6802     1   0.09730 310787.520000
   6804   6806     1   0.10969 276646.080000
   6805   6807     1   0.10969 276646.080000
   6808   6812     1   0.10969 276646.080000
   6809   6811     1   0.10969 276646.080000
   6810   6813     1   0.10961 277566.560000
   6815   6821     1   0.09730 310787.520000
   6816   6819     1   0.09730 310787.520000
   6817   6820     1   0.09730 310787.520000
   6818   6822     1   0.10969 276646.080000
   6818   6823     1   0.10969 276646.080000
   6824   6825     1   0.09730 310787.520000
   6827   6829     1   0.10969 276646.080000
   6828   6830     1   0.10969 276646.080000
   6831   6835     1   0.10969 276646.080000
   6832   6834     1   0.10969 276646.080000
   6833   6836     1   0.10961 277566.560000
   6838   6844     1   0.09730 310787.520000
   6839   6842     1   0.09730 310787.520000
   6840   6843     1   0.09730 310787.520000
   6841   6845     1   0.10969 276646.080000
   6841   6846     1   0.10969 276646.080000
   6847   6848     1   0.09730 310787.520000
   6850   6852     1   0.10969 276646.080000
   6851   6853     1   0.10969 276646.080000
   6854   6858     1   0.10969 276646.080000
   6855   6857     1   0.10969 276646.080000
   6856   6859     1   0.10961 277566.560000
   6861   6867     1   0.09730 310787.520000
   6862   6865     1   0.09730 310787.520000
   6863   6866     1   0.09730 310787.520000
   6864   6868     1   0.10969 276646.080000
   6864   6869     1   0.10969 276646.080000
   6870   6871     1   0.09730 310787.520000
   6873   6875     1   0.10969 276646.080000
   6874   6876     1   0.10969 276646.080000
   6877   6881     1   0.10969 276646.080000
   6878   6880     1   0.10969 276646.080000
   6879   6882     1   0.10961 277566.560000
   6884   6890     1   0.09730 310787.520000
   6885   6888     1   0.09730 310787.520000
   6886   6889     1   0.09730 310787.520000
   6887   6891     1   0.10969 276646.080000
   6887   6892     1   0.10969 276646.080000
   6893   6894     1   0.09730 310787.520000
   6896   6898     1   0.10969 276646.080000
   6897   6899     1   0.10969 276646.080000
   6900   6904     1   0.10969 276646.080000
   6901   6903     1   0.10969 276646.080000
   6902   6905     1   0.10961 277566.560000
   6907   6913     1   0.09730 310787.520000
   6908   6911     1   0.09730 310787.520000
   6909   6912     1   0.09730 310787.520000
   6910   6914     1   0.10969 276646.080000
   6910   6915     1   0.10969 276646.080000
   6916   6917     1   0.09730 310787.520000
   6919   6921     1   0.10969 276646.080000
   6920   6922     1   0.10969 276646.080000
   6923   6927     1   0.10969 276646.080000
   6924   6926     1   0.10969 276646.080000
   6925   6928     1   0.10961 277566.560000
   6930   6936     1   0.09730 310787.520000
   6931   6934     1   0.09730 310787.520000
   6932   6935     1   0.09730 310787.520000
   6933   6937     1   0.10969 276646.080000
   6933   6938     1   0.10969 276646.080000
   6939   6940     1   0.09730 310787.520000
   6942   6944     1   0.10969 276646.080000
   6943   6945     1   0.10969 276646.080000
   6946   6950     1   0.10969 276646.080000
   6947   6949     1   0.10969 276646.080000
   6948   6951     1   0.10961 277566.560000
   6953   6959     1   0.09730 310787.520000
   6954   6957     1   0.09730 310787.520000
   6955   6958     1   0.09730 310787.520000
   6956   6960     1   0.10969 276646.080000
   6956   6961     1   0.10969 276646.080000
   6962   6963     1   0.09730 310787.520000
   6965   6967     1   0.10969 276646.080000
   6966   6968     1   0.10969 276646.080000
   6969   6973     1   0.10969 276646.080000
   6970   6972     1   0.10969 276646.080000
   6971   6974     1   0.10961 277566.560000
   6976   6982     1   0.09730 310787.520000
   6977   6980     1   0.09730 310787.520000
   6978   6981     1   0.09730 310787.520000
   6979   6983     1   0.10969 276646.080000
   6979   6984     1   0.10969 276646.080000
   6985   6986     1   0.09730 310787.520000
   6988   6990     1   0.10969 276646.080000
   6989   6991     1   0.10969 276646.080000
   6992   6996     1   0.10969 276646.080000
   6993   6995     1   0.10969 276646.080000
   6994   6997     1   0.10961 277566.560000
   6999   7005     1   0.09730 310787.520000
   7000   7003     1   0.09730 310787.520000
   7001   7004     1   0.09730 310787.520000
   7002   7006     1   0.10969 276646.080000
   7002   7007     1   0.10969 276646.080000
   7008   7009     1   0.09730 310787.520000
   7011   7013     1   0.10969 276646.080000
   7012   7014     1   0.10969 276646.080000
   7015   7019     1   0.10969 276646.080000
   7016   7018     1   0.10969 276646.080000
   7017   7020     1   0.10961 277566.560000
   7022   7028     1   0.09730 310787.520000
   7023   7026     1   0.09730 310787.520000
   7024   7027     1   0.09730 310787.520000
   7025   7029     1   0.10969 276646.080000
   7025   7030     1   0.10969 276646.080000
   7031   7032     1   0.09730 310787.520000
   7034   7036     1   0.10969 276646.080000
   7035   7037     1   0.10969 276646.080000
   7038   7042     1   0.10969 276646.080000
   7039   7041     1   0.10969 276646.080000
   7040   7043     1   0.10961 277566.560000
   7045   7051     1   0.09730 310787.520000
   7046   7049     1   0.09730 310787.520000
   7047   7050     1   0.09730 310787.520000
   7048   7052     1   0.10969 276646.080000
   7048   7053     1   0.10969 276646.080000
   7054   7055     1   0.09730 310787.520000
   7057   7059     1   0.10969 276646.080000
   7058   7060     1   0.10969 276646.080000
   7061   7065     1   0.10969 276646.080000
   7062   7064     1   0.10969 276646.080000
   7063   7066     1   0.10961 277566.560000
   7068   7074     1   0.09730 310787.520000
   7069   7072     1   0.09730 310787.520000
   7070   7073     1   0.09730 310787.520000
   7071   7075     1   0.10969 276646.080000
   7071   7076     1   0.10969 276646.080000
   7077   7078     1   0.09730 310787.520000
   7080   7082     1   0.10969 276646.080000
   7081   7083     1   0.10969 276646.080000
   7084   7088     1   0.10969 276646.080000
   7085   7087     1   0.10969 276646.080000
   7086   7089     1   0.10961 277566.560000
   7091   7097     1   0.09730 310787.520000
   7092   7095     1   0.09730 310787.520000
   7093   7096     1   0.09730 310787.520000
   7094   7098     1   0.10969 276646.080000
   7094   7099     1   0.10969 276646.080000
   7100   7101     1   0.09730 310787.520000
   7103   7105     1   0.10969 276646.080000
   7104   7106     1   0.10969 276646.080000
   7107   7111     1   0.10969 276646.080000
   7108   7110     1   0.10969 276646.080000
   7109   7112     1   0.10961 277566.560000
   7114   7120     1   0.09730 310787.520000
   7115   7118     1   0.09730 310787.520000
   7116   7119     1   0.09730 310787.520000
   7117   7121     1   0.10969 276646.080000
   7117   7122     1   0.10969 276646.080000
   7123   7124     1   0.09730 310787.520000
   7126   7128     1   0.10969 276646.080000
   7127   7129     1   0.10969 276646.080000
   7130   7134     1   0.10969 276646.080000
   7131   7133     1   0.10969 276646.080000
   7132   7135     1   0.10961 277566.560000
   7137   7143     1   0.09730 310787.520000
   7138   7141     1   0.09730 310787.520000
   7139   7142     1   0.09730 310787.520000
   7140   7144     1   0.10969 276646.080000
   7140   7145     1   0.10969 276646.080000
   7146   7147     1   0.09730 310787.520000
   7149   7151     1   0.10969 276646.080000
   7150   7152     1   0.10969 276646.080000
   7153   7157     1   0.10969 276646.080000
   7154   7156     1   0.10969 276646.080000
   7155   7158     1   0.10961 277566.560000
   7160   7166     1   0.09730 310787.520000
   7161   7164     1   0.09730 310787.520000
   7162   7165     1   0.09730 310787.520000
   7163   7167     1   0.10969 276646.080000
   7163   7168     1   0.10969 276646.080000
   7169   7170     1   0.09730 310787.520000
   7172   7174     1   0.10969 276646.080000
   7173   7175     1   0.10969 276646.080000
   7176   7180     1   0.10969 276646.080000
   7177   7179     1   0.10969 276646.080000
   7178   7181     1   0.10961 277566.560000
   7183   7189     1   0.09730 310787.520000
   7184   7187     1   0.09730 310787.520000
   7185   7188     1   0.09730 310787.520000
   7186   7190     1   0.10969 276646.080000
   7186   7191     1   0.10969 276646.080000
   7192   7193     1   0.09730 310787.520000
   7195   7197     1   0.10969 276646.080000
   7196   7198     1   0.10969 276646.080000
   7199   7203     1   0.10969 276646.080000
   7200   7202     1   0.10969 276646.080000
   7201   7204     1   0.10961 277566.560000
   7206   7212     1   0.09730 310787.520000
   7207   7210     1   0.09730 310787.520000
   7208   7211     1   0.09730 310787.520000
   7209   7213     1   0.10969 276646.080000
   7209   7214     1   0.10969 276646.080000
   7215   7216     1   0.09730 310787.520000
   7218   7220     1   0.10969 276646.080000
   7219   7221     1   0.10969 276646.080000
   7222   7226     1   0.10969 276646.080000
   7223   7225     1   0.10969 276646.080000
   7224   7227     1   0.10961 277566.560000
   7229   7235     1   0.09730 310787.520000
   7230   7233     1   0.09730 310787.520000
   7231   7234     1   0.09730 310787.520000
   7232   7236     1   0.10969 276646.080000
   7232   7237     1   0.10969 276646.080000
   7238   7239     1   0.09730 310787.520000
   7241   7243     1   0.10969 276646.080000
   7242   7244     1   0.10969 276646.080000
   7245   7249     1   0.10969 276646.080000
   7246   7248     1   0.10969 276646.080000
   7247   7250     1   0.10961 277566.560000
   7252   7258     1   0.09730 310787.520000
   7253   7256     1   0.09730 310787.520000
   7254   7257     1   0.09730 310787.520000
   7255   7259     1   0.10969 276646.080000
   7255   7260     1   0.10969 276646.080000
   7261   7262     1   0.09730 310787.520000
   7264   7266     1   0.10969 276646.080000
   7265   7267     1   0.10969 276646.080000
   7268   7272     1   0.10969 276646.080000
   7269   7271     1   0.10969 276646.080000
   7270   7273     1   0.10961 277566.560000
   7275   7281     1   0.09730 310787.520000
   7276   7279     1   0.09730 310787.520000
   7277   7280     1   0.09730 310787.520000
   7278   7282     1   0.10969 276646.080000
   7278   7283     1   0.10969 276646.080000
   7284   7285     1   0.09730 310787.520000
   7287   7289     1   0.10969 276646.080000
   7288   7290     1   0.10969 276646.080000
   7291   7295     1   0.10969 276646.080000
   7292   7294     1   0.10969 276646.080000
   7293   7296     1   0.10961 277566.560000
   7298   7304     1   0.09730 310787.520000
   7299   7302     1   0.09730 310787.520000
   7300   7303     1   0.09730 310787.520000
   7301   7305     1   0.10969 276646.080000
   7301   7306     1   0.10969 276646.080000
   7307   7308     1   0.09730 310787.520000
   7310   7312     1   0.10969 276646.080000
   7311   7313     1   0.10969 276646.080000
   7314   7318     1   0.10969 276646.080000
   7315   7317     1   0.10969 276646.080000
   7316   7319     1   0.10961 277566.560000
   7321   7327     1   0.09730 310787.520000
   7322   7325     1   0.09730 310787.520000
   7323   7326     1   0.09730 310787.520000
   7324   7328     1   0.10969 276646.080000
   7324   7329     1   0.10969 276646.080000
   7330   7331     1   0.09730 310787.520000
   7333   7335     1   0.10969 276646.080000
   7334   7336     1   0.10969 276646.080000
   7337   7341     1   0.10969 276646.080000
   7338   7340     1   0.10969 276646.080000
   7339   7342     1   0.10961 277566.560000
   7344   7350     1   0.09730 310787.520000
   7345   7348     1   0.09730 310787.520000
   7346   7349     1   0.09730 310787.520000
   7347   7351     1   0.10969 276646.080000
   7347   7352     1   0.10969 276646.080000
   7353   7354     1   0.09730 310787.520000
   7356   7358     1   0.10969 276646.080000
   7357   7359     1   0.10969 276646.080000
   7360   7364     1   0.10969 276646.080000
   7361   7363     1   0.10969 276646.080000
   7362   7365     1   0.10961 277566.560000
   7367   7373     1   0.09730 310787.520000
   7368   7371     1   0.09730 310787.520000
   7369   7372     1   0.09730 310787.520000
   7370   7374     1   0.10969 276646.080000
   7370   7375     1   0.10969 276646.080000
   7376   7377     1   0.09730 310787.520000
   7379   7381     1   0.10969 276646.080000
   7380   7382     1   0.10969 276646.080000
   7383   7387     1   0.10969 276646.080000
   7384   7386     1   0.10969 276646.080000
   7385   7388     1   0.10961 277566.560000
   7390   7396     1   0.09730 310787.520000
   7391   7394     1   0.09730 310787.520000
   7392   7395     1   0.09730 310787.520000
   7393   7397     1   0.10969 276646.080000
   7393   7398     1   0.10969 276646.080000
   7399   7400     1   0.09730 310787.520000
   7402   7404     1   0.10969 276646.080000
   7403   7405     1   0.10969 276646.080000
   7406   7410     1   0.10969 276646.080000
   7407   7409     1   0.10969 276646.080000
   7408   7411     1   0.10961 277566.560000
   7413   7419     1   0.09730 310787.520000
   7414   7417     1   0.09730 310787.520000
   7415   7418     1   0.09730 310787.520000
   7416   7420     1   0.10969 276646.080000
   7416   7421     1   0.10969 276646.080000
   7422   7423     1   0.09730 310787.520000
   7425   7427     1   0.10969 276646.080000
   7426   7428     1   0.10969 276646.080000
   7429   7433     1   0.10969 276646.080000
   7430   7432     1   0.10969 276646.080000
   7431   7434     1   0.10961 277566.560000
   7436   7442     1   0.09730 310787.520000
   7437   7440     1   0.09730 310787.520000
   7438   7441     1   0.09730 310787.520000
   7439   7443     1   0.10969 276646.080000
   7439   7444     1   0.10969 276646.080000
   7445   7446     1   0.09730 310787.520000
   7448   7450     1   0.10969 276646.080000
   7449   7451     1   0.10969 276646.080000
   7452   7456     1   0.10969 276646.080000
   7453   7455     1   0.10969 276646.080000
   7454   7457     1   0.10961 277566.560000
   7459   7465     1   0.09730 310787.520000
   7460   7463     1   0.09730 310787.520000
   7461   7464     1   0.09730 310787.520000
   7462   7466     1   0.10969 276646.080000
   7462   7467     1   0.10969 276646.080000
   7468   7469     1   0.09730 310787.520000
   7471   7473     1   0.10969 276646.080000
   7472   7474     1   0.10969 276646.080000
   7475   7479     1   0.10969 276646.080000
   7476   7478     1   0.10969 276646.080000
   7477   7480     1   0.10961 277566.560000
   7482   7488     1   0.09730 310787.520000
   7483   7486     1   0.09730 310787.520000
   7484   7487     1   0.09730 310787.520000
   7485   7489     1   0.10969 276646.080000
   7485   7490     1   0.10969 276646.080000
   7491   7492     1   0.09730 310787.520000
   7494   7496     1   0.10969 276646.080000
   7495   7497     1   0.10969 276646.080000
   7498   7502     1   0.10969 276646.080000
   7499   7501     1   0.10969 276646.080000
   7500   7503     1   0.10961 277566.560000
   7505   7511     1   0.09730 310787.520000
   7506   7509     1   0.09730 310787.520000
   7507   7510     1   0.09730 310787.520000
   7508   7512     1   0.10969 276646.080000
   7508   7513     1   0.10969 276646.080000
   7514   7515     1   0.09730 310787.520000
   7517   7519     1   0.10969 276646.080000
   7518   7520     1   0.10969 276646.080000
   7521   7525     1   0.10969 276646.080000
   7522   7524     1   0.10969 276646.080000
   7523   7526     1   0.10961 277566.560000
   7528   7534     1   0.09730 310787.520000
   7529   7532     1   0.09730 310787.520000
   7530   7533     1   0.09730 310787.520000
   7531   7535     1   0.10969 276646.080000
   7531   7536     1   0.10969 276646.080000
   7537   7538     1   0.09730 310787.520000
   7540   7542     1   0.10969 276646.080000
   7541   7543     1   0.10969 276646.080000
   7544   7548     1   0.10969 276646.080000
   7545   7547     1   0.10969 276646.080000
   7546   7549     1   0.10961 277566.560000
   7551   7557     1   0.09730 310787.520000
   7552   7555     1   0.09730 310787.520000
   7553   7556     1   0.09730 310787.520000
   7554   7558     1   0.10969 276646.080000
   7554   7559     1   0.10969 276646.080000
   7560   7561     1   0.09730 310787.520000
   7563   7565     1   0.10969 276646.080000
   7564   7566     1   0.10969 276646.080000
   7567   7571     1   0.10969 276646.080000
   7568   7570     1   0.10969 276646.080000
   7569   7572     1   0.10961 277566.560000
   7574   7580     1   0.09730 310787.520000
   7575   7578     1   0.09730 310787.520000
   7576   7579     1   0.09730 310787.520000
   7577   7581     1   0.10969 276646.080000
   7577   7582     1   0.10969 276646.080000
   7583   7584     1   0.09730 310787.520000
   7586   7588     1   0.10969 276646.080000
   7587   7589     1   0.10969 276646.080000
   7590   7594     1   0.10969 276646.080000
   7591   7593     1   0.10969 276646.080000
   7592   7595     1   0.10961 277566.560000
   7597   7603     1   0.09730 310787.520000
   7598   7601     1   0.09730 310787.520000
   7599   7602     1   0.09730 310787.520000
   7600   7604     1   0.10969 276646.080000
   7600   7605     1   0.10969 276646.080000
   7606   7607     1   0.09730 310787.520000
   7609   7611     1   0.10969 276646.080000
   7610   7612     1   0.10969 276646.080000
   7613   7617     1   0.10969 276646.080000
   7614   7616     1   0.10969 276646.080000
   7615   7618     1   0.10961 277566.560000
   7620   7626     1   0.09730 310787.520000
   7621   7624     1   0.09730 310787.520000
   7622   7625     1   0.09730 310787.520000
   7623   7627     1   0.10969 276646.080000
   7623   7628     1   0.10969 276646.080000
   7629   7630     1   0.09730 310787.520000
   7632   7634     1   0.10969 276646.080000
   7633   7635     1   0.10969 276646.080000
   7636   7640     1   0.10969 276646.080000
   7637   7639     1   0.10969 276646.080000
   7638   7641     1   0.10961 277566.560000
   7643   7649     1   0.09730 310787.520000
   7644   7647     1   0.09730 310787.520000
   7645   7648     1   0.09730 310787.520000
   7646   7650     1   0.10969 276646.080000
   7646   7651     1   0.10969 276646.080000
   7652   7653     1   0.09730 310787.520000
   7655   7657     1   0.10969 276646.080000
   7656   7658     1   0.10969 276646.080000
   7659   7663     1   0.10969 276646.080000
   7660   7662     1   0.10969 276646.080000
   7661   7664     1   0.10961 277566.560000
   7666   7672     1   0.09730 310787.520000
   7667   7670     1   0.09730 310787.520000
   7668   7671     1   0.09730 310787.520000
   7669   7673     1   0.10969 276646.080000
   7669   7674     1   0.10969 276646.080000
   7675   7676     1   0.09730 310787.520000
   7678   7680     1   0.10969 276646.080000
   7679   7681     1   0.10969 276646.080000
   7682   7686     1   0.10969 276646.080000
   7683   7685     1   0.10969 276646.080000
   7684   7687     1   0.10961 277566.560000
   7689   7695     1   0.09730 310787.520000
   7690   7693     1   0.09730 310787.520000
   7691   7694     1   0.09730 310787.520000
   7692   7696     1   0.10969 276646.080000
   7692   7697     1   0.10969 276646.080000
   7698   7699     1   0.09730 310787.520000
   7701   7703     1   0.10969 276646.080000
   7702   7704     1   0.10969 276646.080000
   7705   7709     1   0.10969 276646.080000
   7706   7708     1   0.10969 276646.080000
   7707   7710     1   0.10961 277566.560000
   7712   7718     1   0.09730 310787.520000
   7713   7716     1   0.09730 310787.520000
   7714   7717     1   0.09730 310787.520000
   7715   7719     1   0.10969 276646.080000
   7715   7720     1   0.10969 276646.080000
   7721   7722     1   0.09730 310787.520000
   7724   7726     1   0.10969 276646.080000
   7725   7727     1   0.10969 276646.080000
   7728   7732     1   0.10969 276646.080000
   7729   7731     1   0.10969 276646.080000
   7730   7733     1   0.10961 277566.560000
   7735   7741     1   0.09730 310787.520000
   7736   7739     1   0.09730 310787.520000
   7737   7740     1   0.09730 310787.520000
   7738   7742     1   0.10969 276646.080000
   7738   7743     1   0.10969 276646.080000
   7744   7745     1   0.09730 310787.520000
   7747   7749     1   0.10969 276646.080000
   7748   7750     1   0.10969 276646.080000
   7751   7755     1   0.10969 276646.080000
   7752   7754     1   0.10969 276646.080000
   7753   7756     1   0.10961 277566.560000
   7758   7764     1   0.09730 310787.520000
   7759   7762     1   0.09730 310787.520000
   7760   7763     1   0.09730 310787.520000
   7761   7765     1   0.10969 276646.080000
   7761   7766     1   0.10969 276646.080000
   7767   7768     1   0.09730 310787.520000
   7770   7772     1   0.10969 276646.080000
   7771   7773     1   0.10969 276646.080000
   7774   7778     1   0.10969 276646.080000
   7775   7777     1   0.10969 276646.080000
   7776   7779     1   0.10961 277566.560000
   7781   7787     1   0.09730 310787.520000
   7782   7785     1   0.09730 310787.520000
   7783   7786     1   0.09730 310787.520000
   7784   7788     1   0.10969 276646.080000
   7784   7789     1   0.10969 276646.080000
   7790   7791     1   0.09730 310787.520000
   7793   7795     1   0.10969 276646.080000
   7794   7796     1   0.10969 276646.080000
   7797   7801     1   0.10969 276646.080000
   7798   7800     1   0.10969 276646.080000
   7799   7802     1   0.10961 277566.560000
   7804   7810     1   0.09730 310787.520000
   7805   7808     1   0.09730 310787.520000
   7806   7809     1   0.09730 310787.520000
   7807   7811     1   0.10969 276646.080000
   7807   7812     1   0.10969 276646.080000
   7813   7814     1   0.09730 310787.520000
   7816   7818     1   0.10969 276646.080000
   7817   7819     1   0.10969 276646.080000
   7820   7824     1   0.10969 276646.080000
   7821   7823     1   0.10969 276646.080000
   7822   7825     1   0.10961 277566.560000
   7827   7833     1   0.09730 310787.520000
   7828   7831     1   0.09730 310787.520000
   7829   7832     1   0.09730 310787.520000
   7830   7834     1   0.10969 276646.080000
   7830   7835     1   0.10969 276646.080000
   7836   7837     1   0.09730 310787.520000
   7839   7841     1   0.10969 276646.080000
   7840   7842     1   0.10969 276646.080000
   7843   7847     1   0.10969 276646.080000
   7844   7846     1   0.10969 276646.080000
   7845   7848     1   0.10961 277566.560000
   7850   7856     1   0.09730 310787.520000
   7851   7854     1   0.09730 310787.520000
   7852   7855     1   0.09730 310787.520000
   7853   7857     1   0.10969 276646.080000
   7853   7858     1   0.10969 276646.080000
   7859   7860     1   0.09730 310787.520000
   7862   7864     1   0.10969 276646.080000
   7863   7865     1   0.10969 276646.080000
   7866   7870     1   0.10969 276646.080000
   7867   7869     1   0.10969 276646.080000
   7868   7871     1   0.10961 277566.560000
   7873   7879     1   0.09730 310787.520000
   7874   7877     1   0.09730 310787.520000
   7875   7878     1   0.09730 310787.520000
   7876   7880     1   0.10969 276646.080000
   7876   7881     1   0.10969 276646.080000
   7882   7883     1   0.09730 310787.520000
   7885   7887     1   0.10969 276646.080000
   7886   7888     1   0.10969 276646.080000
   7889   7893     1   0.10969 276646.080000
   7890   7892     1   0.10969 276646.080000
   7891   7894     1   0.10961 277566.560000
   7896   7902     1   0.09730 310787.520000
   7897   7900     1   0.09730 310787.520000
   7898   7901     1   0.09730 310787.520000
   7899   7903     1   0.10969 276646.080000
   7899   7904     1   0.10969 276646.080000
   7905   7906     1   0.09730 310787.520000
   7908   7910     1   0.10969 276646.080000
   7909   7911     1   0.10969 276646.080000
   7912   7916     1   0.10969 276646.080000
   7913   7915     1   0.10969 276646.080000
   7914   7917     1   0.10961 277566.560000
   7919   7925     1   0.09730 310787.520000
   7920   7923     1   0.09730 310787.520000
   7921   7924     1   0.09730 310787.520000
   7922   7926     1   0.10969 276646.080000
   7922   7927     1   0.10969 276646.080000
   7928   7929     1   0.09730 310787.520000
   7931   7933     1   0.10969 276646.080000
   7932   7934     1   0.10969 276646.080000
   7935   7939     1   0.10969 276646.080000
   7936   7938     1   0.10969 276646.080000
   7937   7940     1   0.10961 277566.560000
   7942   7948     1   0.09730 310787.520000
   7943   7946     1   0.09730 310787.520000
   7944   7947     1   0.09730 310787.520000
   7945   7949     1   0.10969 276646.080000
   7945   7950     1   0.10969 276646.080000
   7951   7952     1   0.09730 310787.520000
   7954   7956     1   0.10969 276646.080000
   7955   7957     1   0.10969 276646.080000
   7958   7962     1   0.10969 276646.080000
   7959   7961     1   0.10969 276646.080000
   7960   7963     1   0.10961 277566.560000
   7965   7971     1   0.09730 310787.520000
   7966   7969     1   0.09730 310787.520000
   7967   7970     1   0.09730 310787.520000
   7968   7972     1   0.10969 276646.080000
   7968   7973     1   0.10969 276646.080000
   7974   7975     1   0.09730 310787.520000
   7977   7979     1   0.10969 276646.080000
   7978   7980     1   0.10969 276646.080000
   7981   7985     1   0.10969 276646.080000
   7982   7984     1   0.10969 276646.080000
   7983   7986     1   0.10961 277566.560000
   7988   7994     1   0.09730 310787.520000
   7989   7992     1   0.09730 310787.520000
   7990   7993     1   0.09730 310787.520000
   7991   7995     1   0.10969 276646.080000
   7991   7996     1   0.10969 276646.080000
   7997   7998     1   0.09730 310787.520000
   8000   8002     1   0.10969 276646.080000
   8001   8003     1   0.10969 276646.080000
   8004   8008     1   0.10969 276646.080000
   8005   8007     1   0.10969 276646.080000
   8006   8009     1   0.10961 277566.560000
   8011   8017     1   0.09730 310787.520000
   8012   8015     1   0.09730 310787.520000
   8013   8016     1   0.09730 310787.520000
   8014   8018     1   0.10969 276646.080000
   8014   8019     1   0.10969 276646.080000
   8020   8021     1   0.09730 310787.520000
   8023   8025     1   0.10969 276646.080000
   8024   8026     1   0.10969 276646.080000
   8027   8031     1   0.10969 276646.080000
   8028   8030     1   0.10969 276646.080000
   8029   8032     1   0.10961 277566.560000
   8034   8040     1   0.09730 310787.520000
   8035   8038     1   0.09730 310787.520000
   8036   8039     1   0.09730 310787.520000
   8037   8041     1   0.10969 276646.080000
   8037   8042     1   0.10969 276646.080000
   8043   8044     1   0.09730 310787.520000
   8046   8048     1   0.10969 276646.080000
   8047   8049     1   0.10969 276646.080000
   8050   8054     1   0.10969 276646.080000
   8051   8053     1   0.10969 276646.080000
   8052   8055     1   0.10961 277566.560000
   8057   8063     1   0.09730 310787.520000
   8058   8061     1   0.09730 310787.520000
   8059   8062     1   0.09730 310787.520000
   8060   8064     1   0.10969 276646.080000
   8060   8065     1   0.10969 276646.080000
   8066   8067     1   0.09730 310787.520000
   8069   8071     1   0.10969 276646.080000
   8070   8072     1   0.10969 276646.080000
   8073   8077     1   0.10969 276646.080000
   8074   8076     1   0.10969 276646.080000
   8075   8078     1   0.10961 277566.560000
   8080   8086     1   0.09730 310787.520000
   8081   8084     1   0.09730 310787.520000
   8082   8085     1   0.09730 310787.520000
   8083   8087     1   0.10969 276646.080000
   8083   8088     1   0.10969 276646.080000
   8089   8090     1   0.09730 310787.520000
   8092   8094     1   0.10969 276646.080000
   8093   8095     1   0.10969 276646.080000
   8096   8100     1   0.10969 276646.080000
   8097   8099     1   0.10969 276646.080000
   8098   8101     1   0.10961 277566.560000
   8103   8109     1   0.09730 310787.520000
   8104   8107     1   0.09730 310787.520000
   8105   8108     1   0.09730 310787.520000
   8106   8110     1   0.10969 276646.080000
   8106   8111     1   0.10969 276646.080000
   8112   8113     1   0.09730 310787.520000
   8115   8117     1   0.10969 276646.080000
   8116   8118     1   0.10969 276646.080000
   8119   8123     1   0.10969 276646.080000
   8120   8122     1   0.10969 276646.080000
   8121   8124     1   0.10961 277566.560000
   8126   8132     1   0.09730 310787.520000
   8127   8130     1   0.09730 310787.520000
   8128   8131     1   0.09730 310787.520000
   8129   8133     1   0.10969 276646.080000
   8129   8134     1   0.10969 276646.080000
   8135   8136     1   0.09730 310787.520000
   8138   8140     1   0.10969 276646.080000
   8139   8141     1   0.10969 276646.080000
   8142   8146     1   0.10969 276646.080000
   8143   8145     1   0.10969 276646.080000
   8144   8147     1   0.10961 277566.560000
   8149   8155     1   0.09730 310787.520000
   8150   8153     1   0.09730 310787.520000
   8151   8154     1   0.09730 310787.520000
   8152   8156     1   0.10969 276646.080000
   8152   8157     1   0.10969 276646.080000
   8158   8159     1   0.09730 310787.520000
   8161   8163     1   0.10969 276646.080000
   8162   8164     1   0.10969 276646.080000
   8165   8169     1   0.10969 276646.080000
   8166   8168     1   0.10969 276646.080000
   8167   8170     1   0.10961 277566.560000
   8172   8178     1   0.09730 310787.520000
   8173   8176     1   0.09730 310787.520000
   8174   8177     1   0.09730 310787.520000
   8175   8179     1   0.10969 276646.080000
   8175   8180     1   0.10969 276646.080000
   8181   8182     1   0.09730 310787.520000
   8184   8186     1   0.10969 276646.080000
   8185   8187     1   0.10969 276646.080000
   8188   8192     1   0.10969 276646.080000
   8189   8191     1   0.10969 276646.080000
   8190   8193     1   0.10961 277566.560000
   8195   8201     1   0.09730 310787.520000
   8196   8199     1   0.09730 310787.520000
   8197   8200     1   0.09730 310787.520000
   8198   8202     1   0.10969 276646.080000
   8198   8203     1   0.10969 276646.080000
   8204   8205     1   0.09730 310787.520000
   8207   8209     1   0.10969 276646.080000
   8208   8210     1   0.10969 276646.080000
   8211   8215     1   0.10969 276646.080000
   8212   8214     1   0.10969 276646.080000
   8213   8216     1   0.10961 277566.560000
   8218   8224     1   0.09730 310787.520000
   8219   8222     1   0.09730 310787.520000
   8220   8223     1   0.09730 310787.520000
   8221   8225     1   0.10969 276646.080000
   8221   8226     1   0.10969 276646.080000
   8227   8228     1   0.09730 310787.520000
   8230   8232     1   0.10969 276646.080000
   8231   8233     1   0.10969 276646.080000
   8234   8238     1   0.10969 276646.080000
   8235   8237     1   0.10969 276646.080000
   8236   8239     1   0.10961 277566.560000
   8241   8247     1   0.09730 310787.520000
   8242   8245     1   0.09730 310787.520000
   8243   8246     1   0.09730 310787.520000
   8244   8248     1   0.10969 276646.080000
   8244   8249     1   0.10969 276646.080000
   8250   8251     1   0.09730 310787.520000
   8253   8255     1   0.10969 276646.080000
   8254   8256     1   0.10969 276646.080000
   8257   8261     1   0.10969 276646.080000
   8258   8260     1   0.10969 276646.080000
   8259   8262     1   0.10961 277566.560000
   8264   8270     1   0.09730 310787.520000
   8265   8268     1   0.09730 310787.520000
   8266   8269     1   0.09730 310787.520000
   8267   8271     1   0.10969 276646.080000
   8267   8272     1   0.10969 276646.080000
   8273   8274     1   0.09730 310787.520000
   8276   8278     1   0.10969 276646.080000
   8277   8279     1   0.10969 276646.080000
   8280   8284     1   0.10969 276646.080000
   8281   8283     1   0.10969 276646.080000
   8282   8285     1   0.10961 277566.560000
   8287   8293     1   0.09730 310787.520000
   8288   8291     1   0.09730 310787.520000
   8289   8292     1   0.09730 310787.520000
   8290   8294     1   0.10969 276646.080000
   8290   8295     1   0.10969 276646.080000
   8296   8297     1   0.09730 310787.520000
   8299   8301     1   0.10969 276646.080000
   8300   8302     1   0.10969 276646.080000
   8303   8307     1   0.10969 276646.080000
   8304   8306     1   0.10969 276646.080000
   8305   8308     1   0.10961 277566.560000
   8310   8316     1   0.09730 310787.520000
   8311   8314     1   0.09730 310787.520000
   8312   8315     1   0.09730 310787.520000
   8313   8317     1   0.10969 276646.080000
   8313   8318     1   0.10969 276646.080000
   8319   8320     1   0.09730 310787.520000
   8322   8324     1   0.10969 276646.080000
   8323   8325     1   0.10969 276646.080000
   8326   8330     1   0.10969 276646.080000
   8327   8329     1   0.10969 276646.080000
   8328   8331     1   0.10961 277566.560000
   8333   8339     1   0.09730 310787.520000
   8334   8337     1   0.09730 310787.520000
   8335   8338     1   0.09730 310787.520000
   8336   8340     1   0.10969 276646.080000
   8336   8341     1   0.10969 276646.080000
   8342   8343     1   0.09730 310787.520000
   8345   8347     1   0.10969 276646.080000
   8346   8348     1   0.10969 276646.080000
   8349   8353     1   0.10969 276646.080000
   8350   8352     1   0.10969 276646.080000
   8351   8354     1   0.10961 277566.560000
   8356   8362     1   0.09730 310787.520000
   8357   8360     1   0.09730 310787.520000
   8358   8361     1   0.09730 310787.520000
   8359   8363     1   0.10969 276646.080000
   8359   8364     1   0.10969 276646.080000
   8365   8366     1   0.09730 310787.520000
   8368   8370     1   0.10969 276646.080000
   8369   8371     1   0.10969 276646.080000
   8372   8376     1   0.10969 276646.080000
   8373   8375     1   0.10969 276646.080000
   8374   8377     1   0.10961 277566.560000
   8379   8385     1   0.09730 310787.520000
   8380   8383     1   0.09730 310787.520000
   8381   8384     1   0.09730 310787.520000
   8382   8386     1   0.10969 276646.080000
   8382   8387     1   0.10969 276646.080000
   8388   8389     1   0.09730 310787.520000
   8391   8393     1   0.10969 276646.080000
   8392   8394     1   0.10969 276646.080000
   8395   8399     1   0.10969 276646.080000
   8396   8398     1   0.10969 276646.080000
   8397   8400     1   0.10961 277566.560000
   8402   8408     1   0.09730 310787.520000
   8403   8406     1   0.09730 310787.520000
   8404   8407     1   0.09730 310787.520000
   8405   8409     1   0.10969 276646.080000
   8405   8410     1   0.10969 276646.080000
   8411   8412     1   0.09730 310787.520000
   8414   8416     1   0.10969 276646.080000
   8415   8417     1   0.10969 276646.080000
   8418   8422     1   0.10969 276646.080000
   8419   8421     1   0.10969 276646.080000
   8420   8423     1   0.10961 277566.560000
   8425   8431     1   0.09730 310787.520000
   8426   8429     1   0.09730 310787.520000
   8427   8430     1   0.09730 310787.520000
   8428   8432     1   0.10969 276646.080000
   8428   8433     1   0.10969 276646.080000
   8434   8435     1   0.09730 310787.520000
   8437   8439     1   0.10969 276646.080000
   8438   8440     1   0.10969 276646.080000
   8441   8445     1   0.10969 276646.080000
   8442   8444     1   0.10969 276646.080000
   8443   8446     1   0.10961 277566.560000
   8448   8454     1   0.09730 310787.520000
   8449   8452     1   0.09730 310787.520000
   8450   8453     1   0.09730 310787.520000
   8451   8455     1   0.10969 276646.080000
   8451   8456     1   0.10969 276646.080000
   8457   8458     1   0.09730 310787.520000
   8460   8462     1   0.10969 276646.080000
   8461   8463     1   0.10969 276646.080000
   8464   8468     1   0.10969 276646.080000
   8465   8467     1   0.10969 276646.080000
   8466   8469     1   0.10961 277566.560000
   8471   8477     1   0.09730 310787.520000
   8472   8475     1   0.09730 310787.520000
   8473   8476     1   0.09730 310787.520000
   8474   8478     1   0.10969 276646.080000
   8474   8479     1   0.10969 276646.080000
   8480   8481     1   0.09730 310787.520000
   8483   8485     1   0.10969 276646.080000
   8484   8486     1   0.10969 276646.080000
   8487   8491     1   0.10969 276646.080000
   8488   8490     1   0.10969 276646.080000
   8489   8492     1   0.10961 277566.560000
   8494   8500     1   0.09730 310787.520000
   8495   8498     1   0.09730 310787.520000
   8496   8499     1   0.09730 310787.520000
   8497   8501     1   0.10969 276646.080000
   8497   8502     1   0.10969 276646.080000
   8503   8504     1   0.09730 310787.520000
   8506   8508     1   0.10969 276646.080000
   8507   8509     1   0.10969 276646.080000
   8510   8514     1   0.10969 276646.080000
   8511   8513     1   0.10969 276646.080000
   8512   8515     1   0.10961 277566.560000
   8517   8523     1   0.09730 310787.520000
   8518   8521     1   0.09730 310787.520000
   8519   8522     1   0.09730 310787.520000
   8520   8524     1   0.10969 276646.080000
   8520   8525     1   0.10969 276646.080000
   8526   8527     1   0.09730 310787.520000
   8529   8531     1   0.10969 276646.080000
   8530   8532     1   0.10969 276646.080000
   8533   8537     1   0.10969 276646.080000
   8534   8536     1   0.10969 276646.080000
   8535   8538     1   0.10961 277566.560000
   8540   8546     1   0.09730 310787.520000
   8541   8544     1   0.09730 310787.520000
   8542   8545     1   0.09730 310787.520000
   8543   8547     1   0.10969 276646.080000
   8543   8548     1   0.10969 276646.080000
   8549   8550     1   0.09730 310787.520000
   8552   8554     1   0.10969 276646.080000
   8553   8555     1   0.10969 276646.080000
   8556   8560     1   0.10969 276646.080000
   8557   8559     1   0.10969 276646.080000
   8558   8561     1   0.10961 277566.560000
   8563   8569     1   0.09730 310787.520000
   8564   8567     1   0.09730 310787.520000
   8565   8568     1   0.09730 310787.520000
   8566   8570     1   0.10969 276646.080000
   8566   8571     1   0.10969 276646.080000
   8572   8573     1   0.09730 310787.520000
   8575   8577     1   0.10969 276646.080000
   8576   8578     1   0.10969 276646.080000
   8579   8583     1   0.10969 276646.080000
   8580   8582     1   0.10969 276646.080000
   8581   8584     1   0.10961 277566.560000
   8586   8592     1   0.09730 310787.520000
   8587   8590     1   0.09730 310787.520000
   8588   8591     1   0.09730 310787.520000
   8589   8593     1   0.10969 276646.080000
   8589   8594     1   0.10969 276646.080000
   8595   8596     1   0.09730 310787.520000
   8598   8600     1   0.10969 276646.080000
   8599   8601     1   0.10969 276646.080000
   8602   8606     1   0.10969 276646.080000
   8603   8605     1   0.10969 276646.080000
   8604   8607     1   0.10961 277566.560000
   8609   8615     1   0.09730 310787.520000
   8610   8613     1   0.09730 310787.520000
   8611   8614     1   0.09730 310787.520000
   8612   8616     1   0.10969 276646.080000
   8612   8617     1   0.10969 276646.080000
   8618   8619     1   0.09730 310787.520000
   8621   8623     1   0.10969 276646.080000
   8622   8624     1   0.10969 276646.080000
   8625   8629     1   0.10969 276646.080000
   8626   8628     1   0.10969 276646.080000
   8627   8630     1   0.10961 277566.560000
   8632   8638     1   0.09730 310787.520000
   8633   8636     1   0.09730 310787.520000
   8634   8637     1   0.09730 310787.520000
   8635   8639     1   0.10969 276646.080000
   8635   8640     1   0.10969 276646.080000
   8641   8642     1   0.09730 310787.520000
   8644   8646     1   0.10969 276646.080000
   8645   8647     1   0.10969 276646.080000
   8648   8652     1   0.10969 276646.080000
   8649   8651     1   0.10969 276646.080000
   8650   8653     1   0.10961 277566.560000
   8655   8661     1   0.09730 310787.520000
   8656   8659     1   0.09730 310787.520000
   8657   8660     1   0.09730 310787.520000
   8658   8662     1   0.10969 276646.080000
   8658   8663     1   0.10969 276646.080000
   8664   8665     1   0.09730 310787.520000
   8667   8669     1   0.10969 276646.080000
   8668   8670     1   0.10969 276646.080000
   8671   8675     1   0.10969 276646.080000
   8672   8674     1   0.10969 276646.080000
   8673   8676     1   0.10961 277566.560000
   8678   8684     1   0.09730 310787.520000
   8679   8682     1   0.09730 310787.520000
   8680   8683     1   0.09730 310787.520000
   8681   8685     1   0.10969 276646.080000
   8681   8686     1   0.10969 276646.080000
   8687   8688     1   0.09730 310787.520000
   8690   8692     1   0.10969 276646.080000
   8691   8693     1   0.10969 276646.080000
   8694   8698     1   0.10969 276646.080000
   8695   8697     1   0.10969 276646.080000
   8696   8699     1   0.10961 277566.560000
   8701   8707     1   0.09730 310787.520000
   8702   8705     1   0.09730 310787.520000
   8703   8706     1   0.09730 310787.520000
   8704   8708     1   0.10969 276646.080000
   8704   8709     1   0.10969 276646.080000
   8710   8711     1   0.09730 310787.520000
   8713   8715     1   0.10969 276646.080000
   8714   8716     1   0.10969 276646.080000
   8717   8721     1   0.10969 276646.080000
   8718   8720     1   0.10969 276646.080000
   8719   8722     1   0.10961 277566.560000
   8724   8730     1   0.09730 310787.520000
   8725   8728     1   0.09730 310787.520000
   8726   8729     1   0.09730 310787.520000
   8727   8731     1   0.10969 276646.080000
   8727   8732     1   0.10969 276646.080000
   8733   8734     1   0.09730 310787.520000
   8736   8738     1   0.10969 276646.080000
   8737   8739     1   0.10969 276646.080000
   8740   8744     1   0.10969 276646.080000
   8741   8743     1   0.10969 276646.080000
   8742   8745     1   0.10961 277566.560000
   8747   8753     1   0.09730 310787.520000
   8748   8751     1   0.09730 310787.520000
   8749   8752     1   0.09730 310787.520000
   8750   8754     1   0.10969 276646.080000
   8750   8755     1   0.10969 276646.080000
   8756   8757     1   0.09730 310787.520000
   8759   8761     1   0.10969 276646.080000
   8760   8762     1   0.10969 276646.080000
   8763   8767     1   0.10969 276646.080000
   8764   8766     1   0.10969 276646.080000
   8765   8768     1   0.10961 277566.560000
   8770   8776     1   0.09730 310787.520000
   8771   8774     1   0.09730 310787.520000
   8772   8775     1   0.09730 310787.520000
   8773   8777     1   0.10969 276646.080000
   8773   8778     1   0.10969 276646.080000
   8779   8780     1   0.09730 310787.520000
   8782   8784     1   0.10969 276646.080000
   8783   8785     1   0.10969 276646.080000
   8786   8790     1   0.10969 276646.080000
   8787   8789     1   0.10969 276646.080000
   8788   8791     1   0.10961 277566.560000
   8793   8799     1   0.09730 310787.520000
   8794   8797     1   0.09730 310787.520000
   8795   8798     1   0.09730 310787.520000
   8796   8800     1   0.10969 276646.080000
   8796   8801     1   0.10969 276646.080000
   8802   8803     1   0.09730 310787.520000
   8805   8807     1   0.10969 276646.080000
   8806   8808     1   0.10969 276646.080000
   8809   8813     1   0.10969 276646.080000
   8810   8812     1   0.10969 276646.080000
   8811   8814     1   0.10961 277566.560000
   8816   8822     1   0.09730 310787.520000
   8817   8820     1   0.09730 310787.520000
   8818   8821     1   0.09730 310787.520000
   8819   8823     1   0.10969 276646.080000
   8819   8824     1   0.10969 276646.080000
   8825   8826     1   0.09730 310787.520000
   8828   8830     1   0.10969 276646.080000
   8829   8831     1   0.10969 276646.080000
   8832   8836     1   0.10969 276646.080000
   8833   8835     1   0.10969 276646.080000
   8834   8837     1   0.10961 277566.560000
   8839   8845     1   0.09730 310787.520000
   8840   8843     1   0.09730 310787.520000
   8841   8844     1   0.09730 310787.520000
   8842   8846     1   0.10969 276646.080000
   8842   8847     1   0.10969 276646.080000
   8848   8849     1   0.09730 310787.520000
   8851   8853     1   0.10969 276646.080000
   8852   8854     1   0.10969 276646.080000
   8855   8859     1   0.10969 276646.080000
   8856   8858     1   0.10969 276646.080000
   8857   8860     1   0.10961 277566.560000
   8862   8868     1   0.09730 310787.520000
   8863   8866     1   0.09730 310787.520000
   8864   8867     1   0.09730 310787.520000
   8865   8869     1   0.10969 276646.080000
   8865   8870     1   0.10969 276646.080000
   8871   8872     1   0.09730 310787.520000
   8874   8876     1   0.10969 276646.080000
   8875   8877     1   0.10969 276646.080000
   8878   8882     1   0.10969 276646.080000
   8879   8881     1   0.10969 276646.080000
   8880   8883     1   0.10961 277566.560000
   8885   8891     1   0.09730 310787.520000
   8886   8889     1   0.09730 310787.520000
   8887   8890     1   0.09730 310787.520000
   8888   8892     1   0.10969 276646.080000
   8888   8893     1   0.10969 276646.080000
   8894   8895     1   0.09730 310787.520000
   8897   8899     1   0.10969 276646.080000
   8898   8900     1   0.10969 276646.080000
   8901   8905     1   0.10969 276646.080000
   8902   8904     1   0.10969 276646.080000
   8903   8906     1   0.10961 277566.560000
   8908   8914     1   0.09730 310787.520000
   8909   8912     1   0.09730 310787.520000
   8910   8913     1   0.09730 310787.520000
   8911   8915     1   0.10969 276646.080000
   8911   8916     1   0.10969 276646.080000
   8917   8918     1   0.09730 310787.520000
   8920   8922     1   0.10969 276646.080000
   8921   8923     1   0.10969 276646.080000
   8924   8928     1   0.10969 276646.080000
   8925   8927     1   0.10969 276646.080000
   8926   8929     1   0.10961 277566.560000
   8931   8937     1   0.09730 310787.520000
   8932   8935     1   0.09730 310787.520000
   8933   8936     1   0.09730 310787.520000
   8934   8938     1   0.10969 276646.080000
   8934   8939     1   0.10969 276646.080000
   8940   8941     1   0.09730 310787.520000
   8943   8945     1   0.10969 276646.080000
   8944   8946     1   0.10969 276646.080000
   8947   8951     1   0.10969 276646.080000
   8948   8950     1   0.10969 276646.080000
   8949   8952     1   0.10961 277566.560000
   8954   8960     1   0.09730 310787.520000
   8955   8958     1   0.09730 310787.520000
   8956   8959     1   0.09730 310787.520000
   8957   8961     1   0.10969 276646.080000
   8957   8962     1   0.10969 276646.080000
   8963   8964     1   0.09730 310787.520000
   8966   8968     1   0.10969 276646.080000
   8967   8969     1   0.10969 276646.080000
   8970   8974     1   0.10969 276646.080000
   8971   8973     1   0.10969 276646.080000
   8972   8975     1   0.10961 277566.560000
   8977   8983     1   0.09730 310787.520000
   8978   8981     1   0.09730 310787.520000
   8979   8982     1   0.09730 310787.520000
   8980   8984     1   0.10969 276646.080000
   8980   8985     1   0.10969 276646.080000
   8986   8987     1   0.09730 310787.520000
   8989   8991     1   0.10969 276646.080000
   8990   8992     1   0.10969 276646.080000
   8993   8997     1   0.10969 276646.080000
   8994   8996     1   0.10969 276646.080000
   8995   8998     1   0.10961 277566.560000
   9000   9006     1   0.09730 310787.520000
   9001   9004     1   0.09730 310787.520000
   9002   9005     1   0.09730 310787.520000
   9003   9007     1   0.10969 276646.080000
   9003   9008     1   0.10969 276646.080000
   9009   9010     1   0.09730 310787.520000
   9012   9014     1   0.10969 276646.080000
   9013   9015     1   0.10969 276646.080000
   9016   9020     1   0.10969 276646.080000
   9017   9019     1   0.10969 276646.080000
   9018   9021     1   0.10961 277566.560000
   9023   9029     1   0.09730 310787.520000
   9024   9027     1   0.09730 310787.520000
   9025   9028     1   0.09730 310787.520000
   9026   9030     1   0.10969 276646.080000
   9026   9031     1   0.10969 276646.080000
   9032   9033     1   0.09730 310787.520000
   9035   9037     1   0.10969 276646.080000
   9036   9038     1   0.10969 276646.080000
   9039   9043     1   0.10969 276646.080000
   9040   9042     1   0.10969 276646.080000
   9041   9044     1   0.10961 277566.560000
   9046   9052     1   0.09730 310787.520000
   9047   9050     1   0.09730 310787.520000
   9048   9051     1   0.09730 310787.520000
   9049   9053     1   0.10969 276646.080000
   9049   9054     1   0.10969 276646.080000
   9055   9056     1   0.09730 310787.520000
   9058   9060     1   0.10969 276646.080000
   9059   9061     1   0.10969 276646.080000
   9062   9066     1   0.10969 276646.080000
   9063   9065     1   0.10969 276646.080000
   9064   9067     1   0.10961 277566.560000
   9069   9075     1   0.09730 310787.520000
   9070   9073     1   0.09730 310787.520000
   9071   9074     1   0.09730 310787.520000
   9072   9076     1   0.10969 276646.080000
   9072   9077     1   0.10969 276646.080000
   9078   9079     1   0.09730 310787.520000
   9081   9083     1   0.10969 276646.080000
   9082   9084     1   0.10969 276646.080000
   9085   9089     1   0.10969 276646.080000
   9086   9088     1   0.10969 276646.080000
   9087   9090     1   0.10961 277566.560000
   9092   9098     1   0.09730 310787.520000
   9093   9096     1   0.09730 310787.520000
   9094   9097     1   0.09730 310787.520000
   9095   9099     1   0.10969 276646.080000
   9095   9100     1   0.10969 276646.080000
   9101   9102     1   0.09730 310787.520000
   9104   9106     1   0.10969 276646.080000
   9105   9107     1   0.10969 276646.080000
   9108   9112     1   0.10969 276646.080000
   9109   9111     1   0.10969 276646.080000
   9110   9113     1   0.10961 277566.560000
   9115   9121     1   0.09730 310787.520000
   9116   9119     1   0.09730 310787.520000
   9117   9120     1   0.09730 310787.520000
   9118   9122     1   0.10969 276646.080000
   9118   9123     1   0.10969 276646.080000
   9124   9125     1   0.09730 310787.520000
   9127   9129     1   0.10969 276646.080000
   9128   9130     1   0.10969 276646.080000
   9131   9135     1   0.10969 276646.080000
   9132   9134     1   0.10969 276646.080000
   9133   9136     1   0.10961 277566.560000
   9138   9144     1   0.09730 310787.520000
   9139   9142     1   0.09730 310787.520000
   9140   9143     1   0.09730 310787.520000
   9141   9145     1   0.10969 276646.080000
   9141   9146     1   0.10969 276646.080000
   9147   9148     1   0.09730 310787.520000
   9150   9152     1   0.10969 276646.080000
   9151   9153     1   0.10969 276646.080000
   9154   9158     1   0.10969 276646.080000
   9155   9157     1   0.10969 276646.080000
   9156   9159     1   0.10961 277566.560000
   9161   9167     1   0.09730 310787.520000
   9162   9165     1   0.09730 310787.520000
   9163   9166     1   0.09730 310787.520000
   9164   9168     1   0.10969 276646.080000
   9164   9169     1   0.10969 276646.080000
   9170   9171     1   0.09730 310787.520000
   9173   9175     1   0.10969 276646.080000
   9174   9176     1   0.10969 276646.080000
   9177   9181     1   0.10969 276646.080000
   9178   9180     1   0.10969 276646.080000
   9179   9182     1   0.10961 277566.560000
   9184   9190     1   0.09730 310787.520000
   9185   9188     1   0.09730 310787.520000
   9186   9189     1   0.09730 310787.520000
   9187   9191     1   0.10969 276646.080000
   9187   9192     1   0.10969 276646.080000
   9193   9194     1   0.09730 310787.520000
   9196   9198     1   0.10969 276646.080000
   9197   9199     1   0.10969 276646.080000
   9200   9204     1   0.10969 276646.080000
   9201   9203     1   0.10969 276646.080000
   9202   9205     1   0.10961 277566.560000
   9207   9213     1   0.09730 310787.520000
   9208   9211     1   0.09730 310787.520000
   9209   9212     1   0.09730 310787.520000
   9210   9214     1   0.10969 276646.080000
   9210   9215     1   0.10969 276646.080000
   9216   9217     1   0.09730 310787.520000
   9219   9221     1   0.10969 276646.080000
   9220   9222     1   0.10969 276646.080000
   9223   9227     1   0.10969 276646.080000
   9224   9226     1   0.10969 276646.080000
   9225   9228     1   0.10961 277566.560000
   9230   9236     1   0.09730 310787.520000
   9231   9234     1   0.09730 310787.520000
   9232   9235     1   0.09730 310787.520000
   9233   9237     1   0.10969 276646.080000
   9233   9238     1   0.10969 276646.080000
   9239   9240     1   0.09730 310787.520000
   9242   9244     1   0.10969 276646.080000
   9243   9245     1   0.10969 276646.080000
   9246   9250     1   0.10969 276646.080000
   9247   9249     1   0.10969 276646.080000
   9248   9251     1   0.10961 277566.560000
   9253   9259     1   0.09730 310787.520000
   9254   9257     1   0.09730 310787.520000
   9255   9258     1   0.09730 310787.520000
   9256   9260     1   0.10969 276646.080000
   9256   9261     1   0.10969 276646.080000
   9262   9263     1   0.09730 310787.520000
   9265   9267     1   0.10969 276646.080000
   9266   9268     1   0.10969 276646.080000
   9269   9273     1   0.10969 276646.080000
   9270   9272     1   0.10969 276646.080000
   9271   9274     1   0.10961 277566.560000
   9276   9282     1   0.09730 310787.520000
   9277   9280     1   0.09730 310787.520000
   9278   9281     1   0.09730 310787.520000
   9279   9283     1   0.10969 276646.080000
   9279   9284     1   0.10969 276646.080000
   9285   9286     1   0.09730 310787.520000
   9288   9290     1   0.10969 276646.080000
   9289   9291     1   0.10969 276646.080000
   9292   9296     1   0.10969 276646.080000
   9293   9295     1   0.10969 276646.080000
   9294   9297     1   0.10961 277566.560000
   9299   9305     1   0.09730 310787.520000
   9300   9303     1   0.09730 310787.520000
   9301   9304     1   0.09730 310787.520000
   9302   9306     1   0.10969 276646.080000
   9302   9307     1   0.10969 276646.080000
   9308   9309     1   0.09730 310787.520000
   9311   9313     1   0.10969 276646.080000
   9312   9314     1   0.10969 276646.080000
   9315   9319     1   0.10969 276646.080000
   9316   9318     1   0.10969 276646.080000
   9317   9320     1   0.10961 277566.560000
   9322   9328     1   0.09730 310787.520000
   9323   9326     1   0.09730 310787.520000
   9324   9327     1   0.09730 310787.520000
   9325   9329     1   0.10969 276646.080000
   9325   9330     1   0.10969 276646.080000
   9331   9332     1   0.09730 310787.520000
   9334   9336     1   0.10969 276646.080000
   9335   9337     1   0.10969 276646.080000
   9338   9342     1   0.10969 276646.080000
   9339   9341     1   0.10969 276646.080000
   9340   9343     1   0.10961 277566.560000
   9345   9351     1   0.09730 310787.520000
   9346   9349     1   0.09730 310787.520000
   9347   9350     1   0.09730 310787.520000
   9348   9352     1   0.10969 276646.080000
   9348   9353     1   0.10969 276646.080000
   9354   9355     1   0.09730 310787.520000
   9357   9359     1   0.10969 276646.080000
   9358   9360     1   0.10969 276646.080000
   9361   9365     1   0.10969 276646.080000
   9362   9364     1   0.10969 276646.080000
   9363   9366     1   0.10961 277566.560000
   9368   9374     1   0.09730 310787.520000
   9369   9372     1   0.09730 310787.520000
   9370   9373     1   0.09730 310787.520000
   9371   9375     1   0.10969 276646.080000
   9371   9376     1   0.10969 276646.080000
   9377   9378     1   0.09730 310787.520000
   9380   9382     1   0.10969 276646.080000
   9381   9383     1   0.10969 276646.080000
   9384   9388     1   0.10969 276646.080000
   9385   9387     1   0.10969 276646.080000
   9386   9389     1   0.10961 277566.560000
   9391   9397     1   0.09730 310787.520000
   9392   9395     1   0.09730 310787.520000
   9393   9396     1   0.09730 310787.520000
   9394   9398     1   0.10969 276646.080000
   9394   9399     1   0.10969 276646.080000
   9400   9401     1   0.09730 310787.520000
   9403   9405     1   0.10969 276646.080000
   9404   9406     1   0.10969 276646.080000
   9407   9411     1   0.10969 276646.080000
   9408   9410     1   0.10969 276646.080000
   9409   9412     1   0.10961 277566.560000
   9414   9420     1   0.09730 310787.520000
   9415   9418     1   0.09730 310787.520000
   9416   9419     1   0.09730 310787.520000
   9417   9421     1   0.10969 276646.080000
   9417   9422     1   0.10969 276646.080000
   9423   9424     1   0.09730 310787.520000
   9426   9428     1   0.10969 276646.080000
   9427   9429     1   0.10969 276646.080000
   9430   9434     1   0.10969 276646.080000
   9431   9433     1   0.10969 276646.080000
   9432   9435     1   0.10961 277566.560000
   9437   9443     1   0.09730 310787.520000
   9438   9441     1   0.09730 310787.520000
   9439   9442     1   0.09730 310787.520000
   9440   9444     1   0.10969 276646.080000
   9440   9445     1   0.10969 276646.080000
   9446   9447     1   0.09730 310787.520000
   9449   9451     1   0.10969 276646.080000
   9450   9452     1   0.10969 276646.080000
   9453   9457     1   0.10969 276646.080000
   9454   9456     1   0.10969 276646.080000
   9455   9458     1   0.10961 277566.560000
   9460   9466     1   0.09730 310787.520000
   9461   9464     1   0.09730 310787.520000
   9462   9465     1   0.09730 310787.520000
   9463   9467     1   0.10969 276646.080000
   9463   9468     1   0.10969 276646.080000
   9469   9470     1   0.09730 310787.520000
   9472   9474     1   0.10969 276646.080000
   9473   9475     1   0.10969 276646.080000
   9476   9480     1   0.10969 276646.080000
   9477   9479     1   0.10969 276646.080000
   9478   9481     1   0.10961 277566.560000
   9483   9489     1   0.09730 310787.520000
   9484   9487     1   0.09730 310787.520000
   9485   9488     1   0.09730 310787.520000
   9486   9490     1   0.10969 276646.080000
   9486   9491     1   0.10969 276646.080000
   9492   9493     1   0.09730 310787.520000
   9495   9497     1   0.10969 276646.080000
   9496   9498     1   0.10969 276646.080000
   9499   9503     1   0.10969 276646.080000
   9500   9502     1   0.10969 276646.080000
   9501   9504     1   0.10961 277566.560000
   9506   9512     1   0.09730 310787.520000
   9507   9510     1   0.09730 310787.520000
   9508   9511     1   0.09730 310787.520000
   9509   9513     1   0.10969 276646.080000
   9509   9514     1   0.10969 276646.080000
   9515   9516     1   0.09730 310787.520000
   9518   9520     1   0.10969 276646.080000
   9519   9521     1   0.10969 276646.080000
   9522   9526     1   0.10969 276646.080000
   9523   9525     1   0.10969 276646.080000
   9524   9527     1   0.10961 277566.560000
   9529   9535     1   0.09730 310787.520000
   9530   9533     1   0.09730 310787.520000
   9531   9534     1   0.09730 310787.520000
   9532   9536     1   0.10969 276646.080000
   9532   9537     1   0.10969 276646.080000
   9538   9539     1   0.09730 310787.520000
   9541   9543     1   0.10969 276646.080000
   9542   9544     1   0.10969 276646.080000
   9545   9549     1   0.10969 276646.080000
   9546   9548     1   0.10969 276646.080000
   9547   9550     1   0.10961 277566.560000
   9552   9558     1   0.09730 310787.520000
   9553   9556     1   0.09730 310787.520000
   9554   9557     1   0.09730 310787.520000
   9555   9559     1   0.10969 276646.080000
   9555   9560     1   0.10969 276646.080000
   9561   9562     1   0.09730 310787.520000
   9564   9566     1   0.10969 276646.080000
   9565   9567     1   0.10969 276646.080000
   9568   9572     1   0.10969 276646.080000
   9569   9571     1   0.10969 276646.080000
   9570   9573     1   0.10961 277566.560000
   9575   9581     1   0.09730 310787.520000
   9576   9579     1   0.09730 310787.520000
   9577   9580     1   0.09730 310787.520000
   9578   9582     1   0.10969 276646.080000
   9578   9583     1   0.10969 276646.080000
   9584   9585     1   0.09730 310787.520000
   9587   9589     1   0.10969 276646.080000
   9588   9590     1   0.10969 276646.080000
   9591   9595     1   0.10969 276646.080000
   9592   9594     1   0.10969 276646.080000
   9593   9596     1   0.10961 277566.560000
   9598   9604     1   0.09730 310787.520000
   9599   9602     1   0.09730 310787.520000
   9600   9603     1   0.09730 310787.520000
   9601   9605     1   0.10969 276646.080000
   9601   9606     1   0.10969 276646.080000
   9607   9608     1   0.09730 310787.520000
   9610   9612     1   0.10969 276646.080000
   9611   9613     1   0.10969 276646.080000
   9614   9618     1   0.10969 276646.080000
   9615   9617     1   0.10969 276646.080000
   9616   9619     1   0.10961 277566.560000
   9621   9627     1   0.09730 310787.520000
   9622   9625     1   0.09730 310787.520000
   9623   9626     1   0.09730 310787.520000
   9624   9628     1   0.10969 276646.080000
   9624   9629     1   0.10969 276646.080000
   9630   9631     1   0.09730 310787.520000
   9633   9635     1   0.10969 276646.080000
   9634   9636     1   0.10969 276646.080000
   9637   9641     1   0.10969 276646.080000
   9638   9640     1   0.10969 276646.080000
   9639   9642     1   0.10961 277566.560000
   9644   9650     1   0.09730 310787.520000
   9645   9648     1   0.09730 310787.520000
   9646   9649     1   0.09730 310787.520000
   9647   9651     1   0.10969 276646.080000
   9647   9652     1   0.10969 276646.080000
   9653   9654     1   0.09730 310787.520000
   9656   9658     1   0.10969 276646.080000
   9657   9659     1   0.10969 276646.080000
   9660   9664     1   0.10969 276646.080000
   9661   9663     1   0.10969 276646.080000
   9662   9665     1   0.10961 277566.560000
   9667   9673     1   0.09730 310787.520000
   9668   9671     1   0.09730 310787.520000
   9669   9672     1   0.09730 310787.520000
   9670   9674     1   0.10969 276646.080000
   9670   9675     1   0.10969 276646.080000
   9676   9677     1   0.09730 310787.520000
   9679   9681     1   0.10969 276646.080000
   9680   9682     1   0.10969 276646.080000
   9683   9687     1   0.10969 276646.080000
   9684   9686     1   0.10969 276646.080000
   9685   9688     1   0.10961 277566.560000
   9690   9696     1   0.09730 310787.520000
   9691   9694     1   0.09730 310787.520000
   9692   9695     1   0.09730 310787.520000
   9693   9697     1   0.10969 276646.080000
   9693   9698     1   0.10969 276646.080000
   9699   9700     1   0.09730 310787.520000
   9702   9704     1   0.10969 276646.080000
   9703   9705     1   0.10969 276646.080000
   9706   9710     1   0.10969 276646.080000
   9707   9709     1   0.10969 276646.080000
   9708   9711     1   0.10961 277566.560000
   9713   9719     1   0.09730 310787.520000
   9714   9717     1   0.09730 310787.520000
   9715   9718     1   0.09730 310787.520000
   9716   9720     1   0.10969 276646.080000
   9716   9721     1   0.10969 276646.080000
   9722   9723     1   0.09730 310787.520000
   9725   9727     1   0.10969 276646.080000
   9726   9728     1   0.10969 276646.080000
   9729   9733     1   0.10969 276646.080000
   9730   9732     1   0.10969 276646.080000
   9731   9734     1   0.10961 277566.560000
   9736   9742     1   0.09730 310787.520000
   9737   9740     1   0.09730 310787.520000
   9738   9741     1   0.09730 310787.520000
   9739   9743     1   0.10969 276646.080000
   9739   9744     1   0.10969 276646.080000
   9745   9746     1   0.09730 310787.520000
   9748   9750     1   0.10969 276646.080000
   9749   9751     1   0.10969 276646.080000
   9752   9756     1   0.10969 276646.080000
   9753   9755     1   0.10969 276646.080000
   9754   9757     1   0.10961 277566.560000
   9759   9765     1   0.09730 310787.520000
   9760   9763     1   0.09730 310787.520000
   9761   9764     1   0.09730 310787.520000
   9762   9766     1   0.10969 276646.080000
   9762   9767     1   0.10969 276646.080000
   9768   9769     1   0.09730 310787.520000
   9771   9773     1   0.10969 276646.080000
   9772   9774     1   0.10969 276646.080000
   9775   9779     1   0.10969 276646.080000
   9776   9778     1   0.10969 276646.080000
   9777   9780     1   0.10961 277566.560000
   9782   9788     1   0.09730 310787.520000
   9783   9786     1   0.09730 310787.520000
   9784   9787     1   0.09730 310787.520000
   9785   9789     1   0.10969 276646.080000
   9785   9790     1   0.10969 276646.080000
   9791   9792     1   0.09730 310787.520000
   9794   9796     1   0.10969 276646.080000
   9795   9797     1   0.10969 276646.080000
   9798   9802     1   0.10969 276646.080000
   9799   9801     1   0.10969 276646.080000
   9800   9803     1   0.10961 277566.560000
   9805   9811     1   0.09730 310787.520000
   9806   9809     1   0.09730 310787.520000
   9807   9810     1   0.09730 310787.520000
   9808   9812     1   0.10969 276646.080000
   9808   9813     1   0.10969 276646.080000
   9814   9815     1   0.09730 310787.520000
   9817   9819     1   0.10969 276646.080000
   9818   9820     1   0.10969 276646.080000
   9821   9825     1   0.10969 276646.080000
   9822   9824     1   0.10969 276646.080000
   9823   9826     1   0.10961 277566.560000
   9828   9834     1   0.09730 310787.520000
   9829   9832     1   0.09730 310787.520000
   9830   9833     1   0.09730 310787.520000
   9831   9835     1   0.10969 276646.080000
   9831   9836     1   0.10969 276646.080000
   9837   9838     1   0.09730 310787.520000
   9840   9842     1   0.10969 276646.080000
   9841   9843     1   0.10969 276646.080000
   9844   9848     1   0.10969 276646.080000
   9845   9847     1   0.10969 276646.080000
   9846   9849     1   0.10961 277566.560000
   9851   9857     1   0.09730 310787.520000
   9852   9855     1   0.09730 310787.520000
   9853   9856     1   0.09730 310787.520000
   9854   9858     1   0.10969 276646.080000
   9854   9859     1   0.10969 276646.080000
   9860   9861     1   0.09730 310787.520000
   9863   9865     1   0.10969 276646.080000
   9864   9866     1   0.10969 276646.080000
   9867   9871     1   0.10969 276646.080000
   9868   9870     1   0.10969 276646.080000
   9869   9872     1   0.10961 277566.560000
   9874   9880     1   0.09730 310787.520000
   9875   9878     1   0.09730 310787.520000
   9876   9879     1   0.09730 310787.520000
   9877   9881     1   0.10969 276646.080000
   9877   9882     1   0.10969 276646.080000
   9883   9884     1   0.09730 310787.520000
   9886   9888     1   0.10969 276646.080000
   9887   9889     1   0.10969 276646.080000
   9890   9894     1   0.10969 276646.080000
   9891   9893     1   0.10969 276646.080000
   9892   9895     1   0.10961 277566.560000
   9897   9903     1   0.09730 310787.520000
   9898   9901     1   0.09730 310787.520000
   9899   9902     1   0.09730 310787.520000
   9900   9904     1   0.10969 276646.080000
   9900   9905     1   0.10969 276646.080000
   9906   9907     1   0.09730 310787.520000
   9909   9911     1   0.10969 276646.080000
   9910   9912     1   0.10969 276646.080000
   9913   9917     1   0.10969 276646.080000
   9914   9916     1   0.10969 276646.080000
   9915   9918     1   0.10961 277566.560000
   9920   9926     1   0.09730 310787.520000
   9921   9924     1   0.09730 310787.520000
   9922   9925     1   0.09730 310787.520000
   9923   9927     1   0.10969 276646.080000
   9923   9928     1   0.10969 276646.080000
   9929   9930     1   0.09730 310787.520000
   9932   9934     1   0.10969 276646.080000
   9933   9935     1   0.10969 276646.080000
   9936   9940     1   0.10969 276646.080000
   9937   9939     1   0.10969 276646.080000
   9938   9941     1   0.10961 277566.560000
   9943   9949     1   0.09730 310787.520000
   9944   9947     1   0.09730 310787.520000
   9945   9948     1   0.09730 310787.520000
   9946   9950     1   0.10969 276646.080000
   9946   9951     1   0.10969 276646.080000
   9952   9953     1   0.09730 310787.520000
   9955   9957     1   0.10969 276646.080000
   9956   9958     1   0.10969 276646.080000
   9959   9963     1   0.10969 276646.080000
   9960   9962     1   0.10969 276646.080000
   9961   9964     1   0.10961 277566.560000
   9966   9972     1   0.09730 310787.520000
   9967   9970     1   0.09730 310787.520000
   9968   9971     1   0.09730 310787.520000
   9969   9973     1   0.10969 276646.080000
   9969   9974     1   0.10969 276646.080000
   9975   9976     1   0.09730 310787.520000
   9978   9980     1   0.10969 276646.080000
   9979   9981     1   0.10969 276646.080000
   9982   9986     1   0.10969 276646.080000
   9983   9985     1   0.10969 276646.080000
   9984   9987     1   0.10961 277566.560000
   9989   9995     1   0.09730 310787.520000
   9990   9993     1   0.09730 310787.520000
   9991   9994     1   0.09730 310787.520000
   9992   9996     1   0.10969 276646.080000
   9992   9997     1   0.10969 276646.080000
   9998   9999     1   0.09730 310787.520000
  10001  10003     1   0.10969 276646.080000
  10002  10004     1   0.10969 276646.080000
  10005  10009     1   0.10969 276646.080000
  10006  10008     1   0.10969 276646.080000
  10007  10010     1   0.10961 277566.560000
  10012  10018     1   0.09730 310787.520000
  10013  10016     1   0.09730 310787.520000
  10014  10017     1   0.09730 310787.520000
  10015  10019     1   0.10969 276646.080000
  10015  10020     1   0.10969 276646.080000
  10021  10022     1   0.09730 310787.520000
  10024  10026     1   0.10969 276646.080000
  10025  10027     1   0.10969 276646.080000
  10028  10032     1   0.10969 276646.080000
  10029  10031     1   0.10969 276646.080000
  10030  10033     1   0.10961 277566.560000
  10035  10041     1   0.09730 310787.520000
  10036  10039     1   0.09730 310787.520000
  10037  10040     1   0.09730 310787.520000
  10038  10042     1   0.10969 276646.080000
  10038  10043     1   0.10969 276646.080000
  10044  10045     1   0.09730 310787.520000
  10047  10049     1   0.10969 276646.080000
  10048  10050     1   0.10969 276646.080000
  10051  10055     1   0.10969 276646.080000
  10052  10054     1   0.10969 276646.080000
  10053  10056     1   0.10961 277566.560000
  10058  10064     1   0.09730 310787.520000
  10059  10062     1   0.09730 310787.520000
  10060  10063     1   0.09730 310787.520000
  10061  10065     1   0.10969 276646.080000
  10061  10066     1   0.10969 276646.080000
  10067  10068     1   0.09730 310787.520000
  10070  10072     1   0.10969 276646.080000
  10071  10073     1   0.10969 276646.080000
  10074  10078     1   0.10969 276646.080000
  10075  10077     1   0.10969 276646.080000
  10076  10079     1   0.10961 277566.560000
  10081  10087     1   0.09730 310787.520000
  10082  10085     1   0.09730 310787.520000
  10083  10086     1   0.09730 310787.520000
  10084  10088     1   0.10969 276646.080000
  10084  10089     1   0.10969 276646.080000
  10090  10091     1   0.09730 310787.520000
  10093  10095     1   0.10969 276646.080000
  10094  10096     1   0.10969 276646.080000
  10097  10101     1   0.10969 276646.080000
  10098  10100     1   0.10969 276646.080000
  10099  10102     1   0.10961 277566.560000
  10104  10110     1   0.09730 310787.520000
  10105  10108     1   0.09730 310787.520000
  10106  10109     1   0.09730 310787.520000
  10107  10111     1   0.10969 276646.080000
  10107  10112     1   0.10969 276646.080000
  10113  10114     1   0.09730 310787.520000

[ pairs ]
;    ai     aj funct         c0         c1         c2         c3
      1     26     1
      1     20     1
      1     23     1
      2     17     1
      2     11     1
      2    118     1
      5     14     1
      5     11     1
      5     58     1
      8     14     1
      8     17     1
      8     88     1
     11     79     1
     14    109     1
     17     49     1
     20     40     1
     23     70     1
     26    100     1
     30     55     1
     30     52     1
     30     49     1
     31     46     1
     31     40     1
     31    178     1
     34     43     1
     34     40     1
     34    148     1
     37     43     1
     37     46     1
     37     58     1
     43    169     1
     46    139     1
     52    130     1
     55    160     1
     60     85     1
     60     82     1
     60     79     1
     61     76     1
     61     70     1
     61    238     1
     64     73     1
     64     70     1
     64    208     1
     67     73     1
     67     76     1
     67     88     1
     73    229     1
     76    199     1
     82    190     1
     85    220     1
     90    115     1
     90    112     1
     90    109     1
     91    106     1
     91    100     1
     91    298     1
     94    103     1
     94    100     1
     94    268     1
     97    103     1
     97    106     1
     97    118     1
    103    289     1
    106    259     1
    112    250     1
    115    280     1
    120    145     1
    120    142     1
    120    139     1
    121    136     1
    121    130     1
    121    358     1
    124    133     1
    124    130     1
    124    328     1
    127    133     1
    127    136     1
    127    148     1
    133    349     1
    136    319     1
    142    310     1
    145    340     1
    150    175     1
    150    172     1
    150    169     1
    151    166     1
    151    160     1
    151    418     1
    154    163     1
    154    160     1
    154    388     1
    157    163     1
    157    166     1
    157    178     1
    163    409     1
    166    379     1
    172    370     1
    175    400     1
    180    205     1
    180    202     1
    180    199     1
    181    196     1
    181    190     1
    181    478     1
    184    193     1
    184    190     1
    184    448     1
    187    193     1
    187    196     1
    187    208     1
    193    469     1
    196    439     1
    202    430     1
    205    460     1
    210    235     1
    210    232     1
    210    229     1
    211    226     1
    211    220     1
    211    538     1
    214    223     1
    214    220     1
    214    508     1
    217    223     1
    217    226     1
    217    238     1
    223    529     1
    226    499     1
    232    490     1
    235    520     1
    240    265     1
    240    262     1
    240    259     1
    241    256     1
    241    250     1
    241    598     1
    244    253     1
    244    250     1
    244    568     1
    247    253     1
    247    256     1
    247    268     1
    253    589     1
    256    559     1
    262    550     1
    265    580     1
    270    295     1
    270    292     1
    270    289     1
    271    286     1
    271    280     1
    271    658     1
    274    283     1
    274    280     1
    274    628     1
    277    283     1
    277    286     1
    277    298     1
    283    649     1
    286    619     1
    292    610     1
    295    640     1
    300    325     1
    300    322     1
    300    319     1
    301    316     1
    301    310     1
    301    718     1
    304    313     1
    304    310     1
    304    688     1
    307    313     1
    307    316     1
    307    328     1
    313    709     1
    316    679     1
    322    670     1
    325    700     1
    330    355     1
    330    352     1
    330    349     1
    331    346     1
    331    340     1
    331    778     1
    334    343     1
    334    340     1
    334    748     1
    337    343     1
    337    346     1
    337    358     1
    343    769     1
    346    739     1
    352    730     1
    355    760     1
    360    385     1
    360    382     1
    360    379     1
    361    376     1
    361    370     1
    361    838     1
    364    373     1
    364    370     1
    364    808     1
    367    373     1
    367    376     1
    367    388     1
    373    829     1
    376    799     1
    382    790     1
    385    820     1
    390    415     1
    390    412     1
    390    409     1
    391    406     1
    391    400     1
    391    898     1
    394    403     1
    394    400     1
    394    868     1
    397    403     1
    397    406     1
    397    418     1
    403    889     1
    406    859     1
    412    850     1
    415    880     1
    420    445     1
    420    442     1
    420    439     1
    421    436     1
    421    430     1
    421    958     1
    424    433     1
    424    430     1
    424    928     1
    427    433     1
    427    436     1
    427    448     1
    433    949     1
    436    919     1
    442    910     1
    445    940     1
    450    475     1
    450    472     1
    450    469     1
    451    466     1
    451    460     1
    451   1018     1
    454    463     1
    454    460     1
    454    988     1
    457    463     1
    457    466     1
    457    478     1
    463   1009     1
    466    979     1
    472    970     1
    475   1000     1
    480    505     1
    480    502     1
    480    499     1
    481    496     1
    481    490     1
    481   1078     1
    484    493     1
    484    490     1
    484   1048     1
    487    493     1
    487    496     1
    487    508     1
    493   1069     1
    496   1039     1
    502   1030     1
    505   1060     1
    510    535     1
    510    532     1
    510    529     1
    511    526     1
    511    520     1
    511   1138     1
    514    523     1
    514    520     1
    514   1108     1
    517    523     1
    517    526     1
    517    538     1
    523   1129     1
    526   1099     1
    532   1090     1
    535   1120     1
    540    565     1
    540    562     1
    540    559     1
    541    556     1
    541    550     1
    541   1198     1
    544    553     1
    544    550     1
    544   1168     1
    547    553     1
    547    556     1
    547    568     1
    553   1189     1
    556   1159     1
    562   1150     1
    565   1180     1
    570    595     1
    570    592     1
    570    589     1
    571    586     1
    571    580     1
    571   1258     1
    574    583     1
    574    580     1
    574   1228     1
    577    583     1
    577    586     1
    577    598     1
    583   1249     1
    586   1219     1
    592   1210     1
    595   1240     1
    600    625     1
    600    622     1
    600    619     1
    601    616     1
    601    610     1
    601   1318     1
    604    613     1
    604    610     1
    604   1288     1
    607    613     1
    607    616     1
    607    628     1
    613   1309     1
    616   1279     1
    622   1270     1
    625   1300     1
    630    655     1
    630    652     1
    630    649     1
    631    646     1
    631    640     1
    631   1378     1
    634    643     1
    634    640     1
    634   1348     1
    637    643     1
    637    646     1
    637    658     1
    643   1369     1
    646   1339     1
    652   1330     1
    655   1360     1
    660    685     1
    660    682     1
    660    679     1
    661    676     1
    661    670     1
    661   1438     1
    664    673     1
    664    670     1
    664   1408     1
    667    673     1
    667    676     1
    667    688     1
    673   1429     1
    676   1399     1
    682   1390     1
    685   1420     1
    690    715     1
    690    712     1
    690    709     1
    691    706     1
    691    700     1
    691   1498     1
    694    703     1
    694    700     1
    694   1468     1
    697    703     1
    697    706     1
    697    718     1
    703   1489     1
    706   1459     1
    712   1450     1
    715   1480     1
    720    745     1
    720    742     1
    720    739     1
    721    736     1
    721    730     1
    721   1558     1
    724    733     1
    724    730     1
    724   1528     1
    727    733     1
    727    736     1
    727    748     1
    733   1549     1
    736   1519     1
    742   1510     1
    745   1540     1
    750    775     1
    750    772     1
    750    769     1
    751    766     1
    751    760     1
    751   1618     1
    754    763     1
    754    760     1
    754   1588     1
    757    763     1
    757    766     1
    757    778     1
    763   1609     1
    766   1579     1
    772   1570     1
    775   1600     1
    780    805     1
    780    802     1
    780    799     1
    781    796     1
    781    790     1
    781   1678     1
    784    793     1
    784    790     1
    784   1648     1
    787    793     1
    787    796     1
    787    808     1
    793   1669     1
    796   1639     1
    802   1630     1
    805   1660     1
    810    835     1
    810    832     1
    810    829     1
    811    826     1
    811    820     1
    811   1738     1
    814    823     1
    814    820     1
    814   1708     1
    817    823     1
    817    826     1
    817    838     1
    823   1729     1
    826   1699     1
    832   1690     1
    835   1720     1
    840    865     1
    840    862     1
    840    859     1
    841    856     1
    841    850     1
    841   1798     1
    844    853     1
    844    850     1
    844   1768     1
    847    853     1
    847    856     1
    847    868     1
    853   1789     1
    856   1759     1
    862   1750     1
    865   1780     1
    870    895     1
    870    892     1
    870    889     1
    871    886     1
    871    880     1
    871   1858     1
    874    883     1
    874    880     1
    874   1828     1
    877    883     1
    877    886     1
    877    898     1
    883   1849     1
    886   1819     1
    892   1810     1
    895   1840     1
    900    925     1
    900    922     1
    900    919     1
    901    916     1
    901    910     1
    901   1918     1
    904    913     1
    904    910     1
    904   1888     1
    907    913     1
    907    916     1
    907    928     1
    913   1909     1
    916   1879     1
    922   1870     1
    925   1900     1
    930    955     1
    930    952     1
    930    949     1
    931    946     1
    931    940     1
    931   1978     1
    934    943     1
    934    940     1
    934   1948     1
    937    943     1
    937    946     1
    937    958     1
    943   1969     1
    946   1939     1
    952   1930     1
    955   1960     1
    960    985     1
    960    982     1
    960    979     1
    961    976     1
    961    970     1
    961   2038     1
    964    973     1
    964    970     1
    964   2008     1
    967    973     1
    967    976     1
    967    988     1
    973   2029     1
    976   1999     1
    982   1990     1
    985   2020     1
    990   1015     1
    990   1012     1
    990   1009     1
    991   1006     1
    991   1000     1
    991   2098     1
    994   1003     1
    994   1000     1
    994   2068     1
    997   1003     1
    997   1006     1
    997   1018     1
   1003   2089     1
   1006   2059     1
   1012   2050     1
   1015   2080     1
   1020   1045     1
   1020   1042     1
   1020   1039     1
   1021   1036     1
   1021   1030     1
   1021   2158     1
   1024   1033     1
   1024   1030     1
   1024   2128     1
   1027   1033     1
   1027   1036     1
   1027   1048     1
   1033   2149     1
   1036   2119     1
   1042   2110     1
   1045   2140     1
   1050   1075     1
   1050   1072     1
   1050   1069     1
   1051   1066     1
   1051   1060     1
   1051   2218     1
   1054   1063     1
   1054   1060     1
   1054   2188     1
   1057   1063     1
   1057   1066     1
   1057   1078     1
   1063   2209     1
   1066   2179     1
   1072   2170     1
   1075   2200     1
   1080   1105     1
   1080   1102     1
   1080   1099     1
   1081   1096     1
   1081   1090     1
   1081   2278     1
   1084   1093     1
   1084   1090     1
   1084   2248     1
   1087   1093     1
   1087   1096     1
   1087   1108     1
   1093   2269     1
   1096   2239     1
   1102   2230     1
   1105   2260     1
   1110   1135     1
   1110   1132     1
   1110   1129     1
   1111   1126     1
   1111   1120     1
   1111   2338     1
   1114   1123     1
   1114   1120     1
   1114   2308     1
   1117   1123     1
   1117   1126     1
   1117   1138     1
   1123   2329     1
   1126   2299     1
   1132   2290     1
   1135   2320     1
   1140   1165     1
   1140   1162     1
   1140   1159     1
   1141   1156     1
   1141   1150     1
   1141   2398     1
   1144   1153     1
   1144   1150     1
   1144   2368     1
   1147   1153     1
   1147   1156     1
   1147   1168     1
   1153   2389     1
   1156   2359     1
   1162   2350     1
   1165   2380     1
   1170   1195     1
   1170   1192     1
   1170   1189     1
   1171   1186     1
   1171   1180     1
   1171   2458     1
   1174   1183     1
   1174   1180     1
   1174   2428     1
   1177   1183     1
   1177   1186     1
   1177   1198     1
   1183   2449     1
   1186   2419     1
   1192   2410     1
   1195   2440     1
   1200   1225     1
   1200   1222     1
   1200   1219     1
   1201   1216     1
   1201   1210     1
   1201   2518     1
   1204   1213     1
   1204   1210     1
   1204   2488     1
   1207   1213     1
   1207   1216     1
   1207   1228     1
   1213   2509     1
   1216   2479     1
   1222   2470     1
   1225   2500     1
   1230   1255     1
   1230   1252     1
   1230   1249     1
   1231   1246     1
   1231   1240     1
   1231   2578     1
   1234   1243     1
   1234   1240     1
   1234   2548     1
   1237   1243     1
   1237   1246     1
   1237   1258     1
   1243   2569     1
   1246   2539     1
   1252   2530     1
   1255   2560     1
   1260   1285     1
   1260   1282     1
   1260   1279     1
   1261   1276     1
   1261   1270     1
   1261   2638     1
   1264   1273     1
   1264   1270     1
   1264   2608     1
   1267   1273     1
   1267   1276     1
   1267   1288     1
   1273   2629     1
   1276   2599     1
   1282   2590     1
   1285   2620     1
   1290   1315     1
   1290   1312     1
   1290   1309     1
   1291   1306     1
   1291   1300     1
   1291   2698     1
   1294   1303     1
   1294   1300     1
   1294   2668     1
   1297   1303     1
   1297   1306     1
   1297   1318     1
   1303   2689     1
   1306   2659     1
   1312   2650     1
   1315   2680     1
   1320   1345     1
   1320   1342     1
   1320   1339     1
   1321   1336     1
   1321   1330     1
   1321   2758     1
   1324   1333     1
   1324   1330     1
   1324   2728     1
   1327   1333     1
   1327   1336     1
   1327   1348     1
   1333   2749     1
   1336   2719     1
   1342   2710     1
   1345   2740     1
   1350   1375     1
   1350   1372     1
   1350   1369     1
   1351   1366     1
   1351   1360     1
   1351   2818     1
   1354   1363     1
   1354   1360     1
   1354   2788     1
   1357   1363     1
   1357   1366     1
   1357   1378     1
   1363   2809     1
   1366   2779     1
   1372   2770     1
   1375   2800     1
   1380   1405     1
   1380   1402     1
   1380   1399     1
   1381   1396     1
   1381   1390     1
   1381   2878     1
   1384   1393     1
   1384   1390     1
   1384   2848     1
   1387   1393     1
   1387   1396     1
   1387   1408     1
   1393   2869     1
   1396   2839     1
   1402   2830     1
   1405   2860     1
   1410   1435     1
   1410   1432     1
   1410   1429     1
   1411   1426     1
   1411   1420     1
   1411   2938     1
   1414   1423     1
   1414   1420     1
   1414   2908     1
   1417   1423     1
   1417   1426     1
   1417   1438     1
   1423   2929     1
   1426   2899     1
   1432   2890     1
   1435   2920     1
   1440   1465     1
   1440   1462     1
   1440   1459     1
   1441   1456     1
   1441   1450     1
   1441   2998     1
   1444   1453     1
   1444   1450     1
   1444   2968     1
   1447   1453     1
   1447   1456     1
   1447   1468     1
   1453   2989     1
   1456   2959     1
   1462   2950     1
   1465   2980     1
   1470   1495     1
   1470   1492     1
   1470   1489     1
   1471   1486     1
   1471   1480     1
   1471   3058     1
   1474   1483     1
   1474   1480     1
   1474   3028     1
   1477   1483     1
   1477   1486     1
   1477   1498     1
   1483   3049     1
   1486   3019     1
   1492   3010     1
   1495   3040     1
   1500   1525     1
   1500   1522     1
   1500   1519     1
   1501   1516     1
   1501   1510     1
   1501   3118     1
   1504   1513     1
   1504   1510     1
   1504   3088     1
   1507   1513     1
   1507   1516     1
   1507   1528     1
   1513   3109     1
   1516   3079     1
   1522   3070     1
   1525   3100     1
   1530   1555     1
   1530   1552     1
   1530   1549     1
   1531   1546     1
   1531   1540     1
   1531   3178     1
   1534   1543     1
   1534   1540     1
   1534   3148     1
   1537   1543     1
   1537   1546     1
   1537   1558     1
   1543   3169     1
   1546   3139     1
   1552   3130     1
   1555   3160     1
   1560   1585     1
   1560   1582     1
   1560   1579     1
   1561   1576     1
   1561   1570     1
   1561   3238     1
   1564   1573     1
   1564   1570     1
   1564   3208     1
   1567   1573     1
   1567   1576     1
   1567   1588     1
   1573   3229     1
   1576   3199     1
   1582   3190     1
   1585   3220     1
   1590   1615     1
   1590   1612     1
   1590   1609     1
   1591   1606     1
   1591   1600     1
   1591   3298     1
   1594   1603     1
   1594   1600     1
   1594   3268     1
   1597   1603     1
   1597   1606     1
   1597   1618     1
   1603   3289     1
   1606   3259     1
   1612   3250     1
   1615   3280     1
   1620   1645     1
   1620   1642     1
   1620   1639     1
   1621   1636     1
   1621   1630     1
   1621   3358     1
   1624   1633     1
   1624   1630     1
   1624   3328     1
   1627   1633     1
   1627   1636     1
   1627   1648     1
   1633   3349     1
   1636   3319     1
   1642   3310     1
   1645   3340     1
   1650   1675     1
   1650   1672     1
   1650   1669     1
   1651   1666     1
   1651   1660     1
   1651   3418     1
   1654   1663     1
   1654   1660     1
   1654   3388     1
   1657   1663     1
   1657   1666     1
   1657   1678     1
   1663   3409     1
   1666   3379     1
   1672   3370     1
   1675   3400     1
   1680   1705     1
   1680   1702     1
   1680   1699     1
   1681   1696     1
   1681   1690     1
   1681   3478     1
   1684   1693     1
   1684   1690     1
   1684   3448     1
   1687   1693     1
   1687   1696     1
   1687   1708     1
   1693   3469     1
   1696   3439     1
   1702   3430     1
   1705   3460     1
   1710   1735     1
   1710   1732     1
   1710   1729     1
   1711   1726     1
   1711   1720     1
   1711   3538     1
   1714   1723     1
   1714   1720     1
   1714   3508     1
   1717   1723     1
   1717   1726     1
   1717   1738     1
   1723   3529     1
   1726   3499     1
   1732   3490     1
   1735   3520     1
   1740   1765     1
   1740   1762     1
   1740   1759     1
   1741   1756     1
   1741   1750     1
   1741   3598     1
   1744   1753     1
   1744   1750     1
   1744   3568     1
   1747   1753     1
   1747   1756     1
   1747   1768     1
   1753   3589     1
   1756   3559     1
   1762   3550     1
   1765   3580     1
   1770   1795     1
   1770   1792     1
   1770   1789     1
   1771   1786     1
   1771   1780     1
   1771   3658     1
   1774   1783     1
   1774   1780     1
   1774   3628     1
   1777   1783     1
   1777   1786     1
   1777   1798     1
   1783   3649     1
   1786   3619     1
   1792   3610     1
   1795   3640     1
   1800   1825     1
   1800   1822     1
   1800   1819     1
   1801   1816     1
   1801   1810     1
   1801   3718     1
   1804   1813     1
   1804   1810     1
   1804   3688     1
   1807   1813     1
   1807   1816     1
   1807   1828     1
   1813   3709     1
   1816   3679     1
   1822   3670     1
   1825   3700     1
   1830   1855     1
   1830   1852     1
   1830   1849     1
   1831   1846     1
   1831   1840     1
   1831   3778     1
   1834   1843     1
   1834   1840     1
   1834   3748     1
   1837   1843     1
   1837   1846     1
   1837   1858     1
   1843   3769     1
   1846   3739     1
   1852   3730     1
   1855   3760     1
   1860   1885     1
   1860   1882     1
   1860   1879     1
   1861   1876     1
   1861   1870     1
   1861   3838     1
   1864   1873     1
   1864   1870     1
   1864   3808     1
   1867   1873     1
   1867   1876     1
   1867   1888     1
   1873   3829     1
   1876   3799     1
   1882   3790     1
   1885   3820     1
   1890   1915     1
   1890   1912     1
   1890   1909     1
   1891   1906     1
   1891   1900     1
   1891   3898     1
   1894   1903     1
   1894   1900     1
   1894   3868     1
   1897   1903     1
   1897   1906     1
   1897   1918     1
   1903   3889     1
   1906   3859     1
   1912   3850     1
   1915   3880     1
   1920   1945     1
   1920   1942     1
   1920   1939     1
   1921   1936     1
   1921   1930     1
   1921   3958     1
   1924   1933     1
   1924   1930     1
   1924   3928     1
   1927   1933     1
   1927   1936     1
   1927   1948     1
   1933   3949     1
   1936   3919     1
   1942   3910     1
   1945   3940     1
   1950   1975     1
   1950   1972     1
   1950   1969     1
   1951   1966     1
   1951   1960     1
   1951   4018     1
   1954   1963     1
   1954   1960     1
   1954   3988     1
   1957   1963     1
   1957   1966     1
   1957   1978     1
   1963   4009     1
   1966   3979     1
   1972   3970     1
   1975   4000     1
   1980   2005     1
   1980   2002     1
   1980   1999     1
   1981   1996     1
   1981   1990     1
   1981   4078     1
   1984   1993     1
   1984   1990     1
   1984   4048     1
   1987   1993     1
   1987   1996     1
   1987   2008     1
   1993   4069     1
   1996   4039     1
   2002   4030     1
   2005   4060     1
   2010   2035     1
   2010   2032     1
   2010   2029     1
   2011   2026     1
   2011   2020     1
   2011   4138     1
   2014   2023     1
   2014   2020     1
   2014   4108     1
   2017   2023     1
   2017   2026     1
   2017   2038     1
   2023   4129     1
   2026   4099     1
   2032   4090     1
   2035   4120     1
   2040   2065     1
   2040   2062     1
   2040   2059     1
   2041   2056     1
   2041   2050     1
   2041   4198     1
   2044   2053     1
   2044   2050     1
   2044   4168     1
   2047   2053     1
   2047   2056     1
   2047   2068     1
   2053   4189     1
   2056   4159     1
   2062   4150     1
   2065   4180     1
   2070   2095     1
   2070   2092     1
   2070   2089     1
   2071   2086     1
   2071   2080     1
   2071   4258     1
   2074   2083     1
   2074   2080     1
   2074   4228     1
   2077   2083     1
   2077   2086     1
   2077   2098     1
   2083   4249     1
   2086   4219     1
   2092   4210     1
   2095   4240     1
   2100   2125     1
   2100   2122     1
   2100   2119     1
   2101   2116     1
   2101   2110     1
   2101   4318     1
   2104   2113     1
   2104   2110     1
   2104   4288     1
   2107   2113     1
   2107   2116     1
   2107   2128     1
   2113   4309     1
   2116   4279     1
   2122   4270     1
   2125   4300     1
   2130   2155     1
   2130   2152     1
   2130   2149     1
   2131   2146     1
   2131   2140     1
   2131   4378     1
   2134   2143     1
   2134   2140     1
   2134   4348     1
   2137   2143     1
   2137   2146     1
   2137   2158     1
   2143   4369     1
   2146   4339     1
   2152   4330     1
   2155   4360     1
   2160   2185     1
   2160   2182     1
   2160   2179     1
   2161   2176     1
   2161   2170     1
   2161   4438     1
   2164   2173     1
   2164   2170     1
   2164   4408     1
   2167   2173     1
   2167   2176     1
   2167   2188     1
   2173   4429     1
   2176   4399     1
   2182   4390     1
   2185   4420     1
   2190   2215     1
   2190   2212     1
   2190   2209     1
   2191   2206     1
   2191   2200     1
   2191   4498     1
   2194   2203     1
   2194   2200     1
   2194   4468     1
   2197   2203     1
   2197   2206     1
   2197   2218     1
   2203   4489     1
   2206   4459     1
   2212   4450     1
   2215   4480     1
   2220   2245     1
   2220   2242     1
   2220   2239     1
   2221   2236     1
   2221   2230     1
   2221   4558     1
   2224   2233     1
   2224   2230     1
   2224   4528     1
   2227   2233     1
   2227   2236     1
   2227   2248     1
   2233   4549     1
   2236   4519     1
   2242   4510     1
   2245   4540     1
   2250   2275     1
   2250   2272     1
   2250   2269     1
   2251   2266     1
   2251   2260     1
   2251   4618     1
   2254   2263     1
   2254   2260     1
   2254   4588     1
   2257   2263     1
   2257   2266     1
   2257   2278     1
   2263   4609     1
   2266   4579     1
   2272   4570     1
   2275   4600     1
   2280   2305     1
   2280   2302     1
   2280   2299     1
   2281   2296     1
   2281   2290     1
   2281   4678     1
   2284   2293     1
   2284   2290     1
   2284   4648     1
   2287   2293     1
   2287   2296     1
   2287   2308     1
   2293   4669     1
   2296   4639     1
   2302   4630     1
   2305   4660     1
   2310   2335     1
   2310   2332     1
   2310   2329     1
   2311   2326     1
   2311   2320     1
   2311   4738     1
   2314   2323     1
   2314   2320     1
   2314   4708     1
   2317   2323     1
   2317   2326     1
   2317   2338     1
   2323   4729     1
   2326   4699     1
   2332   4690     1
   2335   4720     1
   2340   2365     1
   2340   2362     1
   2340   2359     1
   2341   2356     1
   2341   2350     1
   2341   4798     1
   2344   2353     1
   2344   2350     1
   2344   4768     1
   2347   2353     1
   2347   2356     1
   2347   2368     1
   2353   4789     1
   2356   4759     1
   2362   4750     1
   2365   4780     1
   2370   2395     1
   2370   2392     1
   2370   2389     1
   2371   2386     1
   2371   2380     1
   2371   4858     1
   2374   2383     1
   2374   2380     1
   2374   4828     1
   2377   2383     1
   2377   2386     1
   2377   2398     1
   2383   4849     1
   2386   4819     1
   2392   4810     1
   2395   4840     1
   2400   2425     1
   2400   2422     1
   2400   2419     1
   2401   2416     1
   2401   2410     1
   2401   4918     1
   2404   2413     1
   2404   2410     1
   2404   4888     1
   2407   2413     1
   2407   2416     1
   2407   2428     1
   2413   4909     1
   2416   4879     1
   2422   4870     1
   2425   4900     1
   2430   2455     1
   2430   2452     1
   2430   2449     1
   2431   2446     1
   2431   2440     1
   2431   4978     1
   2434   2443     1
   2434   2440     1
   2434   4948     1
   2437   2443     1
   2437   2446     1
   2437   2458     1
   2443   4969     1
   2446   4939     1
   2452   4930     1
   2455   4960     1
   2460   2485     1
   2460   2482     1
   2460   2479     1
   2461   2476     1
   2461   2470     1
   2461   5038     1
   2464   2473     1
   2464   2470     1
   2464   5008     1
   2467   2473     1
   2467   2476     1
   2467   2488     1
   2473   5029     1
   2476   4999     1
   2482   4990     1
   2485   5020     1
   2490   2515     1
   2490   2512     1
   2490   2509     1
   2491   2506     1
   2491   2500     1
   2491   5098     1
   2494   2503     1
   2494   2500     1
   2494   5068     1
   2497   2503     1
   2497   2506     1
   2497   2518     1
   2503   5089     1
   2506   5059     1
   2512   5050     1
   2515   5080     1
   2520   2545     1
   2520   2542     1
   2520   2539     1
   2521   2536     1
   2521   2530     1
   2521   5158     1
   2524   2533     1
   2524   2530     1
   2524   5128     1
   2527   2533     1
   2527   2536     1
   2527   2548     1
   2533   5149     1
   2536   5119     1
   2542   5110     1
   2545   5140     1
   2550   2575     1
   2550   2572     1
   2550   2569     1
   2551   2566     1
   2551   2560     1
   2551   5218     1
   2554   2563     1
   2554   2560     1
   2554   5188     1
   2557   2563     1
   2557   2566     1
   2557   2578     1
   2563   5209     1
   2566   5179     1
   2572   5170     1
   2575   5200     1
   2580   2605     1
   2580   2602     1
   2580   2599     1
   2581   2596     1
   2581   2590     1
   2581   5278     1
   2584   2593     1
   2584   2590     1
   2584   5248     1
   2587   2593     1
   2587   2596     1
   2587   2608     1
   2593   5269     1
   2596   5239     1
   2602   5230     1
   2605   5260     1
   2610   2635     1
   2610   2632     1
   2610   2629     1
   2611   2626     1
   2611   2620     1
   2611   5338     1
   2614   2623     1
   2614   2620     1
   2614   5308     1
   2617   2623     1
   2617   2626     1
   2617   2638     1
   2623   5329     1
   2626   5299     1
   2632   5290     1
   2635   5320     1
   2640   2665     1
   2640   2662     1
   2640   2659     1
   2641   2656     1
   2641   2650     1
   2641   5398     1
   2644   2653     1
   2644   2650     1
   2644   5368     1
   2647   2653     1
   2647   2656     1
   2647   2668     1
   2653   5389     1
   2656   5359     1
   2662   5350     1
   2665   5380     1
   2670   2695     1
   2670   2692     1
   2670   2689     1
   2671   2686     1
   2671   2680     1
   2671   5458     1
   2674   2683     1
   2674   2680     1
   2674   5428     1
   2677   2683     1
   2677   2686     1
   2677   2698     1
   2683   5449     1
   2686   5419     1
   2692   5410     1
   2695   5440     1
   2700   2725     1
   2700   2722     1
   2700   2719     1
   2701   2716     1
   2701   2710     1
   2701   5518     1
   2704   2713     1
   2704   2710     1
   2704   5488     1
   2707   2713     1
   2707   2716     1
   2707   2728     1
   2713   5509     1
   2716   5479     1
   2722   5470     1
   2725   5500     1
   2730   2755     1
   2730   2752     1
   2730   2749     1
   2731   2746     1
   2731   2740     1
   2731   5578     1
   2734   2743     1
   2734   2740     1
   2734   5548     1
   2737   2743     1
   2737   2746     1
   2737   2758     1
   2743   5569     1
   2746   5539     1
   2752   5530     1
   2755   5560     1
   2760   2785     1
   2760   2782     1
   2760   2779     1
   2761   2776     1
   2761   2770     1
   2761   5638     1
   2764   2773     1
   2764   2770     1
   2764   5608     1
   2767   2773     1
   2767   2776     1
   2767   2788     1
   2773   5629     1
   2776   5599     1
   2782   5590     1
   2785   5620     1
   2790   2815     1
   2790   2812     1
   2790   2809     1
   2791   2806     1
   2791   2800     1
   2791   5698     1
   2794   2803     1
   2794   2800     1
   2794   5668     1
   2797   2803     1
   2797   2806     1
   2797   2818     1
   2803   5689     1
   2806   5659     1
   2812   5650     1
   2815   5680     1
   2820   2845     1
   2820   2842     1
   2820   2839     1
   2821   2836     1
   2821   2830     1
   2821   5733     1
   2824   2833     1
   2824   2830     1
   2824   5710     1
   2827   2833     1
   2827   2836     1
   2827   2848     1
   2833   5729     1
   2836   5706     1
   2842   5705     1
   2842   5722     1
   2845   5745     1
   2845   5728     1
   2850   2875     1
   2850   2872     1
   2850   2869     1
   2851   2866     1
   2851   2860     1
   2851   5779     1
   2854   2863     1
   2854   2860     1
   2854   5756     1
   2857   2863     1
   2857   2866     1
   2857   2878     1
   2863   5775     1
   2866   5752     1
   2872   5751     1
   2872   5768     1
   2875   5791     1
   2875   5774     1
   2880   2905     1
   2880   2902     1
   2880   2899     1
   2881   2896     1
   2881   2890     1
   2881   5825     1
   2884   2893     1
   2884   2890     1
   2884   5802     1
   2887   2893     1
   2887   2896     1
   2887   2908     1
   2893   5821     1
   2896   5798     1
   2902   5797     1
   2902   5814     1
   2905   5837     1
   2905   5820     1
   2910   2935     1
   2910   2932     1
   2910   2929     1
   2911   2926     1
   2911   2920     1
   2911   5871     1
   2914   2923     1
   2914   2920     1
   2914   5848     1
   2917   2923     1
   2917   2926     1
   2917   2938     1
   2923   5867     1
   2926   5844     1
   2932   5843     1
   2932   5860     1
   2935   5883     1
   2935   5866     1
   2940   2965     1
   2940   2962     1
   2940   2959     1
   2941   2956     1
   2941   2950     1
   2941   5917     1
   2944   2953     1
   2944   2950     1
   2944   5894     1
   2947   2953     1
   2947   2956     1
   2947   2968     1
   2953   5913     1
   2956   5890     1
   2962   5889     1
   2962   5906     1
   2965   5929     1
   2965   5912     1
   2970   2995     1
   2970   2992     1
   2970   2989     1
   2971   2986     1
   2971   2980     1
   2971   5963     1
   2974   2983     1
   2974   2980     1
   2974   5940     1
   2977   2983     1
   2977   2986     1
   2977   2998     1
   2983   5959     1
   2986   5936     1
   2992   5935     1
   2992   5952     1
   2995   5975     1
   2995   5958     1
   3000   3025     1
   3000   3022     1
   3000   3019     1
   3001   3016     1
   3001   3010     1
   3001   6009     1
   3004   3013     1
   3004   3010     1
   3004   5986     1
   3007   3013     1
   3007   3016     1
   3007   3028     1
   3013   6005     1
   3016   5982     1
   3022   5981     1
   3022   5998     1
   3025   6021     1
   3025   6004     1
   3030   3055     1
   3030   3052     1
   3030   3049     1
   3031   3046     1
   3031   3040     1
   3031   6055     1
   3034   3043     1
   3034   3040     1
   3034   6032     1
   3037   3043     1
   3037   3046     1
   3037   3058     1
   3043   6051     1
   3046   6028     1
   3052   6027     1
   3052   6044     1
   3055   6067     1
   3055   6050     1
   3060   3085     1
   3060   3082     1
   3060   3079     1
   3061   3076     1
   3061   3070     1
   3061   6101     1
   3064   3073     1
   3064   3070     1
   3064   6078     1
   3067   3073     1
   3067   3076     1
   3067   3088     1
   3073   6097     1
   3076   6074     1
   3082   6073     1
   3082   6090     1
   3085   6113     1
   3085   6096     1
   3090   3115     1
   3090   3112     1
   3090   3109     1
   3091   3106     1
   3091   3100     1
   3091   6147     1
   3094   3103     1
   3094   3100     1
   3094   6124     1
   3097   3103     1
   3097   3106     1
   3097   3118     1
   3103   6143     1
   3106   6120     1
   3112   6119     1
   3112   6136     1
   3115   6159     1
   3115   6142     1
   3120   3145     1
   3120   3142     1
   3120   3139     1
   3121   3136     1
   3121   3130     1
   3121   6193     1
   3124   3133     1
   3124   3130     1
   3124   6170     1
   3127   3133     1
   3127   3136     1
   3127   3148     1
   3133   6189     1
   3136   6166     1
   3142   6165     1
   3142   6182     1
   3145   6205     1
   3145   6188     1
   3150   3175     1
   3150   3172     1
   3150   3169     1
   3151   3166     1
   3151   3160     1
   3151   6239     1
   3154   3163     1
   3154   3160     1
   3154   6216     1
   3157   3163     1
   3157   3166     1
   3157   3178     1
   3163   6235     1
   3166   6212     1
   3172   6211     1
   3172   6228     1
   3175   6251     1
   3175   6234     1
   3180   3205     1
   3180   3202     1
   3180   3199     1
   3181   3196     1
   3181   3190     1
   3181   6285     1
   3184   3193     1
   3184   3190     1
   3184   6262     1
   3187   3193     1
   3187   3196     1
   3187   3208     1
   3193   6281     1
   3196   6258     1
   3202   6257     1
   3202   6274     1
   3205   6297     1
   3205   6280     1
   3210   3235     1
   3210   3232     1
   3210   3229     1
   3211   3226     1
   3211   3220     1
   3211   6331     1
   3214   3223     1
   3214   3220     1
   3214   6308     1
   3217   3223     1
   3217   3226     1
   3217   3238     1
   3223   6327     1
   3226   6304     1
   3232   6303     1
   3232   6320     1
   3235   6343     1
   3235   6326     1
   3240   3265     1
   3240   3262     1
   3240   3259     1
   3241   3256     1
   3241   3250     1
   3241   6377     1
   3244   3253     1
   3244   3250     1
   3244   6354     1
   3247   3253     1
   3247   3256     1
   3247   3268     1
   3253   6373     1
   3256   6350     1
   3262   6349     1
   3262   6366     1
   3265   6389     1
   3265   6372     1
   3270   3295     1
   3270   3292     1
   3270   3289     1
   3271   3286     1
   3271   3280     1
   3271   6423     1
   3274   3283     1
   3274   3280     1
   3274   6400     1
   3277   3283     1
   3277   3286     1
   3277   3298     1
   3283   6419     1
   3286   6396     1
   3292   6395     1
   3292   6412     1
   3295   6435     1
   3295   6418     1
   3300   3325     1
   3300   3322     1
   3300   3319     1
   3301   3316     1
   3301   3310     1
   3301   6469     1
   3304   3313     1
   3304   3310     1
   3304   6446     1
   3307   3313     1
   3307   3316     1
   3307   3328     1
   3313   6465     1
   3316   6442     1
   3322   6441     1
   3322   6458     1
   3325   6481     1
   3325   6464     1
   3330   3355     1
   3330   3352     1
   3330   3349     1
   3331   3346     1
   3331   3340     1
   3331   6515     1
   3334   3343     1
   3334   3340     1
   3334   6492     1
   3337   3343     1
   3337   3346     1
   3337   3358     1
   3343   6511     1
   3346   6488     1
   3352   6487     1
   3352   6504     1
   3355   6527     1
   3355   6510     1
   3360   3385     1
   3360   3382     1
   3360   3379     1
   3361   3376     1
   3361   3370     1
   3361   6561     1
   3364   3373     1
   3364   3370     1
   3364   6538     1
   3367   3373     1
   3367   3376     1
   3367   3388     1
   3373   6557     1
   3376   6534     1
   3382   6533     1
   3382   6550     1
   3385   6573     1
   3385   6556     1
   3390   3415     1
   3390   3412     1
   3390   3409     1
   3391   3406     1
   3391   3400     1
   3391   6607     1
   3394   3403     1
   3394   3400     1
   3394   6584     1
   3397   3403     1
   3397   3406     1
   3397   3418     1
   3403   6603     1
   3406   6580     1
   3412   6579     1
   3412   6596     1
   3415   6619     1
   3415   6602     1
   3420   3445     1
   3420   3442     1
   3420   3439     1
   3421   3436     1
   3421   3430     1
   3421   6653     1
   3424   3433     1
   3424   3430     1
   3424   6630     1
   3427   3433     1
   3427   3436     1
   3427   3448     1
   3433   6649     1
   3436   6626     1
   3442   6625     1
   3442   6642     1
   3445   6665     1
   3445   6648     1
   3450   3475     1
   3450   3472     1
   3450   3469     1
   3451   3466     1
   3451   3460     1
   3451   6699     1
   3454   3463     1
   3454   3460     1
   3454   6676     1
   3457   3463     1
   3457   3466     1
   3457   3478     1
   3463   6695     1
   3466   6672     1
   3472   6671     1
   3472   6688     1
   3475   6711     1
   3475   6694     1
   3480   3505     1
   3480   3502     1
   3480   3499     1
   3481   3496     1
   3481   3490     1
   3481   6745     1
   3484   3493     1
   3484   3490     1
   3484   6722     1
   3487   3493     1
   3487   3496     1
   3487   3508     1
   3493   6741     1
   3496   6718     1
   3502   6717     1
   3502   6734     1
   3505   6757     1
   3505   6740     1
   3510   3535     1
   3510   3532     1
   3510   3529     1
   3511   3526     1
   3511   3520     1
   3511   6791     1
   3514   3523     1
   3514   3520     1
   3514   6768     1
   3517   3523     1
   3517   3526     1
   3517   3538     1
   3523   6787     1
   3526   6764     1
   3532   6763     1
   3532   6780     1
   3535   6803     1
   3535   6786     1
   3540   3565     1
   3540   3562     1
   3540   3559     1
   3541   3556     1
   3541   3550     1
   3541   6837     1
   3544   3553     1
   3544   3550     1
   3544   6814     1
   3547   3553     1
   3547   3556     1
   3547   3568     1
   3553   6833     1
   3556   6810     1
   3562   6809     1
   3562   6826     1
   3565   6849     1
   3565   6832     1
   3570   3595     1
   3570   3592     1
   3570   3589     1
   3571   3586     1
   3571   3580     1
   3571   6883     1
   3574   3583     1
   3574   3580     1
   3574   6860     1
   3577   3583     1
   3577   3586     1
   3577   3598     1
   3583   6879     1
   3586   6856     1
   3592   6855     1
   3592   6872     1
   3595   6895     1
   3595   6878     1
   3600   3625     1
   3600   3622     1
   3600   3619     1
   3601   3616     1
   3601   3610     1
   3601   6929     1
   3604   3613     1
   3604   3610     1
   3604   6906     1
   3607   3613     1
   3607   3616     1
   3607   3628     1
   3613   6925     1
   3616   6902     1
   3622   6901     1
   3622   6918     1
   3625   6941     1
   3625   6924     1
   3630   3655     1
   3630   3652     1
   3630   3649     1
   3631   3646     1
   3631   3640     1
   3631   6975     1
   3634   3643     1
   3634   3640     1
   3634   6952     1
   3637   3643     1
   3637   3646     1
   3637   3658     1
   3643   6971     1
   3646   6948     1
   3652   6947     1
   3652   6964     1
   3655   6987     1
   3655   6970     1
   3660   3685     1
   3660   3682     1
   3660   3679     1
   3661   3676     1
   3661   3670     1
   3661   7021     1
   3664   3673     1
   3664   3670     1
   3664   6998     1
   3667   3673     1
   3667   3676     1
   3667   3688     1
   3673   7017     1
   3676   6994     1
   3682   6993     1
   3682   7010     1
   3685   7033     1
   3685   7016     1
   3690   3715     1
   3690   3712     1
   3690   3709     1
   3691   3706     1
   3691   3700     1
   3691   7067     1
   3694   3703     1
   3694   3700     1
   3694   7044     1
   3697   3703     1
   3697   3706     1
   3697   3718     1
   3703   7063     1
   3706   7040     1
   3712   7039     1
   3712   7056     1
   3715   7079     1
   3715   7062     1
   3720   3745     1
   3720   3742     1
   3720   3739     1
   3721   3736     1
   3721   3730     1
   3721   7113     1
   3724   3733     1
   3724   3730     1
   3724   7090     1
   3727   3733     1
   3727   3736     1
   3727   3748     1
   3733   7109     1
   3736   7086     1
   3742   7085     1
   3742   7102     1
   3745   7125     1
   3745   7108     1
   3750   3775     1
   3750   3772     1
   3750   3769     1
   3751   3766     1
   3751   3760     1
   3751   7159     1
   3754   3763     1
   3754   3760     1
   3754   7136     1
   3757   3763     1
   3757   3766     1
   3757   3778     1
   3763   7155     1
   3766   7132     1
   3772   7131     1
   3772   7148     1
   3775   7171     1
   3775   7154     1
   3780   3805     1
   3780   3802     1
   3780   3799     1
   3781   3796     1
   3781   3790     1
   3781   7205     1
   3784   3793     1
   3784   3790     1
   3784   7182     1
   3787   3793     1
   3787   3796     1
   3787   3808     1
   3793   7201     1
   3796   7178     1
   3802   7177     1
   3802   7194     1
   3805   7217     1
   3805   7200     1
   3810   3835     1
   3810   3832     1
   3810   3829     1
   3811   3826     1
   3811   3820     1
   3811   7251     1
   3814   3823     1
   3814   3820     1
   3814   7228     1
   3817   3823     1
   3817   3826     1
   3817   3838     1
   3823   7247     1
   3826   7224     1
   3832   7223     1
   3832   7240     1
   3835   7263     1
   3835   7246     1
   3840   3865     1
   3840   3862     1
   3840   3859     1
   3841   3856     1
   3841   3850     1
   3841   7297     1
   3844   3853     1
   3844   3850     1
   3844   7274     1
   3847   3853     1
   3847   3856     1
   3847   3868     1
   3853   7293     1
   3856   7270     1
   3862   7269     1
   3862   7286     1
   3865   7309     1
   3865   7292     1
   3870   3895     1
   3870   3892     1
   3870   3889     1
   3871   3886     1
   3871   3880     1
   3871   7343     1
   3874   3883     1
   3874   3880     1
   3874   7320     1
   3877   3883     1
   3877   3886     1
   3877   3898     1
   3883   7339     1
   3886   7316     1
   3892   7315     1
   3892   7332     1
   3895   7355     1
   3895   7338     1
   3900   3925     1
   3900   3922     1
   3900   3919     1
   3901   3916     1
   3901   3910     1
   3901   7389     1
   3904   3913     1
   3904   3910     1
   3904   7366     1
   3907   3913     1
   3907   3916     1
   3907   3928     1
   3913   7385     1
   3916   7362     1
   3922   7361     1
   3922   7378     1
   3925   7401     1
   3925   7384     1
   3930   3955     1
   3930   3952     1
   3930   3949     1
   3931   3946     1
   3931   3940     1
   3931   7435     1
   3934   3943     1
   3934   3940     1
   3934   7412     1
   3937   3943     1
   3937   3946     1
   3937   3958     1
   3943   7431     1
   3946   7408     1
   3952   7407     1
   3952   7424     1
   3955   7447     1
   3955   7430     1
   3960   3985     1
   3960   3982     1
   3960   3979     1
   3961   3976     1
   3961   3970     1
   3961   7481     1
   3964   3973     1
   3964   3970     1
   3964   7458     1
   3967   3973     1
   3967   3976     1
   3967   3988     1
   3973   7477     1
   3976   7454     1
   3982   7453     1
   3982   7470     1
   3985   7493     1
   3985   7476     1
   3990   4015     1
   3990   4012     1
   3990   4009     1
   3991   4006     1
   3991   4000     1
   3991   7527     1
   3994   4003     1
   3994   4000     1
   3994   7504     1
   3997   4003     1
   3997   4006     1
   3997   4018     1
   4003   7523     1
   4006   7500     1
   4012   7499     1
   4012   7516     1
   4015   7539     1
   4015   7522     1
   4020   4045     1
   4020   4042     1
   4020   4039     1
   4021   4036     1
   4021   4030     1
   4021   7573     1
   4024   4033     1
   4024   4030     1
   4024   7550     1
   4027   4033     1
   4027   4036     1
   4027   4048     1
   4033   7569     1
   4036   7546     1
   4042   7545     1
   4042   7562     1
   4045   7585     1
   4045   7568     1
   4050   4075     1
   4050   4072     1
   4050   4069     1
   4051   4066     1
   4051   4060     1
   4051   7619     1
   4054   4063     1
   4054   4060     1
   4054   7596     1
   4057   4063     1
   4057   4066     1
   4057   4078     1
   4063   7615     1
   4066   7592     1
   4072   7591     1
   4072   7608     1
   4075   7631     1
   4075   7614     1
   4080   4105     1
   4080   4102     1
   4080   4099     1
   4081   4096     1
   4081   4090     1
   4081   7665     1
   4084   4093     1
   4084   4090     1
   4084   7642     1
   4087   4093     1
   4087   4096     1
   4087   4108     1
   4093   7661     1
   4096   7638     1
   4102   7637     1
   4102   7654     1
   4105   7677     1
   4105   7660     1
   4110   4135     1
   4110   4132     1
   4110   4129     1
   4111   4126     1
   4111   4120     1
   4111   7711     1
   4114   4123     1
   4114   4120     1
   4114   7688     1
   4117   4123     1
   4117   4126     1
   4117   4138     1
   4123   7707     1
   4126   7684     1
   4132   7683     1
   4132   7700     1
   4135   7723     1
   4135   7706     1
   4140   4165     1
   4140   4162     1
   4140   4159     1
   4141   4156     1
   4141   4150     1
   4141   7757     1
   4144   4153     1
   4144   4150     1
   4144   7734     1
   4147   4153     1
   4147   4156     1
   4147   4168     1
   4153   7753     1
   4156   7730     1
   4162   7729     1
   4162   7746     1
   4165   7769     1
   4165   7752     1
   4170   4195     1
   4170   4192     1
   4170   4189     1
   4171   4186     1
   4171   4180     1
   4171   7803     1
   4174   4183     1
   4174   4180     1
   4174   7780     1
   4177   4183     1
   4177   4186     1
   4177   4198     1
   4183   7799     1
   4186   7776     1
   4192   7775     1
   4192   7792     1
   4195   7815     1
   4195   7798     1
   4200   4225     1
   4200   4222     1
   4200   4219     1
   4201   4216     1
   4201   4210     1
   4201   7849     1
   4204   4213     1
   4204   4210     1
   4204   7826     1
   4207   4213     1
   4207   4216     1
   4207   4228     1
   4213   7845     1
   4216   7822     1
   4222   7821     1
   4222   7838     1
   4225   7861     1
   4225   7844     1
   4230   4255     1
   4230   4252     1
   4230   4249     1
   4231   4246     1
   4231   4240     1
   4231   7895     1
   4234   4243     1
   4234   4240     1
   4234   7872     1
   4237   4243     1
   4237   4246     1
   4237   4258     1
   4243   7891     1
   4246   7868     1
   4252   7867     1
   4252   7884     1
   4255   7907     1
   4255   7890     1
   4260   4285     1
   4260   4282     1
   4260   4279     1
   4261   4276     1
   4261   4270     1
   4261   7941     1
   4264   4273     1
   4264   4270     1
   4264   7918     1
   4267   4273     1
   4267   4276     1
   4267   4288     1
   4273   7937     1
   4276   7914     1
   4282   7913     1
   4282   7930     1
   4285   7953     1
   4285   7936     1
   4290   4315     1
   4290   4312     1
   4290   4309     1
   4291   4306     1
   4291   4300     1
   4291   7987     1
   4294   4303     1
   4294   4300     1
   4294   7964     1
   4297   4303     1
   4297   4306     1
   4297   4318     1
   4303   7983     1
   4306   7960     1
   4312   7959     1
   4312   7976     1
   4315   7999     1
   4315   7982     1
   4320   4345     1
   4320   4342     1
   4320   4339     1
   4321   4336     1
   4321   4330     1
   4321   8033     1
   4324   4333     1
   4324   4330     1
   4324   8010     1
   4327   4333     1
   4327   4336     1
   4327   4348     1
   4333   8029     1
   4336   8006     1
   4342   8005     1
   4342   8022     1
   4345   8045     1
   4345   8028     1
   4350   4375     1
   4350   4372     1
   4350   4369     1
   4351   4366     1
   4351   4360     1
   4351   8079     1
   4354   4363     1
   4354   4360     1
   4354   8056     1
   4357   4363     1
   4357   4366     1
   4357   4378     1
   4363   8075     1
   4366   8052     1
   4372   8051     1
   4372   8068     1
   4375   8091     1
   4375   8074     1
   4380   4405     1
   4380   4402     1
   4380   4399     1
   4381   4396     1
   4381   4390     1
   4381   8125     1
   4384   4393     1
   4384   4390     1
   4384   8102     1
   4387   4393     1
   4387   4396     1
   4387   4408     1
   4393   8121     1
   4396   8098     1
   4402   8097     1
   4402   8114     1
   4405   8137     1
   4405   8120     1
   4410   4435     1
   4410   4432     1
   4410   4429     1
   4411   4426     1
   4411   4420     1
   4411   8171     1
   4414   4423     1
   4414   4420     1
   4414   8148     1
   4417   4423     1
   4417   4426     1
   4417   4438     1
   4423   8167     1
   4426   8144     1
   4432   8143     1
   4432   8160     1
   4435   8183     1
   4435   8166     1
   4440   4465     1
   4440   4462     1
   4440   4459     1
   4441   4456     1
   4441   4450     1
   4441   8217     1
   4444   4453     1
   4444   4450     1
   4444   8194     1
   4447   4453     1
   4447   4456     1
   4447   4468     1
   4453   8213     1
   4456   8190     1
   4462   8189     1
   4462   8206     1
   4465   8229     1
   4465   8212     1
   4470   4495     1
   4470   4492     1
   4470   4489     1
   4471   4486     1
   4471   4480     1
   4471   8263     1
   4474   4483     1
   4474   4480     1
   4474   8240     1
   4477   4483     1
   4477   4486     1
   4477   4498     1
   4483   8259     1
   4486   8236     1
   4492   8235     1
   4492   8252     1
   4495   8275     1
   4495   8258     1
   4500   4525     1
   4500   4522     1
   4500   4519     1
   4501   4516     1
   4501   4510     1
   4501   8309     1
   4504   4513     1
   4504   4510     1
   4504   8286     1
   4507   4513     1
   4507   4516     1
   4507   4528     1
   4513   8305     1
   4516   8282     1
   4522   8281     1
   4522   8298     1
   4525   8321     1
   4525   8304     1
   4530   4555     1
   4530   4552     1
   4530   4549     1
   4531   4546     1
   4531   4540     1
   4531   8355     1
   4534   4543     1
   4534   4540     1
   4534   8332     1
   4537   4543     1
   4537   4546     1
   4537   4558     1
   4543   8351     1
   4546   8328     1
   4552   8327     1
   4552   8344     1
   4555   8367     1
   4555   8350     1
   4560   4585     1
   4560   4582     1
   4560   4579     1
   4561   4576     1
   4561   4570     1
   4561   8401     1
   4564   4573     1
   4564   4570     1
   4564   8378     1
   4567   4573     1
   4567   4576     1
   4567   4588     1
   4573   8397     1
   4576   8374     1
   4582   8373     1
   4582   8390     1
   4585   8413     1
   4585   8396     1
   4590   4615     1
   4590   4612     1
   4590   4609     1
   4591   4606     1
   4591   4600     1
   4591   8447     1
   4594   4603     1
   4594   4600     1
   4594   8424     1
   4597   4603     1
   4597   4606     1
   4597   4618     1
   4603   8443     1
   4606   8420     1
   4612   8419     1
   4612   8436     1
   4615   8459     1
   4615   8442     1
   4620   4645     1
   4620   4642     1
   4620   4639     1
   4621   4636     1
   4621   4630     1
   4621   8493     1
   4624   4633     1
   4624   4630     1
   4624   8470     1
   4627   4633     1
   4627   4636     1
   4627   4648     1
   4633   8489     1
   4636   8466     1
   4642   8465     1
   4642   8482     1
   4645   8505     1
   4645   8488     1
   4650   4675     1
   4650   4672     1
   4650   4669     1
   4651   4666     1
   4651   4660     1
   4651   8539     1
   4654   4663     1
   4654   4660     1
   4654   8516     1
   4657   4663     1
   4657   4666     1
   4657   4678     1
   4663   8535     1
   4666   8512     1
   4672   8511     1
   4672   8528     1
   4675   8551     1
   4675   8534     1
   4680   4705     1
   4680   4702     1
   4680   4699     1
   4681   4696     1
   4681   4690     1
   4681   8585     1
   4684   4693     1
   4684   4690     1
   4684   8562     1
   4687   4693     1
   4687   4696     1
   4687   4708     1
   4693   8581     1
   4696   8558     1
   4702   8557     1
   4702   8574     1
   4705   8597     1
   4705   8580     1
   4710   4735     1
   4710   4732     1
   4710   4729     1
   4711   4726     1
   4711   4720     1
   4711   8631     1
   4714   4723     1
   4714   4720     1
   4714   8608     1
   4717   4723     1
   4717   4726     1
   4717   4738     1
   4723   8627     1
   4726   8604     1
   4732   8603     1
   4732   8620     1
   4735   8643     1
   4735   8626     1
   4740   4765     1
   4740   4762     1
   4740   4759     1
   4741   4756     1
   4741   4750     1
   4741   8677     1
   4744   4753     1
   4744   4750     1
   4744   8654     1
   4747   4753     1
   4747   4756     1
   4747   4768     1
   4753   8673     1
   4756   8650     1
   4762   8649     1
   4762   8666     1
   4765   8689     1
   4765   8672     1
   4770   4795     1
   4770   4792     1
   4770   4789     1
   4771   4786     1
   4771   4780     1
   4771   8723     1
   4774   4783     1
   4774   4780     1
   4774   8700     1
   4777   4783     1
   4777   4786     1
   4777   4798     1
   4783   8719     1
   4786   8696     1
   4792   8695     1
   4792   8712     1
   4795   8735     1
   4795   8718     1
   4800   4825     1
   4800   4822     1
   4800   4819     1
   4801   4816     1
   4801   4810     1
   4801   8769     1
   4804   4813     1
   4804   4810     1
   4804   8746     1
   4807   4813     1
   4807   4816     1
   4807   4828     1
   4813   8765     1
   4816   8742     1
   4822   8741     1
   4822   8758     1
   4825   8781     1
   4825   8764     1
   4830   4855     1
   4830   4852     1
   4830   4849     1
   4831   4846     1
   4831   4840     1
   4831   8815     1
   4834   4843     1
   4834   4840     1
   4834   8792     1
   4837   4843     1
   4837   4846     1
   4837   4858     1
   4843   8811     1
   4846   8788     1
   4852   8787     1
   4852   8804     1
   4855   8827     1
   4855   8810     1
   4860   4885     1
   4860   4882     1
   4860   4879     1
   4861   4876     1
   4861   4870     1
   4861   8861     1
   4864   4873     1
   4864   4870     1
   4864   8838     1
   4867   4873     1
   4867   4876     1
   4867   4888     1
   4873   8857     1
   4876   8834     1
   4882   8833     1
   4882   8850     1
   4885   8873     1
   4885   8856     1
   4890   4915     1
   4890   4912     1
   4890   4909     1
   4891   4906     1
   4891   4900     1
   4891   8907     1
   4894   4903     1
   4894   4900     1
   4894   8884     1
   4897   4903     1
   4897   4906     1
   4897   4918     1
   4903   8903     1
   4906   8880     1
   4912   8879     1
   4912   8896     1
   4915   8919     1
   4915   8902     1
   4920   4945     1
   4920   4942     1
   4920   4939     1
   4921   4936     1
   4921   4930     1
   4921   8953     1
   4924   4933     1
   4924   4930     1
   4924   8930     1
   4927   4933     1
   4927   4936     1
   4927   4948     1
   4933   8949     1
   4936   8926     1
   4942   8925     1
   4942   8942     1
   4945   8965     1
   4945   8948     1
   4950   4975     1
   4950   4972     1
   4950   4969     1
   4951   4966     1
   4951   4960     1
   4951   8999     1
   4954   4963     1
   4954   4960     1
   4954   8976     1
   4957   4963     1
   4957   4966     1
   4957   4978     1
   4963   8995     1
   4966   8972     1
   4972   8971     1
   4972   8988     1
   4975   9011     1
   4975   8994     1
   4980   5005     1
   4980   5002     1
   4980   4999     1
   4981   4996     1
   4981   4990     1
   4981   9045     1
   4984   4993     1
   4984   4990     1
   4984   9022     1
   4987   4993     1
   4987   4996     1
   4987   5008     1
   4993   9041     1
   4996   9018     1
   5002   9017     1
   5002   9034     1
   5005   9057     1
   5005   9040     1
   5010   5035     1
   5010   5032     1
   5010   5029     1
   5011   5026     1
   5011   5020     1
   5011   9091     1
   5014   5023     1
   5014   5020     1
   5014   9068     1
   5017   5023     1
   5017   5026     1
   5017   5038     1
   5023   9087     1
   5026   9064     1
   5032   9063     1
   5032   9080     1
   5035   9103     1
   5035   9086     1
   5040   5065     1
   5040   5062     1
   5040   5059     1
   5041   5056     1
   5041   5050     1
   5041   9137     1
   5044   5053     1
   5044   5050     1
   5044   9114     1
   5047   5053     1
   5047   5056     1
   5047   5068     1
   5053   9133     1
   5056   9110     1
   5062   9109     1
   5062   9126     1
   5065   9149     1
   5065   9132     1
   5070   5095     1
   5070   5092     1
   5070   5089     1
   5071   5086     1
   5071   5080     1
   5071   9183     1
   5074   5083     1
   5074   5080     1
   5074   9160     1
   5077   5083     1
   5077   5086     1
   5077   5098     1
   5083   9179     1
   5086   9156     1
   5092   9155     1
   5092   9172     1
   5095   9195     1
   5095   9178     1
   5100   5125     1
   5100   5122     1
   5100   5119     1
   5101   5116     1
   5101   5110     1
   5101   9229     1
   5104   5113     1
   5104   5110     1
   5104   9206     1
   5107   5113     1
   5107   5116     1
   5107   5128     1
   5113   9225     1
   5116   9202     1
   5122   9201     1
   5122   9218     1
   5125   9241     1
   5125   9224     1
   5130   5155     1
   5130   5152     1
   5130   5149     1
   5131   5146     1
   5131   5140     1
   5131   9275     1
   5134   5143     1
   5134   5140     1
   5134   9252     1
   5137   5143     1
   5137   5146     1
   5137   5158     1
   5143   9271     1
   5146   9248     1
   5152   9247     1
   5152   9264     1
   5155   9287     1
   5155   9270     1
   5160   5185     1
   5160   5182     1
   5160   5179     1
   5161   5176     1
   5161   5170     1
   5161   9321     1
   5164   5173     1
   5164   5170     1
   5164   9298     1
   5167   5173     1
   5167   5176     1
   5167   5188     1
   5173   9317     1
   5176   9294     1
   5182   9293     1
   5182   9310     1
   5185   9333     1
   5185   9316     1
   5190   5215     1
   5190   5212     1
   5190   5209     1
   5191   5206     1
   5191   5200     1
   5191   9367     1
   5194   5203     1
   5194   5200     1
   5194   9344     1
   5197   5203     1
   5197   5206     1
   5197   5218     1
   5203   9363     1
   5206   9340     1
   5212   9339     1
   5212   9356     1
   5215   9379     1
   5215   9362     1
   5220   5245     1
   5220   5242     1
   5220   5239     1
   5221   5236     1
   5221   5230     1
   5221   9413     1
   5224   5233     1
   5224   5230     1
   5224   9390     1
   5227   5233     1
   5227   5236     1
   5227   5248     1
   5233   9409     1
   5236   9386     1
   5242   9385     1
   5242   9402     1
   5245   9425     1
   5245   9408     1
   5250   5275     1
   5250   5272     1
   5250   5269     1
   5251   5266     1
   5251   5260     1
   5251   9459     1
   5254   5263     1
   5254   5260     1
   5254   9436     1
   5257   5263     1
   5257   5266     1
   5257   5278     1
   5263   9455     1
   5266   9432     1
   5272   9431     1
   5272   9448     1
   5275   9471     1
   5275   9454     1
   5280   5305     1
   5280   5302     1
   5280   5299     1
   5281   5296     1
   5281   5290     1
   5281   9505     1
   5284   5293     1
   5284   5290     1
   5284   9482     1
   5287   5293     1
   5287   5296     1
   5287   5308     1
   5293   9501     1
   5296   9478     1
   5302   9477     1
   5302   9494     1
   5305   9517     1
   5305   9500     1
   5310   5335     1
   5310   5332     1
   5310   5329     1
   5311   5326     1
   5311   5320     1
   5311   9551     1
   5314   5323     1
   5314   5320     1
   5314   9528     1
   5317   5323     1
   5317   5326     1
   5317   5338     1
   5323   9547     1
   5326   9524     1
   5332   9523     1
   5332   9540     1
   5335   9563     1
   5335   9546     1
   5340   5365     1
   5340   5362     1
   5340   5359     1
   5341   5356     1
   5341   5350     1
   5341   9597     1
   5344   5353     1
   5344   5350     1
   5344   9574     1
   5347   5353     1
   5347   5356     1
   5347   5368     1
   5353   9593     1
   5356   9570     1
   5362   9569     1
   5362   9586     1
   5365   9609     1
   5365   9592     1
   5370   5395     1
   5370   5392     1
   5370   5389     1
   5371   5386     1
   5371   5380     1
   5371   9643     1
   5374   5383     1
   5374   5380     1
   5374   9620     1
   5377   5383     1
   5377   5386     1
   5377   5398     1
   5383   9639     1
   5386   9616     1
   5392   9615     1
   5392   9632     1
   5395   9655     1
   5395   9638     1
   5400   5425     1
   5400   5422     1
   5400   5419     1
   5401   5416     1
   5401   5410     1
   5401   9689     1
   5404   5413     1
   5404   5410     1
   5404   9666     1
   5407   5413     1
   5407   5416     1
   5407   5428     1
   5413   9685     1
   5416   9662     1
   5422   9661     1
   5422   9678     1
   5425   9701     1
   5425   9684     1
   5430   5455     1
   5430   5452     1
   5430   5449     1
   5431   5446     1
   5431   5440     1
   5431   9735     1
   5434   5443     1
   5434   5440     1
   5434   9712     1
   5437   5443     1
   5437   5446     1
   5437   5458     1
   5443   9731     1
   5446   9708     1
   5452   9707     1
   5452   9724     1
   5455   9747     1
   5455   9730     1
   5460   5485     1
   5460   5482     1
   5460   5479     1
   5461   5476     1
   5461   5470     1
   5461   9781     1
   5464   5473     1
   5464   5470     1
   5464   9758     1
   5467   5473     1
   5467   5476     1
   5467   5488     1
   5473   9777     1
   5476   9754     1
   5482   9753     1
   5482   9770     1
   5485   9793     1
   5485   9776     1
   5490   5515     1
   5490   5512     1
   5490   5509     1
   5491   5506     1
   5491   5500     1
   5491   9827     1
   5494   5503     1
   5494   5500     1
   5494   9804     1
   5497   5503     1
   5497   5506     1
   5497   5518     1
   5503   9823     1
   5506   9800     1
   5512   9799     1
   5512   9816     1
   5515   9839     1
   5515   9822     1
   5520   5545     1
   5520   5542     1
   5520   5539     1
   5521   5536     1
   5521   5530     1
   5521   9873     1
   5524   5533     1
   5524   5530     1
   5524   9850     1
   5527   5533     1
   5527   5536     1
   5527   5548     1
   5533   9869     1
   5536   9846     1
   5542   9845     1
   5542   9862     1
   5545   9885     1
   5545   9868     1
   5550   5575     1
   5550   5572     1
   5550   5569     1
   5551   5566     1
   5551   5560     1
   5551   9919     1
   5554   5563     1
   5554   5560     1
   5554   9896     1
   5557   5563     1
   5557   5566     1
   5557   5578     1
   5563   9915     1
   5566   9892     1
   5572   9891     1
   5572   9908     1
   5575   9931     1
   5575   9914     1
   5580   5605     1
   5580   5602     1
   5580   5599     1
   5581   5596     1
   5581   5590     1
   5581   9965     1
   5584   5593     1
   5584   5590     1
   5584   9942     1
   5587   5593     1
   5587   5596     1
   5587   5608     1
   5593   9961     1
   5596   9938     1
   5602   9937     1
   5602   9954     1
   5605   9977     1
   5605   9960     1
   5610   5635     1
   5610   5632     1
   5610   5629     1
   5611   5626     1
   5611   5620     1
   5611  10011     1
   5614   5623     1
   5614   5620     1
   5614   9988     1
   5617   5623     1
   5617   5626     1
   5617   5638     1
   5623  10007     1
   5626   9984     1
   5632   9983     1
   5632  10000     1
   5635  10023     1
   5635  10006     1
   5640   5665     1
   5640   5662     1
   5640   5659     1
   5641   5656     1
   5641   5650     1
   5641  10057     1
   5644   5653     1
   5644   5650     1
   5644  10034     1
   5647   5653     1
   5647   5656     1
   5647   5668     1
   5653  10053     1
   5656  10030     1
   5662  10029     1
   5662  10046     1
   5665  10069     1
   5665  10052     1
   5670   5695     1
   5670   5692     1
   5670   5689     1
   5671   5686     1
   5671   5680     1
   5671  10103     1
   5674   5683     1
   5674   5680     1
   5674  10080     1
   5677   5683     1
   5677   5686     1
   5677   5698     1
   5683  10099     1
   5686  10076     1
   5692  10075     1
   5692  10092     1
   5695  10115     1
   5695  10098     1
   5700   5705     1
   5700   5712     1
   5700   5710     1
   5701   5720     1
   5701   5706     1
   5701   5711     1
   5704   5714     1
   5704   5722     1
   5704   5710     1
   5705   5713     1
   5706   5712     1
   5706   5714     1
   5710   5711     1
   5711   5712     1
   5711   5722     1
   5712   5713     1
   5713   5714     1
   5713   5722     1
   5720   5722     1
   5723   5728     1
   5723   5735     1
   5723   5733     1
   5724   5729     1
   5724   5734     1
   5724   5743     1
   5727   5733     1
   5727   5745     1
   5727   5737     1
   5728   5736     1
   5729   5737     1
   5729   5735     1
   5733   5734     1
   5734   5745     1
   5734   5735     1
   5735   5736     1
   5736   5737     1
   5736   5745     1
   5743   5745     1
   5746   5751     1
   5746   5758     1
   5746   5756     1
   5747   5766     1
   5747   5752     1
   5747   5757     1
   5750   5760     1
   5750   5768     1
   5750   5756     1
   5751   5759     1
   5752   5758     1
   5752   5760     1
   5756   5757     1
   5757   5758     1
   5757   5768     1
   5758   5759     1
   5759   5760     1
   5759   5768     1
   5766   5768     1
   5769   5774     1
   5769   5781     1
   5769   5779     1
   5770   5775     1
   5770   5780     1
   5770   5789     1
   5773   5779     1
   5773   5791     1
   5773   5783     1
   5774   5782     1
   5775   5783     1
   5775   5781     1
   5779   5780     1
   5780   5791     1
   5780   5781     1
   5781   5782     1
   5782   5783     1
   5782   5791     1
   5789   5791     1
   5792   5797     1
   5792   5804     1
   5792   5802     1
   5793   5812     1
   5793   5798     1
   5793   5803     1
   5796   5806     1
   5796   5814     1
   5796   5802     1
   5797   5805     1
   5798   5804     1
   5798   5806     1
   5802   5803     1
   5803   5804     1
   5803   5814     1
   5804   5805     1
   5805   5806     1
   5805   5814     1
   5812   5814     1
   5815   5820     1
   5815   5827     1
   5815   5825     1
   5816   5821     1
   5816   5826     1
   5816   5835     1
   5819   5825     1
   5819   5837     1
   5819   5829     1
   5820   5828     1
   5821   5829     1
   5821   5827     1
   5825   5826     1
   5826   5837     1
   5826   5827     1
   5827   5828     1
   5828   5829     1
   5828   5837     1
   5835   5837     1
   5838   5843     1
   5838   5850     1
   5838   5848     1
   5839   5858     1
   5839   5844     1
   5839   5849     1
   5842   5852     1
   5842   5860     1
   5842   5848     1
   5843   5851     1
   5844   5850     1
   5844   5852     1
   5848   5849     1
   5849   5850     1
   5849   5860     1
   5850   5851     1
   5851   5852     1
   5851   5860     1
   5858   5860     1
   5861   5866     1
   5861   5873     1
   5861   5871     1
   5862   5867     1
   5862   5872     1
   5862   5881     1
   5865   5871     1
   5865   5883     1
   5865   5875     1
   5866   5874     1
   5867   5875     1
   5867   5873     1
   5871   5872     1
   5872   5883     1
   5872   5873     1
   5873   5874     1
   5874   5875     1
   5874   5883     1
   5881   5883     1
   5884   5889     1
   5884   5896     1
   5884   5894     1
   5885   5904     1
   5885   5890     1
   5885   5895     1
   5888   5898     1
   5888   5906     1
   5888   5894     1
   5889   5897     1
   5890   5896     1
   5890   5898     1
   5894   5895     1
   5895   5896     1
   5895   5906     1
   5896   5897     1
   5897   5898     1
   5897   5906     1
   5904   5906     1
   5907   5912     1
   5907   5919     1
   5907   5917     1
   5908   5913     1
   5908   5918     1
   5908   5927     1
   5911   5917     1
   5911   5929     1
   5911   5921     1
   5912   5920     1
   5913   5921     1
   5913   5919     1
   5917   5918     1
   5918   5929     1
   5918   5919     1
   5919   5920     1
   5920   5921     1
   5920   5929     1
   5927   5929     1
   5930   5935     1
   5930   5942     1
   5930   5940     1
   5931   5950     1
   5931   5936     1
   5931   5941     1
   5934   5944     1
   5934   5952     1
   5934   5940     1
   5935   5943     1
   5936   5942     1
   5936   5944     1
   5940   5941     1
   5941   5942     1
   5941   5952     1
   5942   5943     1
   5943   5944     1
   5943   5952     1
   5950   5952     1
   5953   5958     1
   5953   5965     1
   5953   5963     1
   5954   5959     1
   5954   5964     1
   5954   5973     1
   5957   5963     1
   5957   5975     1
   5957   5967     1
   5958   5966     1
   5959   5967     1
   5959   5965     1
   5963   5964     1
   5964   5975     1
   5964   5965     1
   5965   5966     1
   5966   5967     1
   5966   5975     1
   5973   5975     1
   5976   5981     1
   5976   5988     1
   5976   5986     1
   5977   5996     1
   5977   5982     1
   5977   5987     1
   5980   5990     1
   5980   5998     1
   5980   5986     1
   5981   5989     1
   5982   5988     1
   5982   5990     1
   5986   5987     1
   5987   5988     1
   5987   5998     1
   5988   5989     1
   5989   5990     1
   5989   5998     1
   5996   5998     1
   5999   6004     1
   5999   6011     1
   5999   6009     1
   6000   6005     1
   6000   6010     1
   6000   6019     1
   6003   6009     1
   6003   6021     1
   6003   6013     1
   6004   6012     1
   6005   6013     1
   6005   6011     1
   6009   6010     1
   6010   6021     1
   6010   6011     1
   6011   6012     1
   6012   6013     1
   6012   6021     1
   6019   6021     1
   6022   6027     1
   6022   6034     1
   6022   6032     1
   6023   6042     1
   6023   6028     1
   6023   6033     1
   6026   6036     1
   6026   6044     1
   6026   6032     1
   6027   6035     1
   6028   6034     1
   6028   6036     1
   6032   6033     1
   6033   6034     1
   6033   6044     1
   6034   6035     1
   6035   6036     1
   6035   6044     1
   6042   6044     1
   6045   6050     1
   6045   6057     1
   6045   6055     1
   6046   6051     1
   6046   6056     1
   6046   6065     1
   6049   6055     1
   6049   6067     1
   6049   6059     1
   6050   6058     1
   6051   6059     1
   6051   6057     1
   6055   6056     1
   6056   6067     1
   6056   6057     1
   6057   6058     1
   6058   6059     1
   6058   6067     1
   6065   6067     1
   6068   6073     1
   6068   6080     1
   6068   6078     1
   6069   6088     1
   6069   6074     1
   6069   6079     1
   6072   6082     1
   6072   6090     1
   6072   6078     1
   6073   6081     1
   6074   6080     1
   6074   6082     1
   6078   6079     1
   6079   6080     1
   6079   6090     1
   6080   6081     1
   6081   6082     1
   6081   6090     1
   6088   6090     1
   6091   6096     1
   6091   6103     1
   6091   6101     1
   6092   6097     1
   6092   6102     1
   6092   6111     1
   6095   6101     1
   6095   6113     1
   6095   6105     1
   6096   6104     1
   6097   6105     1
   6097   6103     1
   6101   6102     1
   6102   6113     1
   6102   6103     1
   6103   6104     1
   6104   6105     1
   6104   6113     1
   6111   6113     1
   6114   6119     1
   6114   6126     1
   6114   6124     1
   6115   6134     1
   6115   6120     1
   6115   6125     1
   6118   6128     1
   6118   6136     1
   6118   6124     1
   6119   6127     1
   6120   6126     1
   6120   6128     1
   6124   6125     1
   6125   6126     1
   6125   6136     1
   6126   6127     1
   6127   6128     1
   6127   6136     1
   6134   6136     1
   6137   6142     1
   6137   6149     1
   6137   6147     1
   6138   6143     1
   6138   6148     1
   6138   6157     1
   6141   6147     1
   6141   6159     1
   6141   6151     1
   6142   6150     1
   6143   6151     1
   6143   6149     1
   6147   6148     1
   6148   6159     1
   6148   6149     1
   6149   6150     1
   6150   6151     1
   6150   6159     1
   6157   6159     1
   6160   6165     1
   6160   6172     1
   6160   6170     1
   6161   6180     1
   6161   6166     1
   6161   6171     1
   6164   6174     1
   6164   6182     1
   6164   6170     1
   6165   6173     1
   6166   6172     1
   6166   6174     1
   6170   6171     1
   6171   6172     1
   6171   6182     1
   6172   6173     1
   6173   6174     1
   6173   6182     1
   6180   6182     1
   6183   6188     1
   6183   6195     1
   6183   6193     1
   6184   6189     1
   6184   6194     1
   6184   6203     1
   6187   6193     1
   6187   6205     1
   6187   6197     1
   6188   6196     1
   6189   6197     1
   6189   6195     1
   6193   6194     1
   6194   6205     1
   6194   6195     1
   6195   6196     1
   6196   6197     1
   6196   6205     1
   6203   6205     1
   6206   6211     1
   6206   6218     1
   6206   6216     1
   6207   6226     1
   6207   6212     1
   6207   6217     1
   6210   6220     1
   6210   6228     1
   6210   6216     1
   6211   6219     1
   6212   6218     1
   6212   6220     1
   6216   6217     1
   6217   6218     1
   6217   6228     1
   6218   6219     1
   6219   6220     1
   6219   6228     1
   6226   6228     1
   6229   6234     1
   6229   6241     1
   6229   6239     1
   6230   6235     1
   6230   6240     1
   6230   6249     1
   6233   6239     1
   6233   6251     1
   6233   6243     1
   6234   6242     1
   6235   6243     1
   6235   6241     1
   6239   6240     1
   6240   6251     1
   6240   6241     1
   6241   6242     1
   6242   6243     1
   6242   6251     1
   6249   6251     1
   6252   6257     1
   6252   6264     1
   6252   6262     1
   6253   6272     1
   6253   6258     1
   6253   6263     1
   6256   6266     1
   6256   6274     1
   6256   6262     1
   6257   6265     1
   6258   6264     1
   6258   6266     1
   6262   6263     1
   6263   6264     1
   6263   6274     1
   6264   6265     1
   6265   6266     1
   6265   6274     1
   6272   6274     1
   6275   6280     1
   6275   6287     1
   6275   6285     1
   6276   6281     1
   6276   6286     1
   6276   6295     1
   6279   6285     1
   6279   6297     1
   6279   6289     1
   6280   6288     1
   6281   6289     1
   6281   6287     1
   6285   6286     1
   6286   6297     1
   6286   6287     1
   6287   6288     1
   6288   6289     1
   6288   6297     1
   6295   6297     1
   6298   6303     1
   6298   6310     1
   6298   6308     1
   6299   6318     1
   6299   6304     1
   6299   6309     1
   6302   6312     1
   6302   6320     1
   6302   6308     1
   6303   6311     1
   6304   6310     1
   6304   6312     1
   6308   6309     1
   6309   6310     1
   6309   6320     1
   6310   6311     1
   6311   6312     1
   6311   6320     1
   6318   6320     1
   6321   6326     1
   6321   6333     1
   6321   6331     1
   6322   6327     1
   6322   6332     1
   6322   6341     1
   6325   6331     1
   6325   6343     1
   6325   6335     1
   6326   6334     1
   6327   6335     1
   6327   6333     1
   6331   6332     1
   6332   6343     1
   6332   6333     1
   6333   6334     1
   6334   6335     1
   6334   6343     1
   6341   6343     1
   6344   6349     1
   6344   6356     1
   6344   6354     1
   6345   6364     1
   6345   6350     1
   6345   6355     1
   6348   6358     1
   6348   6366     1
   6348   6354     1
   6349   6357     1
   6350   6356     1
   6350   6358     1
   6354   6355     1
   6355   6356     1
   6355   6366     1
   6356   6357     1
   6357   6358     1
   6357   6366     1
   6364   6366     1
   6367   6372     1
   6367   6379     1
   6367   6377     1
   6368   6373     1
   6368   6378     1
   6368   6387     1
   6371   6377     1
   6371   6389     1
   6371   6381     1
   6372   6380     1
   6373   6381     1
   6373   6379     1
   6377   6378     1
   6378   6389     1
   6378   6379     1
   6379   6380     1
   6380   6381     1
   6380   6389     1
   6387   6389     1
   6390   6395     1
   6390   6402     1
   6390   6400     1
   6391   6410     1
   6391   6396     1
   6391   6401     1
   6394   6404     1
   6394   6412     1
   6394   6400     1
   6395   6403     1
   6396   6402     1
   6396   6404     1
   6400   6401     1
   6401   6402     1
   6401   6412     1
   6402   6403     1
   6403   6404     1
   6403   6412     1
   6410   6412     1
   6413   6418     1
   6413   6425     1
   6413   6423     1
   6414   6419     1
   6414   6424     1
   6414   6433     1
   6417   6423     1
   6417   6435     1
   6417   6427     1
   6418   6426     1
   6419   6427     1
   6419   6425     1
   6423   6424     1
   6424   6435     1
   6424   6425     1
   6425   6426     1
   6426   6427     1
   6426   6435     1
   6433   6435     1
   6436   6441     1
   6436   6448     1
   6436   6446     1
   6437   6456     1
   6437   6442     1
   6437   6447     1
   6440   6450     1
   6440   6458     1
   6440   6446     1
   6441   6449     1
   6442   6448     1
   6442   6450     1
   6446   6447     1
   6447   6448     1
   6447   6458     1
   6448   6449     1
   6449   6450     1
   6449   6458     1
   6456   6458     1
   6459   6464     1
   6459   6471     1
   6459   6469     1
   6460   6465     1
   6460   6470     1
   6460   6479     1
   6463   6469     1
   6463   6481     1
   6463   6473     1
   6464   6472     1
   6465   6473     1
   6465   6471     1
   6469   6470     1
   6470   6481     1
   6470   6471     1
   6471   6472     1
   6472   6473     1
   6472   6481     1
   6479   6481     1
   6482   6487     1
   6482   6494     1
   6482   6492     1
   6483   6502     1
   6483   6488     1
   6483   6493     1
   6486   6496     1
   6486   6504     1
   6486   6492     1
   6487   6495     1
   6488   6494     1
   6488   6496     1
   6492   6493     1
   6493   6494     1
   6493   6504     1
   6494   6495     1
   6495   6496     1
   6495   6504     1
   6502   6504     1
   6505   6510     1
   6505   6517     1
   6505   6515     1
   6506   6511     1
   6506   6516     1
   6506   6525     1
   6509   6515     1
   6509   6527     1
   6509   6519     1
   6510   6518     1
   6511   6519     1
   6511   6517     1
   6515   6516     1
   6516   6527     1
   6516   6517     1
   6517   6518     1
   6518   6519     1
   6518   6527     1
   6525   6527     1
   6528   6533     1
   6528   6540     1
   6528   6538     1
   6529   6548     1
   6529   6534     1
   6529   6539     1
   6532   6542     1
   6532   6550     1
   6532   6538     1
   6533   6541     1
   6534   6540     1
   6534   6542     1
   6538   6539     1
   6539   6540     1
   6539   6550     1
   6540   6541     1
   6541   6542     1
   6541   6550     1
   6548   6550     1
   6551   6556     1
   6551   6563     1
   6551   6561     1
   6552   6557     1
   6552   6562     1
   6552   6571     1
   6555   6561     1
   6555   6573     1
   6555   6565     1
   6556   6564     1
   6557   6565     1
   6557   6563     1
   6561   6562     1
   6562   6573     1
   6562   6563     1
   6563   6564     1
   6564   6565     1
   6564   6573     1
   6571   6573     1
   6574   6579     1
   6574   6586     1
   6574   6584     1
   6575   6594     1
   6575   6580     1
   6575   6585     1
   6578   6588     1
   6578   6596     1
   6578   6584     1
   6579   6587     1
   6580   6586     1
   6580   6588     1
   6584   6585     1
   6585   6586     1
   6585   6596     1
   6586   6587     1
   6587   6588     1
   6587   6596     1
   6594   6596     1
   6597   6602     1
   6597   6609     1
   6597   6607     1
   6598   6603     1
   6598   6608     1
   6598   6617     1
   6601   6607     1
   6601   6619     1
   6601   6611     1
   6602   6610     1
   6603   6611     1
   6603   6609     1
   6607   6608     1
   6608   6619     1
   6608   6609     1
   6609   6610     1
   6610   6611     1
   6610   6619     1
   6617   6619     1
   6620   6625     1
   6620   6632     1
   6620   6630     1
   6621   6640     1
   6621   6626     1
   6621   6631     1
   6624   6634     1
   6624   6642     1
   6624   6630     1
   6625   6633     1
   6626   6632     1
   6626   6634     1
   6630   6631     1
   6631   6632     1
   6631   6642     1
   6632   6633     1
   6633   6634     1
   6633   6642     1
   6640   6642     1
   6643   6648     1
   6643   6655     1
   6643   6653     1
   6644   6649     1
   6644   6654     1
   6644   6663     1
   6647   6653     1
   6647   6665     1
   6647   6657     1
   6648   6656     1
   6649   6657     1
   6649   6655     1
   6653   6654     1
   6654   6665     1
   6654   6655     1
   6655   6656     1
   6656   6657     1
   6656   6665     1
   6663   6665     1
   6666   6671     1
   6666   6678     1
   6666   6676     1
   6667   6686     1
   6667   6672     1
   6667   6677     1
   6670   6680     1
   6670   6688     1
   6670   6676     1
   6671   6679     1
   6672   6678     1
   6672   6680     1
   6676   6677     1
   6677   6678     1
   6677   6688     1
   6678   6679     1
   6679   6680     1
   6679   6688     1
   6686   6688     1
   6689   6694     1
   6689   6701     1
   6689   6699     1
   6690   6695     1
   6690   6700     1
   6690   6709     1
   6693   6699     1
   6693   6711     1
   6693   6703     1
   6694   6702     1
   6695   6703     1
   6695   6701     1
   6699   6700     1
   6700   6711     1
   6700   6701     1
   6701   6702     1
   6702   6703     1
   6702   6711     1
   6709   6711     1
   6712   6717     1
   6712   6724     1
   6712   6722     1
   6713   6732     1
   6713   6718     1
   6713   6723     1
   6716   6726     1
   6716   6734     1
   6716   6722     1
   6717   6725     1
   6718   6724     1
   6718   6726     1
   6722   6723     1
   6723   6724     1
   6723   6734     1
   6724   6725     1
   6725   6726     1
   6725   6734     1
   6732   6734     1
   6735   6740     1
   6735   6747     1
   6735   6745     1
   6736   6741     1
   6736   6746     1
   6736   6755     1
   6739   6745     1
   6739   6757     1
   6739   6749     1
   6740   6748     1
   6741   6749     1
   6741   6747     1
   6745   6746     1
   6746   6757     1
   6746   6747     1
   6747   6748     1
   6748   6749     1
   6748   6757     1
   6755   6757     1
   6758   6763     1
   6758   6770     1
   6758   6768     1
   6759   6778     1
   6759   6764     1
   6759   6769     1
   6762   6772     1
   6762   6780     1
   6762   6768     1
   6763   6771     1
   6764   6770     1
   6764   6772     1
   6768   6769     1
   6769   6770     1
   6769   6780     1
   6770   6771     1
   6771   6772     1
   6771   6780     1
   6778   6780     1
   6781   6786     1
   6781   6793     1
   6781   6791     1
   6782   6787     1
   6782   6792     1
   6782   6801     1
   6785   6791     1
   6785   6803     1
   6785   6795     1
   6786   6794     1
   6787   6795     1
   6787   6793     1
   6791   6792     1
   6792   6803     1
   6792   6793     1
   6793   6794     1
   6794   6795     1
   6794   6803     1
   6801   6803     1
   6804   6809     1
   6804   6816     1
   6804   6814     1
   6805   6824     1
   6805   6810     1
   6805   6815     1
   6808   6818     1
   6808   6826     1
   6808   6814     1
   6809   6817     1
   6810   6816     1
   6810   6818     1
   6814   6815     1
   6815   6816     1
   6815   6826     1
   6816   6817     1
   6817   6818     1
   6817   6826     1
   6824   6826     1
   6827   6832     1
   6827   6839     1
   6827   6837     1
   6828   6833     1
   6828   6838     1
   6828   6847     1
   6831   6837     1
   6831   6849     1
   6831   6841     1
   6832   6840     1
   6833   6841     1
   6833   6839     1
   6837   6838     1
   6838   6849     1
   6838   6839     1
   6839   6840     1
   6840   6841     1
   6840   6849     1
   6847   6849     1
   6850   6855     1
   6850   6862     1
   6850   6860     1
   6851   6870     1
   6851   6856     1
   6851   6861     1
   6854   6864     1
   6854   6872     1
   6854   6860     1
   6855   6863     1
   6856   6862     1
   6856   6864     1
   6860   6861     1
   6861   6862     1
   6861   6872     1
   6862   6863     1
   6863   6864     1
   6863   6872     1
   6870   6872     1
   6873   6878     1
   6873   6885     1
   6873   6883     1
   6874   6879     1
   6874   6884     1
   6874   6893     1
   6877   6883     1
   6877   6895     1
   6877   6887     1
   6878   6886     1
   6879   6887     1
   6879   6885     1
   6883   6884     1
   6884   6895     1
   6884   6885     1
   6885   6886     1
   6886   6887     1
   6886   6895     1
   6893   6895     1
   6896   6901     1
   6896   6908     1
   6896   6906     1
   6897   6916     1
   6897   6902     1
   6897   6907     1
   6900   6910     1
   6900   6918     1
   6900   6906     1
   6901   6909     1
   6902   6908     1
   6902   6910     1
   6906   6907     1
   6907   6908     1
   6907   6918     1
   6908   6909     1
   6909   6910     1
   6909   6918     1
   6916   6918     1
   6919   6924     1
   6919   6931     1
   6919   6929     1
   6920   6925     1
   6920   6930     1
   6920   6939     1
   6923   6929     1
   6923   6941     1
   6923   6933     1
   6924   6932     1
   6925   6933     1
   6925   6931     1
   6929   6930     1
   6930   6941     1
   6930   6931     1
   6931   6932     1
   6932   6933     1
   6932   6941     1
   6939   6941     1
   6942   6947     1
   6942   6954     1
   6942   6952     1
   6943   6962     1
   6943   6948     1
   6943   6953     1
   6946   6956     1
   6946   6964     1
   6946   6952     1
   6947   6955     1
   6948   6954     1
   6948   6956     1
   6952   6953     1
   6953   6954     1
   6953   6964     1
   6954   6955     1
   6955   6956     1
   6955   6964     1
   6962   6964     1
   6965   6970     1
   6965   6977     1
   6965   6975     1
   6966   6971     1
   6966   6976     1
   6966   6985     1
   6969   6975     1
   6969   6987     1
   6969   6979     1
   6970   6978     1
   6971   6979     1
   6971   6977     1
   6975   6976     1
   6976   6987     1
   6976   6977     1
   6977   6978     1
   6978   6979     1
   6978   6987     1
   6985   6987     1
   6988   6993     1
   6988   7000     1
   6988   6998     1
   6989   7008     1
   6989   6994     1
   6989   6999     1
   6992   7002     1
   6992   7010     1
   6992   6998     1
   6993   7001     1
   6994   7000     1
   6994   7002     1
   6998   6999     1
   6999   7000     1
   6999   7010     1
   7000   7001     1
   7001   7002     1
   7001   7010     1
   7008   7010     1
   7011   7016     1
   7011   7023     1
   7011   7021     1
   7012   7017     1
   7012   7022     1
   7012   7031     1
   7015   7021     1
   7015   7033     1
   7015   7025     1
   7016   7024     1
   7017   7025     1
   7017   7023     1
   7021   7022     1
   7022   7033     1
   7022   7023     1
   7023   7024     1
   7024   7025     1
   7024   7033     1
   7031   7033     1
   7034   7039     1
   7034   7046     1
   7034   7044     1
   7035   7054     1
   7035   7040     1
   7035   7045     1
   7038   7048     1
   7038   7056     1
   7038   7044     1
   7039   7047     1
   7040   7046     1
   7040   7048     1
   7044   7045     1
   7045   7046     1
   7045   7056     1
   7046   7047     1
   7047   7048     1
   7047   7056     1
   7054   7056     1
   7057   7062     1
   7057   7069     1
   7057   7067     1
   7058   7063     1
   7058   7068     1
   7058   7077     1
   7061   7067     1
   7061   7079     1
   7061   7071     1
   7062   7070     1
   7063   7071     1
   7063   7069     1
   7067   7068     1
   7068   7079     1
   7068   7069     1
   7069   7070     1
   7070   7071     1
   7070   7079     1
   7077   7079     1
   7080   7085     1
   7080   7092     1
   7080   7090     1
   7081   7100     1
   7081   7086     1
   7081   7091     1
   7084   7094     1
   7084   7102     1
   7084   7090     1
   7085   7093     1
   7086   7092     1
   7086   7094     1
   7090   7091     1
   7091   7092     1
   7091   7102     1
   7092   7093     1
   7093   7094     1
   7093   7102     1
   7100   7102     1
   7103   7108     1
   7103   7115     1
   7103   7113     1
   7104   7109     1
   7104   7114     1
   7104   7123     1
   7107   7113     1
   7107   7125     1
   7107   7117     1
   7108   7116     1
   7109   7117     1
   7109   7115     1
   7113   7114     1
   7114   7125     1
   7114   7115     1
   7115   7116     1
   7116   7117     1
   7116   7125     1
   7123   7125     1
   7126   7131     1
   7126   7138     1
   7126   7136     1
   7127   7146     1
   7127   7132     1
   7127   7137     1
   7130   7140     1
   7130   7148     1
   7130   7136     1
   7131   7139     1
   7132   7138     1
   7132   7140     1
   7136   7137     1
   7137   7138     1
   7137   7148     1
   7138   7139     1
   7139   7140     1
   7139   7148     1
   7146   7148     1
   7149   7154     1
   7149   7161     1
   7149   7159     1
   7150   7155     1
   7150   7160     1
   7150   7169     1
   7153   7159     1
   7153   7171     1
   7153   7163     1
   7154   7162     1
   7155   7163     1
   7155   7161     1
   7159   7160     1
   7160   7171     1
   7160   7161     1
   7161   7162     1
   7162   7163     1
   7162   7171     1
   7169   7171     1
   7172   7177     1
   7172   7184     1
   7172   7182     1
   7173   7192     1
   7173   7178     1
   7173   7183     1
   7176   7186     1
   7176   7194     1
   7176   7182     1
   7177   7185     1
   7178   7184     1
   7178   7186     1
   7182   7183     1
   7183   7184     1
   7183   7194     1
   7184   7185     1
   7185   7186     1
   7185   7194     1
   7192   7194     1
   7195   7200     1
   7195   7207     1
   7195   7205     1
   7196   7201     1
   7196   7206     1
   7196   7215     1
   7199   7205     1
   7199   7217     1
   7199   7209     1
   7200   7208     1
   7201   7209     1
   7201   7207     1
   7205   7206     1
   7206   7217     1
   7206   7207     1
   7207   7208     1
   7208   7209     1
   7208   7217     1
   7215   7217     1
   7218   7223     1
   7218   7230     1
   7218   7228     1
   7219   7238     1
   7219   7224     1
   7219   7229     1
   7222   7232     1
   7222   7240     1
   7222   7228     1
   7223   7231     1
   7224   7230     1
   7224   7232     1
   7228   7229     1
   7229   7230     1
   7229   7240     1
   7230   7231     1
   7231   7232     1
   7231   7240     1
   7238   7240     1
   7241   7246     1
   7241   7253     1
   7241   7251     1
   7242   7247     1
   7242   7252     1
   7242   7261     1
   7245   7251     1
   7245   7263     1
   7245   7255     1
   7246   7254     1
   7247   7255     1
   7247   7253     1
   7251   7252     1
   7252   7263     1
   7252   7253     1
   7253   7254     1
   7254   7255     1
   7254   7263     1
   7261   7263     1
   7264   7269     1
   7264   7276     1
   7264   7274     1
   7265   7284     1
   7265   7270     1
   7265   7275     1
   7268   7278     1
   7268   7286     1
   7268   7274     1
   7269   7277     1
   7270   7276     1
   7270   7278     1
   7274   7275     1
   7275   7276     1
   7275   7286     1
   7276   7277     1
   7277   7278     1
   7277   7286     1
   7284   7286     1
   7287   7292     1
   7287   7299     1
   7287   7297     1
   7288   7293     1
   7288   7298     1
   7288   7307     1
   7291   7297     1
   7291   7309     1
   7291   7301     1
   7292   7300     1
   7293   7301     1
   7293   7299     1
   7297   7298     1
   7298   7309     1
   7298   7299     1
   7299   7300     1
   7300   7301     1
   7300   7309     1
   7307   7309     1
   7310   7315     1
   7310   7322     1
   7310   7320     1
   7311   7330     1
   7311   7316     1
   7311   7321     1
   7314   7324     1
   7314   7332     1
   7314   7320     1
   7315   7323     1
   7316   7322     1
   7316   7324     1
   7320   7321     1
   7321   7322     1
   7321   7332     1
   7322   7323     1
   7323   7324     1
   7323   7332     1
   7330   7332     1
   7333   7338     1
   7333   7345     1
   7333   7343     1
   7334   7339     1
   7334   7344     1
   7334   7353     1
   7337   7343     1
   7337   7355     1
   7337   7347     1
   7338   7346     1
   7339   7347     1
   7339   7345     1
   7343   7344     1
   7344   7355     1
   7344   7345     1
   7345   7346     1
   7346   7347     1
   7346   7355     1
   7353   7355     1
   7356   7361     1
   7356   7368     1
   7356   7366     1
   7357   7376     1
   7357   7362     1
   7357   7367     1
   7360   7370     1
   7360   7378     1
   7360   7366     1
   7361   7369     1
   7362   7368     1
   7362   7370     1
   7366   7367     1
   7367   7368     1
   7367   7378     1
   7368   7369     1
   7369   7370     1
   7369   7378     1
   7376   7378     1
   7379   7384     1
   7379   7391     1
   7379   7389     1
   7380   7385     1
   7380   7390     1
   7380   7399     1
   7383   7389     1
   7383   7401     1
   7383   7393     1
   7384   7392     1
   7385   7393     1
   7385   7391     1
   7389   7390     1
   7390   7401     1
   7390   7391     1
   7391   7392     1
   7392   7393     1
   7392   7401     1
   7399   7401     1
   7402   7407     1
   7402   7414     1
   7402   7412     1
   7403   7422     1
   7403   7408     1
   7403   7413     1
   7406   7416     1
   7406   7424     1
   7406   7412     1
   7407   7415     1
   7408   7414     1
   7408   7416     1
   7412   7413     1
   7413   7414     1
   7413   7424     1
   7414   7415     1
   7415   7416     1
   7415   7424     1
   7422   7424     1
   7425   7430     1
   7425   7437     1
   7425   7435     1
   7426   7431     1
   7426   7436     1
   7426   7445     1
   7429   7435     1
   7429   7447     1
   7429   7439     1
   7430   7438     1
   7431   7439     1
   7431   7437     1
   7435   7436     1
   7436   7447     1
   7436   7437     1
   7437   7438     1
   7438   7439     1
   7438   7447     1
   7445   7447     1
   7448   7453     1
   7448   7460     1
   7448   7458     1
   7449   7468     1
   7449   7454     1
   7449   7459     1
   7452   7462     1
   7452   7470     1
   7452   7458     1
   7453   7461     1
   7454   7460     1
   7454   7462     1
   7458   7459     1
   7459   7460     1
   7459   7470     1
   7460   7461     1
   7461   7462     1
   7461   7470     1
   7468   7470     1
   7471   7476     1
   7471   7483     1
   7471   7481     1
   7472   7477     1
   7472   7482     1
   7472   7491     1
   7475   7481     1
   7475   7493     1
   7475   7485     1
   7476   7484     1
   7477   7485     1
   7477   7483     1
   7481   7482     1
   7482   7493     1
   7482   7483     1
   7483   7484     1
   7484   7485     1
   7484   7493     1
   7491   7493     1
   7494   7499     1
   7494   7506     1
   7494   7504     1
   7495   7514     1
   7495   7500     1
   7495   7505     1
   7498   7508     1
   7498   7516     1
   7498   7504     1
   7499   7507     1
   7500   7506     1
   7500   7508     1
   7504   7505     1
   7505   7506     1
   7505   7516     1
   7506   7507     1
   7507   7508     1
   7507   7516     1
   7514   7516     1
   7517   7522     1
   7517   7529     1
   7517   7527     1
   7518   7523     1
   7518   7528     1
   7518   7537     1
   7521   7527     1
   7521   7539     1
   7521   7531     1
   7522   7530     1
   7523   7531     1
   7523   7529     1
   7527   7528     1
   7528   7539     1
   7528   7529     1
   7529   7530     1
   7530   7531     1
   7530   7539     1
   7537   7539     1
   7540   7545     1
   7540   7552     1
   7540   7550     1
   7541   7560     1
   7541   7546     1
   7541   7551     1
   7544   7554     1
   7544   7562     1
   7544   7550     1
   7545   7553     1
   7546   7552     1
   7546   7554     1
   7550   7551     1
   7551   7552     1
   7551   7562     1
   7552   7553     1
   7553   7554     1
   7553   7562     1
   7560   7562     1
   7563   7568     1
   7563   7575     1
   7563   7573     1
   7564   7569     1
   7564   7574     1
   7564   7583     1
   7567   7573     1
   7567   7585     1
   7567   7577     1
   7568   7576     1
   7569   7577     1
   7569   7575     1
   7573   7574     1
   7574   7585     1
   7574   7575     1
   7575   7576     1
   7576   7577     1
   7576   7585     1
   7583   7585     1
   7586   7591     1
   7586   7598     1
   7586   7596     1
   7587   7606     1
   7587   7592     1
   7587   7597     1
   7590   7600     1
   7590   7608     1
   7590   7596     1
   7591   7599     1
   7592   7598     1
   7592   7600     1
   7596   7597     1
   7597   7598     1
   7597   7608     1
   7598   7599     1
   7599   7600     1
   7599   7608     1
   7606   7608     1
   7609   7614     1
   7609   7621     1
   7609   7619     1
   7610   7615     1
   7610   7620     1
   7610   7629     1
   7613   7619     1
   7613   7631     1
   7613   7623     1
   7614   7622     1
   7615   7623     1
   7615   7621     1
   7619   7620     1
   7620   7631     1
   7620   7621     1
   7621   7622     1
   7622   7623     1
   7622   7631     1
   7629   7631     1
   7632   7637     1
   7632   7644     1
   7632   7642     1
   7633   7652     1
   7633   7638     1
   7633   7643     1
   7636   7646     1
   7636   7654     1
   7636   7642     1
   7637   7645     1
   7638   7644     1
   7638   7646     1
   7642   7643     1
   7643   7644     1
   7643   7654     1
   7644   7645     1
   7645   7646     1
   7645   7654     1
   7652   7654     1
   7655   7660     1
   7655   7667     1
   7655   7665     1
   7656   7661     1
   7656   7666     1
   7656   7675     1
   7659   7665     1
   7659   7677     1
   7659   7669     1
   7660   7668     1
   7661   7669     1
   7661   7667     1
   7665   7666     1
   7666   7677     1
   7666   7667     1
   7667   7668     1
   7668   7669     1
   7668   7677     1
   7675   7677     1
   7678   7683     1
   7678   7690     1
   7678   7688     1
   7679   7698     1
   7679   7684     1
   7679   7689     1
   7682   7692     1
   7682   7700     1
   7682   7688     1
   7683   7691     1
   7684   7690     1
   7684   7692     1
   7688   7689     1
   7689   7690     1
   7689   7700     1
   7690   7691     1
   7691   7692     1
   7691   7700     1
   7698   7700     1
   7701   7706     1
   7701   7713     1
   7701   7711     1
   7702   7707     1
   7702   7712     1
   7702   7721     1
   7705   7711     1
   7705   7723     1
   7705   7715     1
   7706   7714     1
   7707   7715     1
   7707   7713     1
   7711   7712     1
   7712   7723     1
   7712   7713     1
   7713   7714     1
   7714   7715     1
   7714   7723     1
   7721   7723     1
   7724   7729     1
   7724   7736     1
   7724   7734     1
   7725   7744     1
   7725   7730     1
   7725   7735     1
   7728   7738     1
   7728   7746     1
   7728   7734     1
   7729   7737     1
   7730   7736     1
   7730   7738     1
   7734   7735     1
   7735   7736     1
   7735   7746     1
   7736   7737     1
   7737   7738     1
   7737   7746     1
   7744   7746     1
   7747   7752     1
   7747   7759     1
   7747   7757     1
   7748   7753     1
   7748   7758     1
   7748   7767     1
   7751   7757     1
   7751   7769     1
   7751   7761     1
   7752   7760     1
   7753   7761     1
   7753   7759     1
   7757   7758     1
   7758   7769     1
   7758   7759     1
   7759   7760     1
   7760   7761     1
   7760   7769     1
   7767   7769     1
   7770   7775     1
   7770   7782     1
   7770   7780     1
   7771   7790     1
   7771   7776     1
   7771   7781     1
   7774   7784     1
   7774   7792     1
   7774   7780     1
   7775   7783     1
   7776   7782     1
   7776   7784     1
   7780   7781     1
   7781   7782     1
   7781   7792     1
   7782   7783     1
   7783   7784     1
   7783   7792     1
   7790   7792     1
   7793   7798     1
   7793   7805     1
   7793   7803     1
   7794   7799     1
   7794   7804     1
   7794   7813     1
   7797   7803     1
   7797   7815     1
   7797   7807     1
   7798   7806     1
   7799   7807     1
   7799   7805     1
   7803   7804     1
   7804   7815     1
   7804   7805     1
   7805   7806     1
   7806   7807     1
   7806   7815     1
   7813   7815     1
   7816   7821     1
   7816   7828     1
   7816   7826     1
   7817   7836     1
   7817   7822     1
   7817   7827     1
   7820   7830     1
   7820   7838     1
   7820   7826     1
   7821   7829     1
   7822   7828     1
   7822   7830     1
   7826   7827     1
   7827   7828     1
   7827   7838     1
   7828   7829     1
   7829   7830     1
   7829   7838     1
   7836   7838     1
   7839   7844     1
   7839   7851     1
   7839   7849     1
   7840   7845     1
   7840   7850     1
   7840   7859     1
   7843   7849     1
   7843   7861     1
   7843   7853     1
   7844   7852     1
   7845   7853     1
   7845   7851     1
   7849   7850     1
   7850   7861     1
   7850   7851     1
   7851   7852     1
   7852   7853     1
   7852   7861     1
   7859   7861     1
   7862   7867     1
   7862   7874     1
   7862   7872     1
   7863   7882     1
   7863   7868     1
   7863   7873     1
   7866   7876     1
   7866   7884     1
   7866   7872     1
   7867   7875     1
   7868   7874     1
   7868   7876     1
   7872   7873     1
   7873   7874     1
   7873   7884     1
   7874   7875     1
   7875   7876     1
   7875   7884     1
   7882   7884     1
   7885   7890     1
   7885   7897     1
   7885   7895     1
   7886   7891     1
   7886   7896     1
   7886   7905     1
   7889   7895     1
   7889   7907     1
   7889   7899     1
   7890   7898     1
   7891   7899     1
   7891   7897     1
   7895   7896     1
   7896   7907     1
   7896   7897     1
   7897   7898     1
   7898   7899     1
   7898   7907     1
   7905   7907     1
   7908   7913     1
   7908   7920     1
   7908   7918     1
   7909   7928     1
   7909   7914     1
   7909   7919     1
   7912   7922     1
   7912   7930     1
   7912   7918     1
   7913   7921     1
   7914   7920     1
   7914   7922     1
   7918   7919     1
   7919   7920     1
   7919   7930     1
   7920   7921     1
   7921   7922     1
   7921   7930     1
   7928   7930     1
   7931   7936     1
   7931   7943     1
   7931   7941     1
   7932   7937     1
   7932   7942     1
   7932   7951     1
   7935   7941     1
   7935   7953     1
   7935   7945     1
   7936   7944     1
   7937   7945     1
   7937   7943     1
   7941   7942     1
   7942   7953     1
   7942   7943     1
   7943   7944     1
   7944   7945     1
   7944   7953     1
   7951   7953     1
   7954   7959     1
   7954   7966     1
   7954   7964     1
   7955   7974     1
   7955   7960     1
   7955   7965     1
   7958   7968     1
   7958   7976     1
   7958   7964     1
   7959   7967     1
   7960   7966     1
   7960   7968     1
   7964   7965     1
   7965   7966     1
   7965   7976     1
   7966   7967     1
   7967   7968     1
   7967   7976     1
   7974   7976     1
   7977   7982     1
   7977   7989     1
   7977   7987     1
   7978   7983     1
   7978   7988     1
   7978   7997     1
   7981   7987     1
   7981   7999     1
   7981   7991     1
   7982   7990     1
   7983   7991     1
   7983   7989     1
   7987   7988     1
   7988   7999     1
   7988   7989     1
   7989   7990     1
   7990   7991     1
   7990   7999     1
   7997   7999     1
   8000   8005     1
   8000   8012     1
   8000   8010     1
   8001   8020     1
   8001   8006     1
   8001   8011     1
   8004   8014     1
   8004   8022     1
   8004   8010     1
   8005   8013     1
   8006   8012     1
   8006   8014     1
   8010   8011     1
   8011   8012     1
   8011   8022     1
   8012   8013     1
   8013   8014     1
   8013   8022     1
   8020   8022     1
   8023   8028     1
   8023   8035     1
   8023   8033     1
   8024   8029     1
   8024   8034     1
   8024   8043     1
   8027   8033     1
   8027   8045     1
   8027   8037     1
   8028   8036     1
   8029   8037     1
   8029   8035     1
   8033   8034     1
   8034   8045     1
   8034   8035     1
   8035   8036     1
   8036   8037     1
   8036   8045     1
   8043   8045     1
   8046   8051     1
   8046   8058     1
   8046   8056     1
   8047   8066     1
   8047   8052     1
   8047   8057     1
   8050   8060     1
   8050   8068     1
   8050   8056     1
   8051   8059     1
   8052   8058     1
   8052   8060     1
   8056   8057     1
   8057   8058     1
   8057   8068     1
   8058   8059     1
   8059   8060     1
   8059   8068     1
   8066   8068     1
   8069   8074     1
   8069   8081     1
   8069   8079     1
   8070   8075     1
   8070   8080     1
   8070   8089     1
   8073   8079     1
   8073   8091     1
   8073   8083     1
   8074   8082     1
   8075   8083     1
   8075   8081     1
   8079   8080     1
   8080   8091     1
   8080   8081     1
   8081   8082     1
   8082   8083     1
   8082   8091     1
   8089   8091     1
   8092   8097     1
   8092   8104     1
   8092   8102     1
   8093   8112     1
   8093   8098     1
   8093   8103     1
   8096   8106     1
   8096   8114     1
   8096   8102     1
   8097   8105     1
   8098   8104     1
   8098   8106     1
   8102   8103     1
   8103   8104     1
   8103   8114     1
   8104   8105     1
   8105   8106     1
   8105   8114     1
   8112   8114     1
   8115   8120     1
   8115   8127     1
   8115   8125     1
   8116   8121     1
   8116   8126     1
   8116   8135     1
   8119   8125     1
   8119   8137     1
   8119   8129     1
   8120   8128     1
   8121   8129     1
   8121   8127     1
   8125   8126     1
   8126   8137     1
   8126   8127     1
   8127   8128     1
   8128   8129     1
   8128   8137     1
   8135   8137     1
   8138   8143     1
   8138   8150     1
   8138   8148     1
   8139   8158     1
   8139   8144     1
   8139   8149     1
   8142   8152     1
   8142   8160     1
   8142   8148     1
   8143   8151     1
   8144   8150     1
   8144   8152     1
   8148   8149     1
   8149   8150     1
   8149   8160     1
   8150   8151     1
   8151   8152     1
   8151   8160     1
   8158   8160     1
   8161   8166     1
   8161   8173     1
   8161   8171     1
   8162   8167     1
   8162   8172     1
   8162   8181     1
   8165   8171     1
   8165   8183     1
   8165   8175     1
   8166   8174     1
   8167   8175     1
   8167   8173     1
   8171   8172     1
   8172   8183     1
   8172   8173     1
   8173   8174     1
   8174   8175     1
   8174   8183     1
   8181   8183     1
   8184   8189     1
   8184   8196     1
   8184   8194     1
   8185   8204     1
   8185   8190     1
   8185   8195     1
   8188   8198     1
   8188   8206     1
   8188   8194     1
   8189   8197     1
   8190   8196     1
   8190   8198     1
   8194   8195     1
   8195   8196     1
   8195   8206     1
   8196   8197     1
   8197   8198     1
   8197   8206     1
   8204   8206     1
   8207   8212     1
   8207   8219     1
   8207   8217     1
   8208   8213     1
   8208   8218     1
   8208   8227     1
   8211   8217     1
   8211   8229     1
   8211   8221     1
   8212   8220     1
   8213   8221     1
   8213   8219     1
   8217   8218     1
   8218   8229     1
   8218   8219     1
   8219   8220     1
   8220   8221     1
   8220   8229     1
   8227   8229     1
   8230   8235     1
   8230   8242     1
   8230   8240     1
   8231   8250     1
   8231   8236     1
   8231   8241     1
   8234   8244     1
   8234   8252     1
   8234   8240     1
   8235   8243     1
   8236   8242     1
   8236   8244     1
   8240   8241     1
   8241   8242     1
   8241   8252     1
   8242   8243     1
   8243   8244     1
   8243   8252     1
   8250   8252     1
   8253   8258     1
   8253   8265     1
   8253   8263     1
   8254   8259     1
   8254   8264     1
   8254   8273     1
   8257   8263     1
   8257   8275     1
   8257   8267     1
   8258   8266     1
   8259   8267     1
   8259   8265     1
   8263   8264     1
   8264   8275     1
   8264   8265     1
   8265   8266     1
   8266   8267     1
   8266   8275     1
   8273   8275     1
   8276   8281     1
   8276   8288     1
   8276   8286     1
   8277   8296     1
   8277   8282     1
   8277   8287     1
   8280   8290     1
   8280   8298     1
   8280   8286     1
   8281   8289     1
   8282   8288     1
   8282   8290     1
   8286   8287     1
   8287   8288     1
   8287   8298     1
   8288   8289     1
   8289   8290     1
   8289   8298     1
   8296   8298     1
   8299   8304     1
   8299   8311     1
   8299   8309     1
   8300   8305     1
   8300   8310     1
   8300   8319     1
   8303   8309     1
   8303   8321     1
   8303   8313     1
   8304   8312     1
   8305   8313     1
   8305   8311     1
   8309   8310     1
   8310   8321     1
   8310   8311     1
   8311   8312     1
   8312   8313     1
   8312   8321     1
   8319   8321     1
   8322   8327     1
   8322   8334     1
   8322   8332     1
   8323   8342     1
   8323   8328     1
   8323   8333     1
   8326   8336     1
   8326   8344     1
   8326   8332     1
   8327   8335     1
   8328   8334     1
   8328   8336     1
   8332   8333     1
   8333   8334     1
   8333   8344     1
   8334   8335     1
   8335   8336     1
   8335   8344     1
   8342   8344     1
   8345   8350     1
   8345   8357     1
   8345   8355     1
   8346   8351     1
   8346   8356     1
   8346   8365     1
   8349   8355     1
   8349   8367     1
   8349   8359     1
   8350   8358     1
   8351   8359     1
   8351   8357     1
   8355   8356     1
   8356   8367     1
   8356   8357     1
   8357   8358     1
   8358   8359     1
   8358   8367     1
   8365   8367     1
   8368   8373     1
   8368   8380     1
   8368   8378     1
   8369   8388     1
   8369   8374     1
   8369   8379     1
   8372   8382     1
   8372   8390     1
   8372   8378     1
   8373   8381     1
   8374   8380     1
   8374   8382     1
   8378   8379     1
   8379   8380     1
   8379   8390     1
   8380   8381     1
   8381   8382     1
   8381   8390     1
   8388   8390     1
   8391   8396     1
   8391   8403     1
   8391   8401     1
   8392   8397     1
   8392   8402     1
   8392   8411     1
   8395   8401     1
   8395   8413     1
   8395   8405     1
   8396   8404     1
   8397   8405     1
   8397   8403     1
   8401   8402     1
   8402   8413     1
   8402   8403     1
   8403   8404     1
   8404   8405     1
   8404   8413     1
   8411   8413     1
   8414   8419     1
   8414   8426     1
   8414   8424     1
   8415   8434     1
   8415   8420     1
   8415   8425     1
   8418   8428     1
   8418   8436     1
   8418   8424     1
   8419   8427     1
   8420   8426     1
   8420   8428     1
   8424   8425     1
   8425   8426     1
   8425   8436     1
   8426   8427     1
   8427   8428     1
   8427   8436     1
   8434   8436     1
   8437   8442     1
   8437   8449     1
   8437   8447     1
   8438   8443     1
   8438   8448     1
   8438   8457     1
   8441   8447     1
   8441   8459     1
   8441   8451     1
   8442   8450     1
   8443   8451     1
   8443   8449     1
   8447   8448     1
   8448   8459     1
   8448   8449     1
   8449   8450     1
   8450   8451     1
   8450   8459     1
   8457   8459     1
   8460   8465     1
   8460   8472     1
   8460   8470     1
   8461   8480     1
   8461   8466     1
   8461   8471     1
   8464   8474     1
   8464   8482     1
   8464   8470     1
   8465   8473     1
   8466   8472     1
   8466   8474     1
   8470   8471     1
   8471   8472     1
   8471   8482     1
   8472   8473     1
   8473   8474     1
   8473   8482     1
   8480   8482     1
   8483   8488     1
   8483   8495     1
   8483   8493     1
   8484   8489     1
   8484   8494     1
   8484   8503     1
   8487   8493     1
   8487   8505     1
   8487   8497     1
   8488   8496     1
   8489   8497     1
   8489   8495     1
   8493   8494     1
   8494   8505     1
   8494   8495     1
   8495   8496     1
   8496   8497     1
   8496   8505     1
   8503   8505     1
   8506   8511     1
   8506   8518     1
   8506   8516     1
   8507   8526     1
   8507   8512     1
   8507   8517     1
   8510   8520     1
   8510   8528     1
   8510   8516     1
   8511   8519     1
   8512   8518     1
   8512   8520     1
   8516   8517     1
   8517   8518     1
   8517   8528     1
   8518   8519     1
   8519   8520     1
   8519   8528     1
   8526   8528     1
   8529   8534     1
   8529   8541     1
   8529   8539     1
   8530   8535     1
   8530   8540     1
   8530   8549     1
   8533   8539     1
   8533   8551     1
   8533   8543     1
   8534   8542     1
   8535   8543     1
   8535   8541     1
   8539   8540     1
   8540   8551     1
   8540   8541     1
   8541   8542     1
   8542   8543     1
   8542   8551     1
   8549   8551     1
   8552   8557     1
   8552   8564     1
   8552   8562     1
   8553   8572     1
   8553   8558     1
   8553   8563     1
   8556   8566     1
   8556   8574     1
   8556   8562     1
   8557   8565     1
   8558   8564     1
   8558   8566     1
   8562   8563     1
   8563   8564     1
   8563   8574     1
   8564   8565     1
   8565   8566     1
   8565   8574     1
   8572   8574     1
   8575   8580     1
   8575   8587     1
   8575   8585     1
   8576   8581     1
   8576   8586     1
   8576   8595     1
   8579   8585     1
   8579   8597     1
   8579   8589     1
   8580   8588     1
   8581   8589     1
   8581   8587     1
   8585   8586     1
   8586   8597     1
   8586   8587     1
   8587   8588     1
   8588   8589     1
   8588   8597     1
   8595   8597     1
   8598   8603     1
   8598   8610     1
   8598   8608     1
   8599   8618     1
   8599   8604     1
   8599   8609     1
   8602   8612     1
   8602   8620     1
   8602   8608     1
   8603   8611     1
   8604   8610     1
   8604   8612     1
   8608   8609     1
   8609   8610     1
   8609   8620     1
   8610   8611     1
   8611   8612     1
   8611   8620     1
   8618   8620     1
   8621   8626     1
   8621   8633     1
   8621   8631     1
   8622   8627     1
   8622   8632     1
   8622   8641     1
   8625   8631     1
   8625   8643     1
   8625   8635     1
   8626   8634     1
   8627   8635     1
   8627   8633     1
   8631   8632     1
   8632   8643     1
   8632   8633     1
   8633   8634     1
   8634   8635     1
   8634   8643     1
   8641   8643     1
   8644   8649     1
   8644   8656     1
   8644   8654     1
   8645   8664     1
   8645   8650     1
   8645   8655     1
   8648   8658     1
   8648   8666     1
   8648   8654     1
   8649   8657     1
   8650   8656     1
   8650   8658     1
   8654   8655     1
   8655   8656     1
   8655   8666     1
   8656   8657     1
   8657   8658     1
   8657   8666     1
   8664   8666     1
   8667   8672     1
   8667   8679     1
   8667   8677     1
   8668   8673     1
   8668   8678     1
   8668   8687     1
   8671   8677     1
   8671   8689     1
   8671   8681     1
   8672   8680     1
   8673   8681     1
   8673   8679     1
   8677   8678     1
   8678   8689     1
   8678   8679     1
   8679   8680     1
   8680   8681     1
   8680   8689     1
   8687   8689     1
   8690   8695     1
   8690   8702     1
   8690   8700     1
   8691   8710     1
   8691   8696     1
   8691   8701     1
   8694   8704     1
   8694   8712     1
   8694   8700     1
   8695   8703     1
   8696   8702     1
   8696   8704     1
   8700   8701     1
   8701   8702     1
   8701   8712     1
   8702   8703     1
   8703   8704     1
   8703   8712     1
   8710   8712     1
   8713   8718     1
   8713   8725     1
   8713   8723     1
   8714   8719     1
   8714   8724     1
   8714   8733     1
   8717   8723     1
   8717   8735     1
   8717   8727     1
   8718   8726     1
   8719   8727     1
   8719   8725     1
   8723   8724     1
   8724   8735     1
   8724   8725     1
   8725   8726     1
   8726   8727     1
   8726   8735     1
   8733   8735     1
   8736   8741     1
   8736   8748     1
   8736   8746     1
   8737   8756     1
   8737   8742     1
   8737   8747     1
   8740   8750     1
   8740   8758     1
   8740   8746     1
   8741   8749     1
   8742   8748     1
   8742   8750     1
   8746   8747     1
   8747   8748     1
   8747   8758     1
   8748   8749     1
   8749   8750     1
   8749   8758     1
   8756   8758     1
   8759   8764     1
   8759   8771     1
   8759   8769     1
   8760   8765     1
   8760   8770     1
   8760   8779     1
   8763   8769     1
   8763   8781     1
   8763   8773     1
   8764   8772     1
   8765   8773     1
   8765   8771     1
   8769   8770     1
   8770   8781     1
   8770   8771     1
   8771   8772     1
   8772   8773     1
   8772   8781     1
   8779   8781     1
   8782   8787     1
   8782   8794     1
   8782   8792     1
   8783   8802     1
   8783   8788     1
   8783   8793     1
   8786   8796     1
   8786   8804     1
   8786   8792     1
   8787   8795     1
   8788   8794     1
   8788   8796     1
   8792   8793     1
   8793   8794     1
   8793   8804     1
   8794   8795     1
   8795   8796     1
   8795   8804     1
   8802   8804     1
   8805   8810     1
   8805   8817     1
   8805   8815     1
   8806   8811     1
   8806   8816     1
   8806   8825     1
   8809   8815     1
   8809   8827     1
   8809   8819     1
   8810   8818     1
   8811   8819     1
   8811   8817     1
   8815   8816     1
   8816   8827     1
   8816   8817     1
   8817   8818     1
   8818   8819     1
   8818   8827     1
   8825   8827     1
   8828   8833     1
   8828   8840     1
   8828   8838     1
   8829   8848     1
   8829   8834     1
   8829   8839     1
   8832   8842     1
   8832   8850     1
   8832   8838     1
   8833   8841     1
   8834   8840     1
   8834   8842     1
   8838   8839     1
   8839   8840     1
   8839   8850     1
   8840   8841     1
   8841   8842     1
   8841   8850     1
   8848   8850     1
   8851   8856     1
   8851   8863     1
   8851   8861     1
   8852   8857     1
   8852   8862     1
   8852   8871     1
   8855   8861     1
   8855   8873     1
   8855   8865     1
   8856   8864     1
   8857   8865     1
   8857   8863     1
   8861   8862     1
   8862   8873     1
   8862   8863     1
   8863   8864     1
   8864   8865     1
   8864   8873     1
   8871   8873     1
   8874   8879     1
   8874   8886     1
   8874   8884     1
   8875   8894     1
   8875   8880     1
   8875   8885     1
   8878   8888     1
   8878   8896     1
   8878   8884     1
   8879   8887     1
   8880   8886     1
   8880   8888     1
   8884   8885     1
   8885   8886     1
   8885   8896     1
   8886   8887     1
   8887   8888     1
   8887   8896     1
   8894   8896     1
   8897   8902     1
   8897   8909     1
   8897   8907     1
   8898   8903     1
   8898   8908     1
   8898   8917     1
   8901   8907     1
   8901   8919     1
   8901   8911     1
   8902   8910     1
   8903   8911     1
   8903   8909     1
   8907   8908     1
   8908   8919     1
   8908   8909     1
   8909   8910     1
   8910   8911     1
   8910   8919     1
   8917   8919     1
   8920   8925     1
   8920   8932     1
   8920   8930     1
   8921   8940     1
   8921   8926     1
   8921   8931     1
   8924   8934     1
   8924   8942     1
   8924   8930     1
   8925   8933     1
   8926   8932     1
   8926   8934     1
   8930   8931     1
   8931   8932     1
   8931   8942     1
   8932   8933     1
   8933   8934     1
   8933   8942     1
   8940   8942     1
   8943   8948     1
   8943   8955     1
   8943   8953     1
   8944   8949     1
   8944   8954     1
   8944   8963     1
   8947   8953     1
   8947   8965     1
   8947   8957     1
   8948   8956     1
   8949   8957     1
   8949   8955     1
   8953   8954     1
   8954   8965     1
   8954   8955     1
   8955   8956     1
   8956   8957     1
   8956   8965     1
   8963   8965     1
   8966   8971     1
   8966   8978     1
   8966   8976     1
   8967   8986     1
   8967   8972     1
   8967   8977     1
   8970   8980     1
   8970   8988     1
   8970   8976     1
   8971   8979     1
   8972   8978     1
   8972   8980     1
   8976   8977     1
   8977   8978     1
   8977   8988     1
   8978   8979     1
   8979   8980     1
   8979   8988     1
   8986   8988     1
   8989   8994     1
   8989   9001     1
   8989   8999     1
   8990   8995     1
   8990   9000     1
   8990   9009     1
   8993   8999     1
   8993   9011     1
   8993   9003     1
   8994   9002     1
   8995   9003     1
   8995   9001     1
   8999   9000     1
   9000   9011     1
   9000   9001     1
   9001   9002     1
   9002   9003     1
   9002   9011     1
   9009   9011     1
   9012   9017     1
   9012   9024     1
   9012   9022     1
   9013   9032     1
   9013   9018     1
   9013   9023     1
   9016   9026     1
   9016   9034     1
   9016   9022     1
   9017   9025     1
   9018   9024     1
   9018   9026     1
   9022   9023     1
   9023   9024     1
   9023   9034     1
   9024   9025     1
   9025   9026     1
   9025   9034     1
   9032   9034     1
   9035   9040     1
   9035   9047     1
   9035   9045     1
   9036   9041     1
   9036   9046     1
   9036   9055     1
   9039   9045     1
   9039   9057     1
   9039   9049     1
   9040   9048     1
   9041   9049     1
   9041   9047     1
   9045   9046     1
   9046   9057     1
   9046   9047     1
   9047   9048     1
   9048   9049     1
   9048   9057     1
   9055   9057     1
   9058   9063     1
   9058   9070     1
   9058   9068     1
   9059   9078     1
   9059   9064     1
   9059   9069     1
   9062   9072     1
   9062   9080     1
   9062   9068     1
   9063   9071     1
   9064   9070     1
   9064   9072     1
   9068   9069     1
   9069   9070     1
   9069   9080     1
   9070   9071     1
   9071   9072     1
   9071   9080     1
   9078   9080     1
   9081   9086     1
   9081   9093     1
   9081   9091     1
   9082   9087     1
   9082   9092     1
   9082   9101     1
   9085   9091     1
   9085   9103     1
   9085   9095     1
   9086   9094     1
   9087   9095     1
   9087   9093     1
   9091   9092     1
   9092   9103     1
   9092   9093     1
   9093   9094     1
   9094   9095     1
   9094   9103     1
   9101   9103     1
   9104   9109     1
   9104   9116     1
   9104   9114     1
   9105   9124     1
   9105   9110     1
   9105   9115     1
   9108   9118     1
   9108   9126     1
   9108   9114     1
   9109   9117     1
   9110   9116     1
   9110   9118     1
   9114   9115     1
   9115   9116     1
   9115   9126     1
   9116   9117     1
   9117   9118     1
   9117   9126     1
   9124   9126     1
   9127   9132     1
   9127   9139     1
   9127   9137     1
   9128   9133     1
   9128   9138     1
   9128   9147     1
   9131   9137     1
   9131   9149     1
   9131   9141     1
   9132   9140     1
   9133   9141     1
   9133   9139     1
   9137   9138     1
   9138   9149     1
   9138   9139     1
   9139   9140     1
   9140   9141     1
   9140   9149     1
   9147   9149     1
   9150   9155     1
   9150   9162     1
   9150   9160     1
   9151   9170     1
   9151   9156     1
   9151   9161     1
   9154   9164     1
   9154   9172     1
   9154   9160     1
   9155   9163     1
   9156   9162     1
   9156   9164     1
   9160   9161     1
   9161   9162     1
   9161   9172     1
   9162   9163     1
   9163   9164     1
   9163   9172     1
   9170   9172     1
   9173   9178     1
   9173   9185     1
   9173   9183     1
   9174   9179     1
   9174   9184     1
   9174   9193     1
   9177   9183     1
   9177   9195     1
   9177   9187     1
   9178   9186     1
   9179   9187     1
   9179   9185     1
   9183   9184     1
   9184   9195     1
   9184   9185     1
   9185   9186     1
   9186   9187     1
   9186   9195     1
   9193   9195     1
   9196   9201     1
   9196   9208     1
   9196   9206     1
   9197   9216     1
   9197   9202     1
   9197   9207     1
   9200   9210     1
   9200   9218     1
   9200   9206     1
   9201   9209     1
   9202   9208     1
   9202   9210     1
   9206   9207     1
   9207   9208     1
   9207   9218     1
   9208   9209     1
   9209   9210     1
   9209   9218     1
   9216   9218     1
   9219   9224     1
   9219   9231     1
   9219   9229     1
   9220   9225     1
   9220   9230     1
   9220   9239     1
   9223   9229     1
   9223   9241     1
   9223   9233     1
   9224   9232     1
   9225   9233     1
   9225   9231     1
   9229   9230     1
   9230   9241     1
   9230   9231     1
   9231   9232     1
   9232   9233     1
   9232   9241     1
   9239   9241     1
   9242   9247     1
   9242   9254     1
   9242   9252     1
   9243   9262     1
   9243   9248     1
   9243   9253     1
   9246   9256     1
   9246   9264     1
   9246   9252     1
   9247   9255     1
   9248   9254     1
   9248   9256     1
   9252   9253     1
   9253   9254     1
   9253   9264     1
   9254   9255     1
   9255   9256     1
   9255   9264     1
   9262   9264     1
   9265   9270     1
   9265   9277     1
   9265   9275     1
   9266   9271     1
   9266   9276     1
   9266   9285     1
   9269   9275     1
   9269   9287     1
   9269   9279     1
   9270   9278     1
   9271   9279     1
   9271   9277     1
   9275   9276     1
   9276   9287     1
   9276   9277     1
   9277   9278     1
   9278   9279     1
   9278   9287     1
   9285   9287     1
   9288   9293     1
   9288   9300     1
   9288   9298     1
   9289   9308     1
   9289   9294     1
   9289   9299     1
   9292   9302     1
   9292   9310     1
   9292   9298     1
   9293   9301     1
   9294   9300     1
   9294   9302     1
   9298   9299     1
   9299   9300     1
   9299   9310     1
   9300   9301     1
   9301   9302     1
   9301   9310     1
   9308   9310     1
   9311   9316     1
   9311   9323     1
   9311   9321     1
   9312   9317     1
   9312   9322     1
   9312   9331     1
   9315   9321     1
   9315   9333     1
   9315   9325     1
   9316   9324     1
   9317   9325     1
   9317   9323     1
   9321   9322     1
   9322   9333     1
   9322   9323     1
   9323   9324     1
   9324   9325     1
   9324   9333     1
   9331   9333     1
   9334   9339     1
   9334   9346     1
   9334   9344     1
   9335   9354     1
   9335   9340     1
   9335   9345     1
   9338   9348     1
   9338   9356     1
   9338   9344     1
   9339   9347     1
   9340   9346     1
   9340   9348     1
   9344   9345     1
   9345   9346     1
   9345   9356     1
   9346   9347     1
   9347   9348     1
   9347   9356     1
   9354   9356     1
   9357   9362     1
   9357   9369     1
   9357   9367     1
   9358   9363     1
   9358   9368     1
   9358   9377     1
   9361   9367     1
   9361   9379     1
   9361   9371     1
   9362   9370     1
   9363   9371     1
   9363   9369     1
   9367   9368     1
   9368   9379     1
   9368   9369     1
   9369   9370     1
   9370   9371     1
   9370   9379     1
   9377   9379     1
   9380   9385     1
   9380   9392     1
   9380   9390     1
   9381   9400     1
   9381   9386     1
   9381   9391     1
   9384   9394     1
   9384   9402     1
   9384   9390     1
   9385   9393     1
   9386   9392     1
   9386   9394     1
   9390   9391     1
   9391   9392     1
   9391   9402     1
   9392   9393     1
   9393   9394     1
   9393   9402     1
   9400   9402     1
   9403   9408     1
   9403   9415     1
   9403   9413     1
   9404   9409     1
   9404   9414     1
   9404   9423     1
   9407   9413     1
   9407   9425     1
   9407   9417     1
   9408   9416     1
   9409   9417     1
   9409   9415     1
   9413   9414     1
   9414   9425     1
   9414   9415     1
   9415   9416     1
   9416   9417     1
   9416   9425     1
   9423   9425     1
   9426   9431     1
   9426   9438     1
   9426   9436     1
   9427   9446     1
   9427   9432     1
   9427   9437     1
   9430   9440     1
   9430   9448     1
   9430   9436     1
   9431   9439     1
   9432   9438     1
   9432   9440     1
   9436   9437     1
   9437   9438     1
   9437   9448     1
   9438   9439     1
   9439   9440     1
   9439   9448     1
   9446   9448     1
   9449   9454     1
   9449   9461     1
   9449   9459     1
   9450   9455     1
   9450   9460     1
   9450   9469     1
   9453   9459     1
   9453   9471     1
   9453   9463     1
   9454   9462     1
   9455   9463     1
   9455   9461     1
   9459   9460     1
   9460   9471     1
   9460   9461     1
   9461   9462     1
   9462   9463     1
   9462   9471     1
   9469   9471     1
   9472   9477     1
   9472   9484     1
   9472   9482     1
   9473   9492     1
   9473   9478     1
   9473   9483     1
   9476   9486     1
   9476   9494     1
   9476   9482     1
   9477   9485     1
   9478   9484     1
   9478   9486     1
   9482   9483     1
   9483   9484     1
   9483   9494     1
   9484   9485     1
   9485   9486     1
   9485   9494     1
   9492   9494     1
   9495   9500     1
   9495   9507     1
   9495   9505     1
   9496   9501     1
   9496   9506     1
   9496   9515     1
   9499   9505     1
   9499   9517     1
   9499   9509     1
   9500   9508     1
   9501   9509     1
   9501   9507     1
   9505   9506     1
   9506   9517     1
   9506   9507     1
   9507   9508     1
   9508   9509     1
   9508   9517     1
   9515   9517     1
   9518   9523     1
   9518   9530     1
   9518   9528     1
   9519   9538     1
   9519   9524     1
   9519   9529     1
   9522   9532     1
   9522   9540     1
   9522   9528     1
   9523   9531     1
   9524   9530     1
   9524   9532     1
   9528   9529     1
   9529   9530     1
   9529   9540     1
   9530   9531     1
   9531   9532     1
   9531   9540     1
   9538   9540     1
   9541   9546     1
   9541   9553     1
   9541   9551     1
   9542   9547     1
   9542   9552     1
   9542   9561     1
   9545   9551     1
   9545   9563     1
   9545   9555     1
   9546   9554     1
   9547   9555     1
   9547   9553     1
   9551   9552     1
   9552   9563     1
   9552   9553     1
   9553   9554     1
   9554   9555     1
   9554   9563     1
   9561   9563     1
   9564   9569     1
   9564   9576     1
   9564   9574     1
   9565   9584     1
   9565   9570     1
   9565   9575     1
   9568   9578     1
   9568   9586     1
   9568   9574     1
   9569   9577     1
   9570   9576     1
   9570   9578     1
   9574   9575     1
   9575   9576     1
   9575   9586     1
   9576   9577     1
   9577   9578     1
   9577   9586     1
   9584   9586     1
   9587   9592     1
   9587   9599     1
   9587   9597     1
   9588   9593     1
   9588   9598     1
   9588   9607     1
   9591   9597     1
   9591   9609     1
   9591   9601     1
   9592   9600     1
   9593   9601     1
   9593   9599     1
   9597   9598     1
   9598   9609     1
   9598   9599     1
   9599   9600     1
   9600   9601     1
   9600   9609     1
   9607   9609     1
   9610   9615     1
   9610   9622     1
   9610   9620     1
   9611   9630     1
   9611   9616     1
   9611   9621     1
   9614   9624     1
   9614   9632     1
   9614   9620     1
   9615   9623     1
   9616   9622     1
   9616   9624     1
   9620   9621     1
   9621   9622     1
   9621   9632     1
   9622   9623     1
   9623   9624     1
   9623   9632     1
   9630   9632     1
   9633   9638     1
   9633   9645     1
   9633   9643     1
   9634   9639     1
   9634   9644     1
   9634   9653     1
   9637   9643     1
   9637   9655     1
   9637   9647     1
   9638   9646     1
   9639   9647     1
   9639   9645     1
   9643   9644     1
   9644   9655     1
   9644   9645     1
   9645   9646     1
   9646   9647     1
   9646   9655     1
   9653   9655     1
   9656   9661     1
   9656   9668     1
   9656   9666     1
   9657   9676     1
   9657   9662     1
   9657   9667     1
   9660   9670     1
   9660   9678     1
   9660   9666     1
   9661   9669     1
   9662   9668     1
   9662   9670     1
   9666   9667     1
   9667   9668     1
   9667   9678     1
   9668   9669     1
   9669   9670     1
   9669   9678     1
   9676   9678     1
   9679   9684     1
   9679   9691     1
   9679   9689     1
   9680   9685     1
   9680   9690     1
   9680   9699     1
   9683   9689     1
   9683   9701     1
   9683   9693     1
   9684   9692     1
   9685   9693     1
   9685   9691     1
   9689   9690     1
   9690   9701     1
   9690   9691     1
   9691   9692     1
   9692   9693     1
   9692   9701     1
   9699   9701     1
   9702   9707     1
   9702   9714     1
   9702   9712     1
   9703   9722     1
   9703   9708     1
   9703   9713     1
   9706   9716     1
   9706   9724     1
   9706   9712     1
   9707   9715     1
   9708   9714     1
   9708   9716     1
   9712   9713     1
   9713   9714     1
   9713   9724     1
   9714   9715     1
   9715   9716     1
   9715   9724     1
   9722   9724     1
   9725   9730     1
   9725   9737     1
   9725   9735     1
   9726   9731     1
   9726   9736     1
   9726   9745     1
   9729   9735     1
   9729   9747     1
   9729   9739     1
   9730   9738     1
   9731   9739     1
   9731   9737     1
   9735   9736     1
   9736   9747     1
   9736   9737     1
   9737   9738     1
   9738   9739     1
   9738   9747     1
   9745   9747     1
   9748   9753     1
   9748   9760     1
   9748   9758     1
   9749   9768     1
   9749   9754     1
   9749   9759     1
   9752   9762     1
   9752   9770     1
   9752   9758     1
   9753   9761     1
   9754   9760     1
   9754   9762     1
   9758   9759     1
   9759   9760     1
   9759   9770     1
   9760   9761     1
   9761   9762     1
   9761   9770     1
   9768   9770     1
   9771   9776     1
   9771   9783     1
   9771   9781     1
   9772   9777     1
   9772   9782     1
   9772   9791     1
   9775   9781     1
   9775   9793     1
   9775   9785     1
   9776   9784     1
   9777   9785     1
   9777   9783     1
   9781   9782     1
   9782   9793     1
   9782   9783     1
   9783   9784     1
   9784   9785     1
   9784   9793     1
   9791   9793     1
   9794   9799     1
   9794   9806     1
   9794   9804     1
   9795   9814     1
   9795   9800     1
   9795   9805     1
   9798   9808     1
   9798   9816     1
   9798   9804     1
   9799   9807     1
   9800   9806     1
   9800   9808     1
   9804   9805     1
   9805   9806     1
   9805   9816     1
   9806   9807     1
   9807   9808     1
   9807   9816     1
   9814   9816     1
   9817   9822     1
   9817   9829     1
   9817   9827     1
   9818   9823     1
   9818   9828     1
   9818   9837     1
   9821   9827     1
   9821   9839     1
   9821   9831     1
   9822   9830     1
   9823   9831     1
   9823   9829     1
   9827   9828     1
   9828   9839     1
   9828   9829     1
   9829   9830     1
   9830   9831     1
   9830   9839     1
   9837   9839     1
   9840   9845     1
   9840   9852     1
   9840   9850     1
   9841   9860     1
   9841   9846     1
   9841   9851     1
   9844   9854     1
   9844   9862     1
   9844   9850     1
   9845   9853     1
   9846   9852     1
   9846   9854     1
   9850   9851     1
   9851   9852     1
   9851   9862     1
   9852   9853     1
   9853   9854     1
   9853   9862     1
   9860   9862     1
   9863   9868     1
   9863   9875     1
   9863   9873     1
   9864   9869     1
   9864   9874     1
   9864   9883     1
   9867   9873     1
   9867   9885     1
   9867   9877     1
   9868   9876     1
   9869   9877     1
   9869   9875     1
   9873   9874     1
   9874   9885     1
   9874   9875     1
   9875   9876     1
   9876   9877     1
   9876   9885     1
   9883   9885     1
   9886   9891     1
   9886   9898     1
   9886   9896     1
   9887   9906     1
   9887   9892     1
   9887   9897     1
   9890   9900     1
   9890   9908     1
   9890   9896     1
   9891   9899     1
   9892   9898     1
   9892   9900     1
   9896   9897     1
   9897   9898     1
   9897   9908     1
   9898   9899     1
   9899   9900     1
   9899   9908     1
   9906   9908     1
   9909   9914     1
   9909   9921     1
   9909   9919     1
   9910   9915     1
   9910   9920     1
   9910   9929     1
   9913   9919     1
   9913   9931     1
   9913   9923     1
   9914   9922     1
   9915   9923     1
   9915   9921     1
   9919   9920     1
   9920   9931     1
   9920   9921     1
   9921   9922     1
   9922   9923     1
   9922   9931     1
   9929   9931     1
   9932   9937     1
   9932   9944     1
   9932   9942     1
   9933   9952     1
   9933   9938     1
   9933   9943     1
   9936   9946     1
   9936   9954     1
   9936   9942     1
   9937   9945     1
   9938   9944     1
   9938   9946     1
   9942   9943     1
   9943   9944     1
   9943   9954     1
   9944   9945     1
   9945   9946     1
   9945   9954     1
   9952   9954     1
   9955   9960     1
   9955   9967     1
   9955   9965     1
   9956   9961     1
   9956   9966     1
   9956   9975     1
   9959   9965     1
   9959   9977     1
   9959   9969     1
   9960   9968     1
   9961   9969     1
   9961   9967     1
   9965   9966     1
   9966   9977     1
   9966   9967     1
   9967   9968     1
   9968   9969     1
   9968   9977     1
   9975   9977     1
   9978   9983     1
   9978   9990     1
   9978   9988     1
   9979   9998     1
   9979   9984     1
   9979   9989     1
   9982   9992     1
   9982  10000     1
   9982   9988     1
   9983   9991     1
   9984   9990     1
   9984   9992     1
   9988   9989     1
   9989   9990     1
   9989  10000     1
   9990   9991     1
   9991   9992     1
   9991  10000     1
   9998  10000     1
  10001  10006     1
  10001  10013     1
  10001  10011     1
  10002  10007     1
  10002  10012     1
  10002  10021     1
  10005  10011     1
  10005  10023     1
  10005  10015     1
  10006  10014     1
  10007  10015     1
  10007  10013     1
  10011  10012     1
  10012  10023     1
  10012  10013     1
  10013  10014     1
  10014  10015     1
  10014  10023     1
  10021  10023     1
  10024  10029     1
  10024  10036     1
  10024  10034     1
  10025  10044     1
  10025  10030     1
  10025  10035     1
  10028  10038     1
  10028  10046     1
  10028  10034     1
  10029  10037     1
  10030  10036     1
  10030  10038     1
  10034  10035     1
  10035  10036     1
  10035  10046     1
  10036  10037     1
  10037  10038     1
  10037  10046     1
  10044  10046     1
  10047  10052     1
  10047  10059     1
  10047  10057     1
  10048  10053     1
  10048  10058     1
  10048  10067     1
  10051  10057     1
  10051  10069     1
  10051  10061     1
  10052  10060     1
  10053  10061     1
  10053  10059     1
  10057  10058     1
  10058  10069     1
  10058  10059     1
  10059  10060     1
  10060  10061     1
  10060  10069     1
  10067  10069     1
  10070  10075     1
  10070  10082     1
  10070  10080     1
  10071  10090     1
  10071  10076     1
  10071  10081     1
  10074  10084     1
  10074  10092     1
  10074  10080     1
  10075  10083     1
  10076  10082     1
  10076  10084     1
  10080  10081     1
  10081  10082     1
  10081  10092     1
  10082  10083     1
  10083  10084     1
  10083  10092     1
  10090  10092     1
  10093  10098     1
  10093  10105     1
  10093  10103     1
  10094  10099     1
  10094  10104     1
  10094  10113     1
  10097  10103     1
  10097  10115     1
  10097  10107     1
  10098  10106     1
  10099  10107     1
  10099  10105     1
  10103  10104     1
  10104  10115     1
  10104  10105     1
  10105  10106     1
  10106  10107     1
  10106  10115     1
  10113  10115     1
      1     15     1
      1     16     1
      1     18     1
      1     19     1
      1     12     1
      1     13     1
      2      6     1
      2      7     1
      2      9     1
      2     10     1
      2     27     1
      2     28     1
      5      3     1
      8      3     1
     29      3     1
      3     26     1
      3     15     1
      3     16     1
      5      4     1
      8      4     1
     29      4     1
      4     26     1
      4     15     1
      4     16     1
      5      9     1
      5     10     1
      5     21     1
      5     22     1
      8      6     1
     29      6     1
      6     20     1
      6     18     1
      6     19     1
      8      7     1
     29      7     1
      7     20     1
      7     18     1
      7     19     1
      8     24     1
      8     25     1
     29      9     1
      9     23     1
      9     12     1
      9     13     1
     29     10     1
     10     23     1
     10     12     1
     10     13     1
     29     11     1
     12     88     1
     12     24     1
     12     25     1
     13     88     1
     13     24     1
     13     25     1
     29     14     1
     15    118     1
     15     27     1
     15     28     1
     16    118     1
     16     27     1
     16     28     1
     29     17     1
     18     58     1
     18     21     1
     18     22     1
     19     58     1
     19     21     1
     19     22     1
     20     50     1
     20     51     1
     21     49     1
     22     49     1
     23     80     1
     23     81     1
     24     79     1
     25     79     1
     26    110     1
     26    111     1
     27    109     1
     28    109     1
     30     44     1
     30     45     1
     30     47     1
     30     48     1
     30     41     1
     30     42     1
     31     35     1
     31     36     1
     31     38     1
     31     39     1
     31     56     1
     31     57     1
     32     34     1
     32     37     1
     32     59     1
     32     55     1
     32     44     1
     32     45     1
     33     34     1
     33     37     1
     33     59     1
     33     55     1
     33     44     1
     33     45     1
     34     38     1
     34     39     1
     34     53     1
     34     54     1
     35     37     1
     35     59     1
     35     52     1
     35     47     1
     35     48     1
     36     37     1
     36     59     1
     36     52     1
     36     47     1
     36     48     1
     37     50     1
     37     51     1
     38     59     1
     38     49     1
     38     41     1
     38     42     1
     39     59     1
     39     49     1
     39     41     1
     39     42     1
     40     59     1
     41     58     1
     41     50     1
     41     51     1
     42     58     1
     42     50     1
     42     51     1
     43     59     1
     44    178     1
     44     56     1
     44     57     1
     45    178     1
     45     56     1
     45     57     1
     46     59     1
     47    148     1
     47     53     1
     47     54     1
     48    148     1
     48     53     1
     48     54     1
     52    140     1
     52    141     1
     53    139     1
     54    139     1
     55    170     1
     55    171     1
     56    169     1
     57    169     1
     60     74     1
     60     75     1
     60     77     1
     60     78     1
     60     71     1
     60     72     1
     61     65     1
     61     66     1
     61     68     1
     61     69     1
     61     86     1
     61     87     1
     62     64     1
     62     67     1
     62     89     1
     62     85     1
     62     74     1
     62     75     1
     63     64     1
     63     67     1
     63     89     1
     63     85     1
     63     74     1
     63     75     1
     64     68     1
     64     69     1
     64     83     1
     64     84     1
     65     67     1
     65     89     1
     65     82     1
     65     77     1
     65     78     1
     66     67     1
     66     89     1
     66     82     1
     66     77     1
     66     78     1
     67     80     1
     67     81     1
     68     89     1
     68     79     1
     68     71     1
     68     72     1
     69     89     1
     69     79     1
     69     71     1
     69     72     1
     70     89     1
     71     88     1
     71     80     1
     71     81     1
     72     88     1
     72     80     1
     72     81     1
     73     89     1
     74    238     1
     74     86     1
     74     87     1
     75    238     1
     75     86     1
     75     87     1
     76     89     1
     77    208     1
     77     83     1
     77     84     1
     78    208     1
     78     83     1
     78     84     1
     82    200     1
     82    201     1
     83    199     1
     84    199     1
     85    230     1
     85    231     1
     86    229     1
     87    229     1
     90    104     1
     90    105     1
     90    107     1
     90    108     1
     90    101     1
     90    102     1
     91     95     1
     91     96     1
     91     98     1
     91     99     1
     91    116     1
     91    117     1
     92     94     1
     92     97     1
     92    119     1
     92    115     1
     92    104     1
     92    105     1
     93     94     1
     93     97     1
     93    119     1
     93    115     1
     93    104     1
     93    105     1
     94     98     1
     94     99     1
     94    113     1
     94    114     1
     95     97     1
     95    119     1
     95    112     1
     95    107     1
     95    108     1
     96     97     1
     96    119     1
     96    112     1
     96    107     1
     96    108     1
     97    110     1
     97    111     1
     98    119     1
     98    109     1
     98    101     1
     98    102     1
     99    119     1
     99    109     1
     99    101     1
     99    102     1
    100    119     1
    101    118     1
    101    110     1
    101    111     1
    102    118     1
    102    110     1
    102    111     1
    103    119     1
    104    298     1
    104    116     1
    104    117     1
    105    298     1
    105    116     1
    105    117     1
    106    119     1
    107    268     1
    107    113     1
    107    114     1
    108    268     1
    108    113     1
    108    114     1
    112    260     1
    112    261     1
    113    259     1
    114    259     1
    115    290     1
    115    291     1
    116    289     1
    117    289     1
    120    134     1
    120    135     1
    120    137     1
    120    138     1
    120    131     1
    120    132     1
    121    125     1
    121    126     1
    121    128     1
    121    129     1
    121    146     1
    121    147     1
    122    124     1
    122    127     1
    122    149     1
    122    145     1
    122    134     1
    122    135     1
    123    124     1
    123    127     1
    123    149     1
    123    145     1
    123    134     1
    123    135     1
    124    128     1
    124    129     1
    124    143     1
    124    144     1
    125    127     1
    125    149     1
    125    142     1
    125    137     1
    125    138     1
    126    127     1
    126    149     1
    126    142     1
    126    137     1
    126    138     1
    127    140     1
    127    141     1
    128    149     1
    128    139     1
    128    131     1
    128    132     1
    129    149     1
    129    139     1
    129    131     1
    129    132     1
    130    149     1
    131    148     1
    131    140     1
    131    141     1
    132    148     1
    132    140     1
    132    141     1
    133    149     1
    134    358     1
    134    146     1
    134    147     1
    135    358     1
    135    146     1
    135    147     1
    136    149     1
    137    328     1
    137    143     1
    137    144     1
    138    328     1
    138    143     1
    138    144     1
    142    320     1
    142    321     1
    143    319     1
    144    319     1
    145    350     1
    145    351     1
    146    349     1
    147    349     1
    150    164     1
    150    165     1
    150    167     1
    150    168     1
    150    161     1
    150    162     1
    151    155     1
    151    156     1
    151    158     1
    151    159     1
    151    176     1
    151    177     1
    152    154     1
    152    157     1
    152    179     1
    152    175     1
    152    164     1
    152    165     1
    153    154     1
    153    157     1
    153    179     1
    153    175     1
    153    164     1
    153    165     1
    154    158     1
    154    159     1
    154    173     1
    154    174     1
    155    157     1
    155    179     1
    155    172     1
    155    167     1
    155    168     1
    156    157     1
    156    179     1
    156    172     1
    156    167     1
    156    168     1
    157    170     1
    157    171     1
    158    179     1
    158    169     1
    158    161     1
    158    162     1
    159    179     1
    159    169     1
    159    161     1
    159    162     1
    160    179     1
    161    178     1
    161    170     1
    161    171     1
    162    178     1
    162    170     1
    162    171     1
    163    179     1
    164    418     1
    164    176     1
    164    177     1
    165    418     1
    165    176     1
    165    177     1
    166    179     1
    167    388     1
    167    173     1
    167    174     1
    168    388     1
    168    173     1
    168    174     1
    172    380     1
    172    381     1
    173    379     1
    174    379     1
    175    410     1
    175    411     1
    176    409     1
    177    409     1
    180    194     1
    180    195     1
    180    197     1
    180    198     1
    180    191     1
    180    192     1
    181    185     1
    181    186     1
    181    188     1
    181    189     1
    181    206     1
    181    207     1
    182    184     1
    182    187     1
    182    209     1
    182    205     1
    182    194     1
    182    195     1
    183    184     1
    183    187     1
    183    209     1
    183    205     1
    183    194     1
    183    195     1
    184    188     1
    184    189     1
    184    203     1
    184    204     1
    185    187     1
    185    209     1
    185    202     1
    185    197     1
    185    198     1
    186    187     1
    186    209     1
    186    202     1
    186    197     1
    186    198     1
    187    200     1
    187    201     1
    188    209     1
    188    199     1
    188    191     1
    188    192     1
    189    209     1
    189    199     1
    189    191     1
    189    192     1
    190    209     1
    191    208     1
    191    200     1
    191    201     1
    192    208     1
    192    200     1
    192    201     1
    193    209     1
    194    478     1
    194    206     1
    194    207     1
    195    478     1
    195    206     1
    195    207     1
    196    209     1
    197    448     1
    197    203     1
    197    204     1
    198    448     1
    198    203     1
    198    204     1
    202    440     1
    202    441     1
    203    439     1
    204    439     1
    205    470     1
    205    471     1
    206    469     1
    207    469     1
    210    224     1
    210    225     1
    210    227     1
    210    228     1
    210    221     1
    210    222     1
    211    215     1
    211    216     1
    211    218     1
    211    219     1
    211    236     1
    211    237     1
    212    214     1
    212    217     1
    212    239     1
    212    235     1
    212    224     1
    212    225     1
    213    214     1
    213    217     1
    213    239     1
    213    235     1
    213    224     1
    213    225     1
    214    218     1
    214    219     1
    214    233     1
    214    234     1
    215    217     1
    215    239     1
    215    232     1
    215    227     1
    215    228     1
    216    217     1
    216    239     1
    216    232     1
    216    227     1
    216    228     1
    217    230     1
    217    231     1
    218    239     1
    218    229     1
    218    221     1
    218    222     1
    219    239     1
    219    229     1
    219    221     1
    219    222     1
    220    239     1
    221    238     1
    221    230     1
    221    231     1
    222    238     1
    222    230     1
    222    231     1
    223    239     1
    224    538     1
    224    236     1
    224    237     1
    225    538     1
    225    236     1
    225    237     1
    226    239     1
    227    508     1
    227    233     1
    227    234     1
    228    508     1
    228    233     1
    228    234     1
    232    500     1
    232    501     1
    233    499     1
    234    499     1
    235    530     1
    235    531     1
    236    529     1
    237    529     1
    240    254     1
    240    255     1
    240    257     1
    240    258     1
    240    251     1
    240    252     1
    241    245     1
    241    246     1
    241    248     1
    241    249     1
    241    266     1
    241    267     1
    242    244     1
    242    247     1
    242    269     1
    242    265     1
    242    254     1
    242    255     1
    243    244     1
    243    247     1
    243    269     1
    243    265     1
    243    254     1
    243    255     1
    244    248     1
    244    249     1
    244    263     1
    244    264     1
    245    247     1
    245    269     1
    245    262     1
    245    257     1
    245    258     1
    246    247     1
    246    269     1
    246    262     1
    246    257     1
    246    258     1
    247    260     1
    247    261     1
    248    269     1
    248    259     1
    248    251     1
    248    252     1
    249    269     1
    249    259     1
    249    251     1
    249    252     1
    250    269     1
    251    268     1
    251    260     1
    251    261     1
    252    268     1
    252    260     1
    252    261     1
    253    269     1
    254    598     1
    254    266     1
    254    267     1
    255    598     1
    255    266     1
    255    267     1
    256    269     1
    257    568     1
    257    263     1
    257    264     1
    258    568     1
    258    263     1
    258    264     1
    262    560     1
    262    561     1
    263    559     1
    264    559     1
    265    590     1
    265    591     1
    266    589     1
    267    589     1
    270    284     1
    270    285     1
    270    287     1
    270    288     1
    270    281     1
    270    282     1
    271    275     1
    271    276     1
    271    278     1
    271    279     1
    271    296     1
    271    297     1
    272    274     1
    272    277     1
    272    299     1
    272    295     1
    272    284     1
    272    285     1
    273    274     1
    273    277     1
    273    299     1
    273    295     1
    273    284     1
    273    285     1
    274    278     1
    274    279     1
    274    293     1
    274    294     1
    275    277     1
    275    299     1
    275    292     1
    275    287     1
    275    288     1
    276    277     1
    276    299     1
    276    292     1
    276    287     1
    276    288     1
    277    290     1
    277    291     1
    278    299     1
    278    289     1
    278    281     1
    278    282     1
    279    299     1
    279    289     1
    279    281     1
    279    282     1
    280    299     1
    281    298     1
    281    290     1
    281    291     1
    282    298     1
    282    290     1
    282    291     1
    283    299     1
    284    658     1
    284    296     1
    284    297     1
    285    658     1
    285    296     1
    285    297     1
    286    299     1
    287    628     1
    287    293     1
    287    294     1
    288    628     1
    288    293     1
    288    294     1
    292    620     1
    292    621     1
    293    619     1
    294    619     1
    295    650     1
    295    651     1
    296    649     1
    297    649     1
    300    314     1
    300    315     1
    300    317     1
    300    318     1
    300    311     1
    300    312     1
    301    305     1
    301    306     1
    301    308     1
    301    309     1
    301    326     1
    301    327     1
    302    304     1
    302    307     1
    302    329     1
    302    325     1
    302    314     1
    302    315     1
    303    304     1
    303    307     1
    303    329     1
    303    325     1
    303    314     1
    303    315     1
    304    308     1
    304    309     1
    304    323     1
    304    324     1
    305    307     1
    305    329     1
    305    322     1
    305    317     1
    305    318     1
    306    307     1
    306    329     1
    306    322     1
    306    317     1
    306    318     1
    307    320     1
    307    321     1
    308    329     1
    308    319     1
    308    311     1
    308    312     1
    309    329     1
    309    319     1
    309    311     1
    309    312     1
    310    329     1
    311    328     1
    311    320     1
    311    321     1
    312    328     1
    312    320     1
    312    321     1
    313    329     1
    314    718     1
    314    326     1
    314    327     1
    315    718     1
    315    326     1
    315    327     1
    316    329     1
    317    688     1
    317    323     1
    317    324     1
    318    688     1
    318    323     1
    318    324     1
    322    680     1
    322    681     1
    323    679     1
    324    679     1
    325    710     1
    325    711     1
    326    709     1
    327    709     1
    330    344     1
    330    345     1
    330    347     1
    330    348     1
    330    341     1
    330    342     1
    331    335     1
    331    336     1
    331    338     1
    331    339     1
    331    356     1
    331    357     1
    332    334     1
    332    337     1
    332    359     1
    332    355     1
    332    344     1
    332    345     1
    333    334     1
    333    337     1
    333    359     1
    333    355     1
    333    344     1
    333    345     1
    334    338     1
    334    339     1
    334    353     1
    334    354     1
    335    337     1
    335    359     1
    335    352     1
    335    347     1
    335    348     1
    336    337     1
    336    359     1
    336    352     1
    336    347     1
    336    348     1
    337    350     1
    337    351     1
    338    359     1
    338    349     1
    338    341     1
    338    342     1
    339    359     1
    339    349     1
    339    341     1
    339    342     1
    340    359     1
    341    358     1
    341    350     1
    341    351     1
    342    358     1
    342    350     1
    342    351     1
    343    359     1
    344    778     1
    344    356     1
    344    357     1
    345    778     1
    345    356     1
    345    357     1
    346    359     1
    347    748     1
    347    353     1
    347    354     1
    348    748     1
    348    353     1
    348    354     1
    352    740     1
    352    741     1
    353    739     1
    354    739     1
    355    770     1
    355    771     1
    356    769     1
    357    769     1
    360    374     1
    360    375     1
    360    377     1
    360    378     1
    360    371     1
    360    372     1
    361    365     1
    361    366     1
    361    368     1
    361    369     1
    361    386     1
    361    387     1
    362    364     1
    362    367     1
    362    389     1
    362    385     1
    362    374     1
    362    375     1
    363    364     1
    363    367     1
    363    389     1
    363    385     1
    363    374     1
    363    375     1
    364    368     1
    364    369     1
    364    383     1
    364    384     1
    365    367     1
    365    389     1
    365    382     1
    365    377     1
    365    378     1
    366    367     1
    366    389     1
    366    382     1
    366    377     1
    366    378     1
    367    380     1
    367    381     1
    368    389     1
    368    379     1
    368    371     1
    368    372     1
    369    389     1
    369    379     1
    369    371     1
    369    372     1
    370    389     1
    371    388     1
    371    380     1
    371    381     1
    372    388     1
    372    380     1
    372    381     1
    373    389     1
    374    838     1
    374    386     1
    374    387     1
    375    838     1
    375    386     1
    375    387     1
    376    389     1
    377    808     1
    377    383     1
    377    384     1
    378    808     1
    378    383     1
    378    384     1
    382    800     1
    382    801     1
    383    799     1
    384    799     1
    385    830     1
    385    831     1
    386    829     1
    387    829     1
    390    404     1
    390    405     1
    390    407     1
    390    408     1
    390    401     1
    390    402     1
    391    395     1
    391    396     1
    391    398     1
    391    399     1
    391    416     1
    391    417     1
    392    394     1
    392    397     1
    392    419     1
    392    415     1
    392    404     1
    392    405     1
    393    394     1
    393    397     1
    393    419     1
    393    415     1
    393    404     1
    393    405     1
    394    398     1
    394    399     1
    394    413     1
    394    414     1
    395    397     1
    395    419     1
    395    412     1
    395    407     1
    395    408     1
    396    397     1
    396    419     1
    396    412     1
    396    407     1
    396    408     1
    397    410     1
    397    411     1
    398    419     1
    398    409     1
    398    401     1
    398    402     1
    399    419     1
    399    409     1
    399    401     1
    399    402     1
    400    419     1
    401    418     1
    401    410     1
    401    411     1
    402    418     1
    402    410     1
    402    411     1
    403    419     1
    404    898     1
    404    416     1
    404    417     1
    405    898     1
    405    416     1
    405    417     1
    406    419     1
    407    868     1
    407    413     1
    407    414     1
    408    868     1
    408    413     1
    408    414     1
    412    860     1
    412    861     1
    413    859     1
    414    859     1
    415    890     1
    415    891     1
    416    889     1
    417    889     1
    420    434     1
    420    435     1
    420    437     1
    420    438     1
    420    431     1
    420    432     1
    421    425     1
    421    426     1
    421    428     1
    421    429     1
    421    446     1
    421    447     1
    422    424     1
    422    427     1
    422    449     1
    422    445     1
    422    434     1
    422    435     1
    423    424     1
    423    427     1
    423    449     1
    423    445     1
    423    434     1
    423    435     1
    424    428     1
    424    429     1
    424    443     1
    424    444     1
    425    427     1
    425    449     1
    425    442     1
    425    437     1
    425    438     1
    426    427     1
    426    449     1
    426    442     1
    426    437     1
    426    438     1
    427    440     1
    427    441     1
    428    449     1
    428    439     1
    428    431     1
    428    432     1
    429    449     1
    429    439     1
    429    431     1
    429    432     1
    430    449     1
    431    448     1
    431    440     1
    431    441     1
    432    448     1
    432    440     1
    432    441     1
    433    449     1
    434    958     1
    434    446     1
    434    447     1
    435    958     1
    435    446     1
    435    447     1
    436    449     1
    437    928     1
    437    443     1
    437    444     1
    438    928     1
    438    443     1
    438    444     1
    442    920     1
    442    921     1
    443    919     1
    444    919     1
    445    950     1
    445    951     1
    446    949     1
    447    949     1
    450    464     1
    450    465     1
    450    467     1
    450    468     1
    450    461     1
    450    462     1
    451    455     1
    451    456     1
    451    458     1
    451    459     1
    451    476     1
    451    477     1
    452    454     1
    452    457     1
    452    479     1
    452    475     1
    452    464     1
    452    465     1
    453    454     1
    453    457     1
    453    479     1
    453    475     1
    453    464     1
    453    465     1
    454    458     1
    454    459     1
    454    473     1
    454    474     1
    455    457     1
    455    479     1
    455    472     1
    455    467     1
    455    468     1
    456    457     1
    456    479     1
    456    472     1
    456    467     1
    456    468     1
    457    470     1
    457    471     1
    458    479     1
    458    469     1
    458    461     1
    458    462     1
    459    479     1
    459    469     1
    459    461     1
    459    462     1
    460    479     1
    461    478     1
    461    470     1
    461    471     1
    462    478     1
    462    470     1
    462    471     1
    463    479     1
    464   1018     1
    464    476     1
    464    477     1
    465   1018     1
    465    476     1
    465    477     1
    466    479     1
    467    988     1
    467    473     1
    467    474     1
    468    988     1
    468    473     1
    468    474     1
    472    980     1
    472    981     1
    473    979     1
    474    979     1
    475   1010     1
    475   1011     1
    476   1009     1
    477   1009     1
    480    494     1
    480    495     1
    480    497     1
    480    498     1
    480    491     1
    480    492     1
    481    485     1
    481    486     1
    481    488     1
    481    489     1
    481    506     1
    481    507     1
    482    484     1
    482    487     1
    482    509     1
    482    505     1
    482    494     1
    482    495     1
    483    484     1
    483    487     1
    483    509     1
    483    505     1
    483    494     1
    483    495     1
    484    488     1
    484    489     1
    484    503     1
    484    504     1
    485    487     1
    485    509     1
    485    502     1
    485    497     1
    485    498     1
    486    487     1
    486    509     1
    486    502     1
    486    497     1
    486    498     1
    487    500     1
    487    501     1
    488    509     1
    488    499     1
    488    491     1
    488    492     1
    489    509     1
    489    499     1
    489    491     1
    489    492     1
    490    509     1
    491    508     1
    491    500     1
    491    501     1
    492    508     1
    492    500     1
    492    501     1
    493    509     1
    494   1078     1
    494    506     1
    494    507     1
    495   1078     1
    495    506     1
    495    507     1
    496    509     1
    497   1048     1
    497    503     1
    497    504     1
    498   1048     1
    498    503     1
    498    504     1
    502   1040     1
    502   1041     1
    503   1039     1
    504   1039     1
    505   1070     1
    505   1071     1
    506   1069     1
    507   1069     1
    510    524     1
    510    525     1
    510    527     1
    510    528     1
    510    521     1
    510    522     1
    511    515     1
    511    516     1
    511    518     1
    511    519     1
    511    536     1
    511    537     1
    512    514     1
    512    517     1
    512    539     1
    512    535     1
    512    524     1
    512    525     1
    513    514     1
    513    517     1
    513    539     1
    513    535     1
    513    524     1
    513    525     1
    514    518     1
    514    519     1
    514    533     1
    514    534     1
    515    517     1
    515    539     1
    515    532     1
    515    527     1
    515    528     1
    516    517     1
    516    539     1
    516    532     1
    516    527     1
    516    528     1
    517    530     1
    517    531     1
    518    539     1
    518    529     1
    518    521     1
    518    522     1
    519    539     1
    519    529     1
    519    521     1
    519    522     1
    520    539     1
    521    538     1
    521    530     1
    521    531     1
    522    538     1
    522    530     1
    522    531     1
    523    539     1
    524   1138     1
    524    536     1
    524    537     1
    525   1138     1
    525    536     1
    525    537     1
    526    539     1
    527   1108     1
    527    533     1
    527    534     1
    528   1108     1
    528    533     1
    528    534     1
    532   1100     1
    532   1101     1
    533   1099     1
    534   1099     1
    535   1130     1
    535   1131     1
    536   1129     1
    537   1129     1
    540    554     1
    540    555     1
    540    557     1
    540    558     1
    540    551     1
    540    552     1
    541    545     1
    541    546     1
    541    548     1
    541    549     1
    541    566     1
    541    567     1
    542    544     1
    542    547     1
    542    569     1
    542    565     1
    542    554     1
    542    555     1
    543    544     1
    543    547     1
    543    569     1
    543    565     1
    543    554     1
    543    555     1
    544    548     1
    544    549     1
    544    563     1
    544    564     1
    545    547     1
    545    569     1
    545    562     1
    545    557     1
    545    558     1
    546    547     1
    546    569     1
    546    562     1
    546    557     1
    546    558     1
    547    560     1
    547    561     1
    548    569     1
    548    559     1
    548    551     1
    548    552     1
    549    569     1
    549    559     1
    549    551     1
    549    552     1
    550    569     1
    551    568     1
    551    560     1
    551    561     1
    552    568     1
    552    560     1
    552    561     1
    553    569     1
    554   1198     1
    554    566     1
    554    567     1
    555   1198     1
    555    566     1
    555    567     1
    556    569     1
    557   1168     1
    557    563     1
    557    564     1
    558   1168     1
    558    563     1
    558    564     1
    562   1160     1
    562   1161     1
    563   1159     1
    564   1159     1
    565   1190     1
    565   1191     1
    566   1189     1
    567   1189     1
    570    584     1
    570    585     1
    570    587     1
    570    588     1
    570    581     1
    570    582     1
    571    575     1
    571    576     1
    571    578     1
    571    579     1
    571    596     1
    571    597     1
    572    574     1
    572    577     1
    572    599     1
    572    595     1
    572    584     1
    572    585     1
    573    574     1
    573    577     1
    573    599     1
    573    595     1
    573    584     1
    573    585     1
    574    578     1
    574    579     1
    574    593     1
    574    594     1
    575    577     1
    575    599     1
    575    592     1
    575    587     1
    575    588     1
    576    577     1
    576    599     1
    576    592     1
    576    587     1
    576    588     1
    577    590     1
    577    591     1
    578    599     1
    578    589     1
    578    581     1
    578    582     1
    579    599     1
    579    589     1
    579    581     1
    579    582     1
    580    599     1
    581    598     1
    581    590     1
    581    591     1
    582    598     1
    582    590     1
    582    591     1
    583    599     1
    584   1258     1
    584    596     1
    584    597     1
    585   1258     1
    585    596     1
    585    597     1
    586    599     1
    587   1228     1
    587    593     1
    587    594     1
    588   1228     1
    588    593     1
    588    594     1
    592   1220     1
    592   1221     1
    593   1219     1
    594   1219     1
    595   1250     1
    595   1251     1
    596   1249     1
    597   1249     1
    600    614     1
    600    615     1
    600    617     1
    600    618     1
    600    611     1
    600    612     1
    601    605     1
    601    606     1
    601    608     1
    601    609     1
    601    626     1
    601    627     1
    602    604     1
    602    607     1
    602    629     1
    602    625     1
    602    614     1
    602    615     1
    603    604     1
    603    607     1
    603    629     1
    603    625     1
    603    614     1
    603    615     1
    604    608     1
    604    609     1
    604    623     1
    604    624     1
    605    607     1
    605    629     1
    605    622     1
    605    617     1
    605    618     1
    606    607     1
    606    629     1
    606    622     1
    606    617     1
    606    618     1
    607    620     1
    607    621     1
    608    629     1
    608    619     1
    608    611     1
    608    612     1
    609    629     1
    609    619     1
    609    611     1
    609    612     1
    610    629     1
    611    628     1
    611    620     1
    611    621     1
    612    628     1
    612    620     1
    612    621     1
    613    629     1
    614   1318     1
    614    626     1
    614    627     1
    615   1318     1
    615    626     1
    615    627     1
    616    629     1
    617   1288     1
    617    623     1
    617    624     1
    618   1288     1
    618    623     1
    618    624     1
    622   1280     1
    622   1281     1
    623   1279     1
    624   1279     1
    625   1310     1
    625   1311     1
    626   1309     1
    627   1309     1
    630    644     1
    630    645     1
    630    647     1
    630    648     1
    630    641     1
    630    642     1
    631    635     1
    631    636     1
    631    638     1
    631    639     1
    631    656     1
    631    657     1
    632    634     1
    632    637     1
    632    659     1
    632    655     1
    632    644     1
    632    645     1
    633    634     1
    633    637     1
    633    659     1
    633    655     1
    633    644     1
    633    645     1
    634    638     1
    634    639     1
    634    653     1
    634    654     1
    635    637     1
    635    659     1
    635    652     1
    635    647     1
    635    648     1
    636    637     1
    636    659     1
    636    652     1
    636    647     1
    636    648     1
    637    650     1
    637    651     1
    638    659     1
    638    649     1
    638    641     1
    638    642     1
    639    659     1
    639    649     1
    639    641     1
    639    642     1
    640    659     1
    641    658     1
    641    650     1
    641    651     1
    642    658     1
    642    650     1
    642    651     1
    643    659     1
    644   1378     1
    644    656     1
    644    657     1
    645   1378     1
    645    656     1
    645    657     1
    646    659     1
    647   1348     1
    647    653     1
    647    654     1
    648   1348     1
    648    653     1
    648    654     1
    652   1340     1
    652   1341     1
    653   1339     1
    654   1339     1
    655   1370     1
    655   1371     1
    656   1369     1
    657   1369     1
    660    674     1
    660    675     1
    660    677     1
    660    678     1
    660    671     1
    660    672     1
    661    665     1
    661    666     1
    661    668     1
    661    669     1
    661    686     1
    661    687     1
    662    664     1
    662    667     1
    662    689     1
    662    685     1
    662    674     1
    662    675     1
    663    664     1
    663    667     1
    663    689     1
    663    685     1
    663    674     1
    663    675     1
    664    668     1
    664    669     1
    664    683     1
    664    684     1
    665    667     1
    665    689     1
    665    682     1
    665    677     1
    665    678     1
    666    667     1
    666    689     1
    666    682     1
    666    677     1
    666    678     1
    667    680     1
    667    681     1
    668    689     1
    668    679     1
    668    671     1
    668    672     1
    669    689     1
    669    679     1
    669    671     1
    669    672     1
    670    689     1
    671    688     1
    671    680     1
    671    681     1
    672    688     1
    672    680     1
    672    681     1
    673    689     1
    674   1438     1
    674    686     1
    674    687     1
    675   1438     1
    675    686     1
    675    687     1
    676    689     1
    677   1408     1
    677    683     1
    677    684     1
    678   1408     1
    678    683     1
    678    684     1
    682   1400     1
    682   1401     1
    683   1399     1
    684   1399     1
    685   1430     1
    685   1431     1
    686   1429     1
    687   1429     1
    690    704     1
    690    705     1
    690    707     1
    690    708     1
    690    701     1
    690    702     1
    691    695     1
    691    696     1
    691    698     1
    691    699     1
    691    716     1
    691    717     1
    692    694     1
    692    697     1
    692    719     1
    692    715     1
    692    704     1
    692    705     1
    693    694     1
    693    697     1
    693    719     1
    693    715     1
    693    704     1
    693    705     1
    694    698     1
    694    699     1
    694    713     1
    694    714     1
    695    697     1
    695    719     1
    695    712     1
    695    707     1
    695    708     1
    696    697     1
    696    719     1
    696    712     1
    696    707     1
    696    708     1
    697    710     1
    697    711     1
    698    719     1
    698    709     1
    698    701     1
    698    702     1
    699    719     1
    699    709     1
    699    701     1
    699    702     1
    700    719     1
    701    718     1
    701    710     1
    701    711     1
    702    718     1
    702    710     1
    702    711     1
    703    719     1
    704   1498     1
    704    716     1
    704    717     1
    705   1498     1
    705    716     1
    705    717     1
    706    719     1
    707   1468     1
    707    713     1
    707    714     1
    708   1468     1
    708    713     1
    708    714     1
    712   1460     1
    712   1461     1
    713   1459     1
    714   1459     1
    715   1490     1
    715   1491     1
    716   1489     1
    717   1489     1
    720    734     1
    720    735     1
    720    737     1
    720    738     1
    720    731     1
    720    732     1
    721    725     1
    721    726     1
    721    728     1
    721    729     1
    721    746     1
    721    747     1
    722    724     1
    722    727     1
    722    749     1
    722    745     1
    722    734     1
    722    735     1
    723    724     1
    723    727     1
    723    749     1
    723    745     1
    723    734     1
    723    735     1
    724    728     1
    724    729     1
    724    743     1
    724    744     1
    725    727     1
    725    749     1
    725    742     1
    725    737     1
    725    738     1
    726    727     1
    726    749     1
    726    742     1
    726    737     1
    726    738     1
    727    740     1
    727    741     1
    728    749     1
    728    739     1
    728    731     1
    728    732     1
    729    749     1
    729    739     1
    729    731     1
    729    732     1
    730    749     1
    731    748     1
    731    740     1
    731    741     1
    732    748     1
    732    740     1
    732    741     1
    733    749     1
    734   1558     1
    734    746     1
    734    747     1
    735   1558     1
    735    746     1
    735    747     1
    736    749     1
    737   1528     1
    737    743     1
    737    744     1
    738   1528     1
    738    743     1
    738    744     1
    742   1520     1
    742   1521     1
    743   1519     1
    744   1519     1
    745   1550     1
    745   1551     1
    746   1549     1
    747   1549     1
    750    764     1
    750    765     1
    750    767     1
    750    768     1
    750    761     1
    750    762     1
    751    755     1
    751    756     1
    751    758     1
    751    759     1
    751    776     1
    751    777     1
    752    754     1
    752    757     1
    752    779     1
    752    775     1
    752    764     1
    752    765     1
    753    754     1
    753    757     1
    753    779     1
    753    775     1
    753    764     1
    753    765     1
    754    758     1
    754    759     1
    754    773     1
    754    774     1
    755    757     1
    755    779     1
    755    772     1
    755    767     1
    755    768     1
    756    757     1
    756    779     1
    756    772     1
    756    767     1
    756    768     1
    757    770     1
    757    771     1
    758    779     1
    758    769     1
    758    761     1
    758    762     1
    759    779     1
    759    769     1
    759    761     1
    759    762     1
    760    779     1
    761    778     1
    761    770     1
    761    771     1
    762    778     1
    762    770     1
    762    771     1
    763    779     1
    764   1618     1
    764    776     1
    764    777     1
    765   1618     1
    765    776     1
    765    777     1
    766    779     1
    767   1588     1
    767    773     1
    767    774     1
    768   1588     1
    768    773     1
    768    774     1
    772   1580     1
    772   1581     1
    773   1579     1
    774   1579     1
    775   1610     1
    775   1611     1
    776   1609     1
    777   1609     1
    780    794     1
    780    795     1
    780    797     1
    780    798     1
    780    791     1
    780    792     1
    781    785     1
    781    786     1
    781    788     1
    781    789     1
    781    806     1
    781    807     1
    782    784     1
    782    787     1
    782    809     1
    782    805     1
    782    794     1
    782    795     1
    783    784     1
    783    787     1
    783    809     1
    783    805     1
    783    794     1
    783    795     1
    784    788     1
    784    789     1
    784    803     1
    784    804     1
    785    787     1
    785    809     1
    785    802     1
    785    797     1
    785    798     1
    786    787     1
    786    809     1
    786    802     1
    786    797     1
    786    798     1
    787    800     1
    787    801     1
    788    809     1
    788    799     1
    788    791     1
    788    792     1
    789    809     1
    789    799     1
    789    791     1
    789    792     1
    790    809     1
    791    808     1
    791    800     1
    791    801     1
    792    808     1
    792    800     1
    792    801     1
    793    809     1
    794   1678     1
    794    806     1
    794    807     1
    795   1678     1
    795    806     1
    795    807     1
    796    809     1
    797   1648     1
    797    803     1
    797    804     1
    798   1648     1
    798    803     1
    798    804     1
    802   1640     1
    802   1641     1
    803   1639     1
    804   1639     1
    805   1670     1
    805   1671     1
    806   1669     1
    807   1669     1
    810    824     1
    810    825     1
    810    827     1
    810    828     1
    810    821     1
    810    822     1
    811    815     1
    811    816     1
    811    818     1
    811    819     1
    811    836     1
    811    837     1
    812    814     1
    812    817     1
    812    839     1
    812    835     1
    812    824     1
    812    825     1
    813    814     1
    813    817     1
    813    839     1
    813    835     1
    813    824     1
    813    825     1
    814    818     1
    814    819     1
    814    833     1
    814    834     1
    815    817     1
    815    839     1
    815    832     1
    815    827     1
    815    828     1
    816    817     1
    816    839     1
    816    832     1
    816    827     1
    816    828     1
    817    830     1
    817    831     1
    818    839     1
    818    829     1
    818    821     1
    818    822     1
    819    839     1
    819    829     1
    819    821     1
    819    822     1
    820    839     1
    821    838     1
    821    830     1
    821    831     1
    822    838     1
    822    830     1
    822    831     1
    823    839     1
    824   1738     1
    824    836     1
    824    837     1
    825   1738     1
    825    836     1
    825    837     1
    826    839     1
    827   1708     1
    827    833     1
    827    834     1
    828   1708     1
    828    833     1
    828    834     1
    832   1700     1
    832   1701     1
    833   1699     1
    834   1699     1
    835   1730     1
    835   1731     1
    836   1729     1
    837   1729     1
    840    854     1
    840    855     1
    840    857     1
    840    858     1
    840    851     1
    840    852     1
    841    845     1
    841    846     1
    841    848     1
    841    849     1
    841    866     1
    841    867     1
    842    844     1
    842    847     1
    842    869     1
    842    865     1
    842    854     1
    842    855     1
    843    844     1
    843    847     1
    843    869     1
    843    865     1
    843    854     1
    843    855     1
    844    848     1
    844    849     1
    844    863     1
    844    864     1
    845    847     1
    845    869     1
    845    862     1
    845    857     1
    845    858     1
    846    847     1
    846    869     1
    846    862     1
    846    857     1
    846    858     1
    847    860     1
    847    861     1
    848    869     1
    848    859     1
    848    851     1
    848    852     1
    849    869     1
    849    859     1
    849    851     1
    849    852     1
    850    869     1
    851    868     1
    851    860     1
    851    861     1
    852    868     1
    852    860     1
    852    861     1
    853    869     1
    854   1798     1
    854    866     1
    854    867     1
    855   1798     1
    855    866     1
    855    867     1
    856    869     1
    857   1768     1
    857    863     1
    857    864     1
    858   1768     1
    858    863     1
    858    864     1
    862   1760     1
    862   1761     1
    863   1759     1
    864   1759     1
    865   1790     1
    865   1791     1
    866   1789     1
    867   1789     1
    870    884     1
    870    885     1
    870    887     1
    870    888     1
    870    881     1
    870    882     1
    871    875     1
    871    876     1
    871    878     1
    871    879     1
    871    896     1
    871    897     1
    872    874     1
    872    877     1
    872    899     1
    872    895     1
    872    884     1
    872    885     1
    873    874     1
    873    877     1
    873    899     1
    873    895     1
    873    884     1
    873    885     1
    874    878     1
    874    879     1
    874    893     1
    874    894     1
    875    877     1
    875    899     1
    875    892     1
    875    887     1
    875    888     1
    876    877     1
    876    899     1
    876    892     1
    876    887     1
    876    888     1
    877    890     1
    877    891     1
    878    899     1
    878    889     1
    878    881     1
    878    882     1
    879    899     1
    879    889     1
    879    881     1
    879    882     1
    880    899     1
    881    898     1
    881    890     1
    881    891     1
    882    898     1
    882    890     1
    882    891     1
    883    899     1
    884   1858     1
    884    896     1
    884    897     1
    885   1858     1
    885    896     1
    885    897     1
    886    899     1
    887   1828     1
    887    893     1
    887    894     1
    888   1828     1
    888    893     1
    888    894     1
    892   1820     1
    892   1821     1
    893   1819     1
    894   1819     1
    895   1850     1
    895   1851     1
    896   1849     1
    897   1849     1
    900    914     1
    900    915     1
    900    917     1
    900    918     1
    900    911     1
    900    912     1
    901    905     1
    901    906     1
    901    908     1
    901    909     1
    901    926     1
    901    927     1
    902    904     1
    902    907     1
    902    929     1
    902    925     1
    902    914     1
    902    915     1
    903    904     1
    903    907     1
    903    929     1
    903    925     1
    903    914     1
    903    915     1
    904    908     1
    904    909     1
    904    923     1
    904    924     1
    905    907     1
    905    929     1
    905    922     1
    905    917     1
    905    918     1
    906    907     1
    906    929     1
    906    922     1
    906    917     1
    906    918     1
    907    920     1
    907    921     1
    908    929     1
    908    919     1
    908    911     1
    908    912     1
    909    929     1
    909    919     1
    909    911     1
    909    912     1
    910    929     1
    911    928     1
    911    920     1
    911    921     1
    912    928     1
    912    920     1
    912    921     1
    913    929     1
    914   1918     1
    914    926     1
    914    927     1
    915   1918     1
    915    926     1
    915    927     1
    916    929     1
    917   1888     1
    917    923     1
    917    924     1
    918   1888     1
    918    923     1
    918    924     1
    922   1880     1
    922   1881     1
    923   1879     1
    924   1879     1
    925   1910     1
    925   1911     1
    926   1909     1
    927   1909     1
    930    944     1
    930    945     1
    930    947     1
    930    948     1
    930    941     1
    930    942     1
    931    935     1
    931    936     1
    931    938     1
    931    939     1
    931    956     1
    931    957     1
    932    934     1
    932    937     1
    932    959     1
    932    955     1
    932    944     1
    932    945     1
    933    934     1
    933    937     1
    933    959     1
    933    955     1
    933    944     1
    933    945     1
    934    938     1
    934    939     1
    934    953     1
    934    954     1
    935    937     1
    935    959     1
    935    952     1
    935    947     1
    935    948     1
    936    937     1
    936    959     1
    936    952     1
    936    947     1
    936    948     1
    937    950     1
    937    951     1
    938    959     1
    938    949     1
    938    941     1
    938    942     1
    939    959     1
    939    949     1
    939    941     1
    939    942     1
    940    959     1
    941    958     1
    941    950     1
    941    951     1
    942    958     1
    942    950     1
    942    951     1
    943    959     1
    944   1978     1
    944    956     1
    944    957     1
    945   1978     1
    945    956     1
    945    957     1
    946    959     1
    947   1948     1
    947    953     1
    947    954     1
    948   1948     1
    948    953     1
    948    954     1
    952   1940     1
    952   1941     1
    953   1939     1
    954   1939     1
    955   1970     1
    955   1971     1
    956   1969     1
    957   1969     1
    960    974     1
    960    975     1
    960    977     1
    960    978     1
    960    971     1
    960    972     1
    961    965     1
    961    966     1
    961    968     1
    961    969     1
    961    986     1
    961    987     1
    962    964     1
    962    967     1
    962    989     1
    962    985     1
    962    974     1
    962    975     1
    963    964     1
    963    967     1
    963    989     1
    963    985     1
    963    974     1
    963    975     1
    964    968     1
    964    969     1
    964    983     1
    964    984     1
    965    967     1
    965    989     1
    965    982     1
    965    977     1
    965    978     1
    966    967     1
    966    989     1
    966    982     1
    966    977     1
    966    978     1
    967    980     1
    967    981     1
    968    989     1
    968    979     1
    968    971     1
    968    972     1
    969    989     1
    969    979     1
    969    971     1
    969    972     1
    970    989     1
    971    988     1
    971    980     1
    971    981     1
    972    988     1
    972    980     1
    972    981     1
    973    989     1
    974   2038     1
    974    986     1
    974    987     1
    975   2038     1
    975    986     1
    975    987     1
    976    989     1
    977   2008     1
    977    983     1
    977    984     1
    978   2008     1
    978    983     1
    978    984     1
    982   2000     1
    982   2001     1
    983   1999     1
    984   1999     1
    985   2030     1
    985   2031     1
    986   2029     1
    987   2029     1
    990   1004     1
    990   1005     1
    990   1007     1
    990   1008     1
    990   1001     1
    990   1002     1
    991    995     1
    991    996     1
    991    998     1
    991    999     1
    991   1016     1
    991   1017     1
    992    994     1
    992    997     1
    992   1019     1
    992   1015     1
    992   1004     1
    992   1005     1
    993    994     1
    993    997     1
    993   1019     1
    993   1015     1
    993   1004     1
    993   1005     1
    994    998     1
    994    999     1
    994   1013     1
    994   1014     1
    995    997     1
    995   1019     1
    995   1012     1
    995   1007     1
    995   1008     1
    996    997     1
    996   1019     1
    996   1012     1
    996   1007     1
    996   1008     1
    997   1010     1
    997   1011     1
    998   1019     1
    998   1009     1
    998   1001     1
    998   1002     1
    999   1019     1
    999   1009     1
    999   1001     1
    999   1002     1
   1000   1019     1
   1001   1018     1
   1001   1010     1
   1001   1011     1
   1002   1018     1
   1002   1010     1
   1002   1011     1
   1003   1019     1
   1004   2098     1
   1004   1016     1
   1004   1017     1
   1005   2098     1
   1005   1016     1
   1005   1017     1
   1006   1019     1
   1007   2068     1
   1007   1013     1
   1007   1014     1
   1008   2068     1
   1008   1013     1
   1008   1014     1
   1012   2060     1
   1012   2061     1
   1013   2059     1
   1014   2059     1
   1015   2090     1
   1015   2091     1
   1016   2089     1
   1017   2089     1
   1020   1034     1
   1020   1035     1
   1020   1037     1
   1020   1038     1
   1020   1031     1
   1020   1032     1
   1021   1025     1
   1021   1026     1
   1021   1028     1
   1021   1029     1
   1021   1046     1
   1021   1047     1
   1022   1024     1
   1022   1027     1
   1022   1049     1
   1022   1045     1
   1022   1034     1
   1022   1035     1
   1023   1024     1
   1023   1027     1
   1023   1049     1
   1023   1045     1
   1023   1034     1
   1023   1035     1
   1024   1028     1
   1024   1029     1
   1024   1043     1
   1024   1044     1
   1025   1027     1
   1025   1049     1
   1025   1042     1
   1025   1037     1
   1025   1038     1
   1026   1027     1
   1026   1049     1
   1026   1042     1
   1026   1037     1
   1026   1038     1
   1027   1040     1
   1027   1041     1
   1028   1049     1
   1028   1039     1
   1028   1031     1
   1028   1032     1
   1029   1049     1
   1029   1039     1
   1029   1031     1
   1029   1032     1
   1030   1049     1
   1031   1048     1
   1031   1040     1
   1031   1041     1
   1032   1048     1
   1032   1040     1
   1032   1041     1
   1033   1049     1
   1034   2158     1
   1034   1046     1
   1034   1047     1
   1035   2158     1
   1035   1046     1
   1035   1047     1
   1036   1049     1
   1037   2128     1
   1037   1043     1
   1037   1044     1
   1038   2128     1
   1038   1043     1
   1038   1044     1
   1042   2120     1
   1042   2121     1
   1043   2119     1
   1044   2119     1
   1045   2150     1
   1045   2151     1
   1046   2149     1
   1047   2149     1
   1050   1064     1
   1050   1065     1
   1050   1067     1
   1050   1068     1
   1050   1061     1
   1050   1062     1
   1051   1055     1
   1051   1056     1
   1051   1058     1
   1051   1059     1
   1051   1076     1
   1051   1077     1
   1052   1054     1
   1052   1057     1
   1052   1079     1
   1052   1075     1
   1052   1064     1
   1052   1065     1
   1053   1054     1
   1053   1057     1
   1053   1079     1
   1053   1075     1
   1053   1064     1
   1053   1065     1
   1054   1058     1
   1054   1059     1
   1054   1073     1
   1054   1074     1
   1055   1057     1
   1055   1079     1
   1055   1072     1
   1055   1067     1
   1055   1068     1
   1056   1057     1
   1056   1079     1
   1056   1072     1
   1056   1067     1
   1056   1068     1
   1057   1070     1
   1057   1071     1
   1058   1079     1
   1058   1069     1
   1058   1061     1
   1058   1062     1
   1059   1079     1
   1059   1069     1
   1059   1061     1
   1059   1062     1
   1060   1079     1
   1061   1078     1
   1061   1070     1
   1061   1071     1
   1062   1078     1
   1062   1070     1
   1062   1071     1
   1063   1079     1
   1064   2218     1
   1064   1076     1
   1064   1077     1
   1065   2218     1
   1065   1076     1
   1065   1077     1
   1066   1079     1
   1067   2188     1
   1067   1073     1
   1067   1074     1
   1068   2188     1
   1068   1073     1
   1068   1074     1
   1072   2180     1
   1072   2181     1
   1073   2179     1
   1074   2179     1
   1075   2210     1
   1075   2211     1
   1076   2209     1
   1077   2209     1
   1080   1094     1
   1080   1095     1
   1080   1097     1
   1080   1098     1
   1080   1091     1
   1080   1092     1
   1081   1085     1
   1081   1086     1
   1081   1088     1
   1081   1089     1
   1081   1106     1
   1081   1107     1
   1082   1084     1
   1082   1087     1
   1082   1109     1
   1082   1105     1
   1082   1094     1
   1082   1095     1
   1083   1084     1
   1083   1087     1
   1083   1109     1
   1083   1105     1
   1083   1094     1
   1083   1095     1
   1084   1088     1
   1084   1089     1
   1084   1103     1
   1084   1104     1
   1085   1087     1
   1085   1109     1
   1085   1102     1
   1085   1097     1
   1085   1098     1
   1086   1087     1
   1086   1109     1
   1086   1102     1
   1086   1097     1
   1086   1098     1
   1087   1100     1
   1087   1101     1
   1088   1109     1
   1088   1099     1
   1088   1091     1
   1088   1092     1
   1089   1109     1
   1089   1099     1
   1089   1091     1
   1089   1092     1
   1090   1109     1
   1091   1108     1
   1091   1100     1
   1091   1101     1
   1092   1108     1
   1092   1100     1
   1092   1101     1
   1093   1109     1
   1094   2278     1
   1094   1106     1
   1094   1107     1
   1095   2278     1
   1095   1106     1
   1095   1107     1
   1096   1109     1
   1097   2248     1
   1097   1103     1
   1097   1104     1
   1098   2248     1
   1098   1103     1
   1098   1104     1
   1102   2240     1
   1102   2241     1
   1103   2239     1
   1104   2239     1
   1105   2270     1
   1105   2271     1
   1106   2269     1
   1107   2269     1
   1110   1124     1
   1110   1125     1
   1110   1127     1
   1110   1128     1
   1110   1121     1
   1110   1122     1
   1111   1115     1
   1111   1116     1
   1111   1118     1
   1111   1119     1
   1111   1136     1
   1111   1137     1
   1112   1114     1
   1112   1117     1
   1112   1139     1
   1112   1135     1
   1112   1124     1
   1112   1125     1
   1113   1114     1
   1113   1117     1
   1113   1139     1
   1113   1135     1
   1113   1124     1
   1113   1125     1
   1114   1118     1
   1114   1119     1
   1114   1133     1
   1114   1134     1
   1115   1117     1
   1115   1139     1
   1115   1132     1
   1115   1127     1
   1115   1128     1
   1116   1117     1
   1116   1139     1
   1116   1132     1
   1116   1127     1
   1116   1128     1
   1117   1130     1
   1117   1131     1
   1118   1139     1
   1118   1129     1
   1118   1121     1
   1118   1122     1
   1119   1139     1
   1119   1129     1
   1119   1121     1
   1119   1122     1
   1120   1139     1
   1121   1138     1
   1121   1130     1
   1121   1131     1
   1122   1138     1
   1122   1130     1
   1122   1131     1
   1123   1139     1
   1124   2338     1
   1124   1136     1
   1124   1137     1
   1125   2338     1
   1125   1136     1
   1125   1137     1
   1126   1139     1
   1127   2308     1
   1127   1133     1
   1127   1134     1
   1128   2308     1
   1128   1133     1
   1128   1134     1
   1132   2300     1
   1132   2301     1
   1133   2299     1
   1134   2299     1
   1135   2330     1
   1135   2331     1
   1136   2329     1
   1137   2329     1
   1140   1154     1
   1140   1155     1
   1140   1157     1
   1140   1158     1
   1140   1151     1
   1140   1152     1
   1141   1145     1
   1141   1146     1
   1141   1148     1
   1141   1149     1
   1141   1166     1
   1141   1167     1
   1142   1144     1
   1142   1147     1
   1142   1169     1
   1142   1165     1
   1142   1154     1
   1142   1155     1
   1143   1144     1
   1143   1147     1
   1143   1169     1
   1143   1165     1
   1143   1154     1
   1143   1155     1
   1144   1148     1
   1144   1149     1
   1144   1163     1
   1144   1164     1
   1145   1147     1
   1145   1169     1
   1145   1162     1
   1145   1157     1
   1145   1158     1
   1146   1147     1
   1146   1169     1
   1146   1162     1
   1146   1157     1
   1146   1158     1
   1147   1160     1
   1147   1161     1
   1148   1169     1
   1148   1159     1
   1148   1151     1
   1148   1152     1
   1149   1169     1
   1149   1159     1
   1149   1151     1
   1149   1152     1
   1150   1169     1
   1151   1168     1
   1151   1160     1
   1151   1161     1
   1152   1168     1
   1152   1160     1
   1152   1161     1
   1153   1169     1
   1154   2398     1
   1154   1166     1
   1154   1167     1
   1155   2398     1
   1155   1166     1
   1155   1167     1
   1156   1169     1
   1157   2368     1
   1157   1163     1
   1157   1164     1
   1158   2368     1
   1158   1163     1
   1158   1164     1
   1162   2360     1
   1162   2361     1
   1163   2359     1
   1164   2359     1
   1165   2390     1
   1165   2391     1
   1166   2389     1
   1167   2389     1
   1170   1184     1
   1170   1185     1
   1170   1187     1
   1170   1188     1
   1170   1181     1
   1170   1182     1
   1171   1175     1
   1171   1176     1
   1171   1178     1
   1171   1179     1
   1171   1196     1
   1171   1197     1
   1172   1174     1
   1172   1177     1
   1172   1199     1
   1172   1195     1
   1172   1184     1
   1172   1185     1
   1173   1174     1
   1173   1177     1
   1173   1199     1
   1173   1195     1
   1173   1184     1
   1173   1185     1
   1174   1178     1
   1174   1179     1
   1174   1193     1
   1174   1194     1
   1175   1177     1
   1175   1199     1
   1175   1192     1
   1175   1187     1
   1175   1188     1
   1176   1177     1
   1176   1199     1
   1176   1192     1
   1176   1187     1
   1176   1188     1
   1177   1190     1
   1177   1191     1
   1178   1199     1
   1178   1189     1
   1178   1181     1
   1178   1182     1
   1179   1199     1
   1179   1189     1
   1179   1181     1
   1179   1182     1
   1180   1199     1
   1181   1198     1
   1181   1190     1
   1181   1191     1
   1182   1198     1
   1182   1190     1
   1182   1191     1
   1183   1199     1
   1184   2458     1
   1184   1196     1
   1184   1197     1
   1185   2458     1
   1185   1196     1
   1185   1197     1
   1186   1199     1
   1187   2428     1
   1187   1193     1
   1187   1194     1
   1188   2428     1
   1188   1193     1
   1188   1194     1
   1192   2420     1
   1192   2421     1
   1193   2419     1
   1194   2419     1
   1195   2450     1
   1195   2451     1
   1196   2449     1
   1197   2449     1
   1200   1214     1
   1200   1215     1
   1200   1217     1
   1200   1218     1
   1200   1211     1
   1200   1212     1
   1201   1205     1
   1201   1206     1
   1201   1208     1
   1201   1209     1
   1201   1226     1
   1201   1227     1
   1202   1204     1
   1202   1207     1
   1202   1229     1
   1202   1225     1
   1202   1214     1
   1202   1215     1
   1203   1204     1
   1203   1207     1
   1203   1229     1
   1203   1225     1
   1203   1214     1
   1203   1215     1
   1204   1208     1
   1204   1209     1
   1204   1223     1
   1204   1224     1
   1205   1207     1
   1205   1229     1
   1205   1222     1
   1205   1217     1
   1205   1218     1
   1206   1207     1
   1206   1229     1
   1206   1222     1
   1206   1217     1
   1206   1218     1
   1207   1220     1
   1207   1221     1
   1208   1229     1
   1208   1219     1
   1208   1211     1
   1208   1212     1
   1209   1229     1
   1209   1219     1
   1209   1211     1
   1209   1212     1
   1210   1229     1
   1211   1228     1
   1211   1220     1
   1211   1221     1
   1212   1228     1
   1212   1220     1
   1212   1221     1
   1213   1229     1
   1214   2518     1
   1214   1226     1
   1214   1227     1
   1215   2518     1
   1215   1226     1
   1215   1227     1
   1216   1229     1
   1217   2488     1
   1217   1223     1
   1217   1224     1
   1218   2488     1
   1218   1223     1
   1218   1224     1
   1222   2480     1
   1222   2481     1
   1223   2479     1
   1224   2479     1
   1225   2510     1
   1225   2511     1
   1226   2509     1
   1227   2509     1
   1230   1244     1
   1230   1245     1
   1230   1247     1
   1230   1248     1
   1230   1241     1
   1230   1242     1
   1231   1235     1
   1231   1236     1
   1231   1238     1
   1231   1239     1
   1231   1256     1
   1231   1257     1
   1232   1234     1
   1232   1237     1
   1232   1259     1
   1232   1255     1
   1232   1244     1
   1232   1245     1
   1233   1234     1
   1233   1237     1
   1233   1259     1
   1233   1255     1
   1233   1244     1
   1233   1245     1
   1234   1238     1
   1234   1239     1
   1234   1253     1
   1234   1254     1
   1235   1237     1
   1235   1259     1
   1235   1252     1
   1235   1247     1
   1235   1248     1
   1236   1237     1
   1236   1259     1
   1236   1252     1
   1236   1247     1
   1236   1248     1
   1237   1250     1
   1237   1251     1
   1238   1259     1
   1238   1249     1
   1238   1241     1
   1238   1242     1
   1239   1259     1
   1239   1249     1
   1239   1241     1
   1239   1242     1
   1240   1259     1
   1241   1258     1
   1241   1250     1
   1241   1251     1
   1242   1258     1
   1242   1250     1
   1242   1251     1
   1243   1259     1
   1244   2578     1
   1244   1256     1
   1244   1257     1
   1245   2578     1
   1245   1256     1
   1245   1257     1
   1246   1259     1
   1247   2548     1
   1247   1253     1
   1247   1254     1
   1248   2548     1
   1248   1253     1
   1248   1254     1
   1252   2540     1
   1252   2541     1
   1253   2539     1
   1254   2539     1
   1255   2570     1
   1255   2571     1
   1256   2569     1
   1257   2569     1
   1260   1274     1
   1260   1275     1
   1260   1277     1
   1260   1278     1
   1260   1271     1
   1260   1272     1
   1261   1265     1
   1261   1266     1
   1261   1268     1
   1261   1269     1
   1261   1286     1
   1261   1287     1
   1262   1264     1
   1262   1267     1
   1262   1289     1
   1262   1285     1
   1262   1274     1
   1262   1275     1
   1263   1264     1
   1263   1267     1
   1263   1289     1
   1263   1285     1
   1263   1274     1
   1263   1275     1
   1264   1268     1
   1264   1269     1
   1264   1283     1
   1264   1284     1
   1265   1267     1
   1265   1289     1
   1265   1282     1
   1265   1277     1
   1265   1278     1
   1266   1267     1
   1266   1289     1
   1266   1282     1
   1266   1277     1
   1266   1278     1
   1267   1280     1
   1267   1281     1
   1268   1289     1
   1268   1279     1
   1268   1271     1
   1268   1272     1
   1269   1289     1
   1269   1279     1
   1269   1271     1
   1269   1272     1
   1270   1289     1
   1271   1288     1
   1271   1280     1
   1271   1281     1
   1272   1288     1
   1272   1280     1
   1272   1281     1
   1273   1289     1
   1274   2638     1
   1274   1286     1
   1274   1287     1
   1275   2638     1
   1275   1286     1
   1275   1287     1
   1276   1289     1
   1277   2608     1
   1277   1283     1
   1277   1284     1
   1278   2608     1
   1278   1283     1
   1278   1284     1
   1282   2600     1
   1282   2601     1
   1283   2599     1
   1284   2599     1
   1285   2630     1
   1285   2631     1
   1286   2629     1
   1287   2629     1
   1290   1304     1
   1290   1305     1
   1290   1307     1
   1290   1308     1
   1290   1301     1
   1290   1302     1
   1291   1295     1
   1291   1296     1
   1291   1298     1
   1291   1299     1
   1291   1316     1
   1291   1317     1
   1292   1294     1
   1292   1297     1
   1292   1319     1
   1292   1315     1
   1292   1304     1
   1292   1305     1
   1293   1294     1
   1293   1297     1
   1293   1319     1
   1293   1315     1
   1293   1304     1
   1293   1305     1
   1294   1298     1
   1294   1299     1
   1294   1313     1
   1294   1314     1
   1295   1297     1
   1295   1319     1
   1295   1312     1
   1295   1307     1
   1295   1308     1
   1296   1297     1
   1296   1319     1
   1296   1312     1
   1296   1307     1
   1296   1308     1
   1297   1310     1
   1297   1311     1
   1298   1319     1
   1298   1309     1
   1298   1301     1
   1298   1302     1
   1299   1319     1
   1299   1309     1
   1299   1301     1
   1299   1302     1
   1300   1319     1
   1301   1318     1
   1301   1310     1
   1301   1311     1
   1302   1318     1
   1302   1310     1
   1302   1311     1
   1303   1319     1
   1304   2698     1
   1304   1316     1
   1304   1317     1
   1305   2698     1
   1305   1316     1
   1305   1317     1
   1306   1319     1
   1307   2668     1
   1307   1313     1
   1307   1314     1
   1308   2668     1
   1308   1313     1
   1308   1314     1
   1312   2660     1
   1312   2661     1
   1313   2659     1
   1314   2659     1
   1315   2690     1
   1315   2691     1
   1316   2689     1
   1317   2689     1
   1320   1334     1
   1320   1335     1
   1320   1337     1
   1320   1338     1
   1320   1331     1
   1320   1332     1
   1321   1325     1
   1321   1326     1
   1321   1328     1
   1321   1329     1
   1321   1346     1
   1321   1347     1
   1322   1324     1
   1322   1327     1
   1322   1349     1
   1322   1345     1
   1322   1334     1
   1322   1335     1
   1323   1324     1
   1323   1327     1
   1323   1349     1
   1323   1345     1
   1323   1334     1
   1323   1335     1
   1324   1328     1
   1324   1329     1
   1324   1343     1
   1324   1344     1
   1325   1327     1
   1325   1349     1
   1325   1342     1
   1325   1337     1
   1325   1338     1
   1326   1327     1
   1326   1349     1
   1326   1342     1
   1326   1337     1
   1326   1338     1
   1327   1340     1
   1327   1341     1
   1328   1349     1
   1328   1339     1
   1328   1331     1
   1328   1332     1
   1329   1349     1
   1329   1339     1
   1329   1331     1
   1329   1332     1
   1330   1349     1
   1331   1348     1
   1331   1340     1
   1331   1341     1
   1332   1348     1
   1332   1340     1
   1332   1341     1
   1333   1349     1
   1334   2758     1
   1334   1346     1
   1334   1347     1
   1335   2758     1
   1335   1346     1
   1335   1347     1
   1336   1349     1
   1337   2728     1
   1337   1343     1
   1337   1344     1
   1338   2728     1
   1338   1343     1
   1338   1344     1
   1342   2720     1
   1342   2721     1
   1343   2719     1
   1344   2719     1
   1345   2750     1
   1345   2751     1
   1346   2749     1
   1347   2749     1
   1350   1364     1
   1350   1365     1
   1350   1367     1
   1350   1368     1
   1350   1361     1
   1350   1362     1
   1351   1355     1
   1351   1356     1
   1351   1358     1
   1351   1359     1
   1351   1376     1
   1351   1377     1
   1352   1354     1
   1352   1357     1
   1352   1379     1
   1352   1375     1
   1352   1364     1
   1352   1365     1
   1353   1354     1
   1353   1357     1
   1353   1379     1
   1353   1375     1
   1353   1364     1
   1353   1365     1
   1354   1358     1
   1354   1359     1
   1354   1373     1
   1354   1374     1
   1355   1357     1
   1355   1379     1
   1355   1372     1
   1355   1367     1
   1355   1368     1
   1356   1357     1
   1356   1379     1
   1356   1372     1
   1356   1367     1
   1356   1368     1
   1357   1370     1
   1357   1371     1
   1358   1379     1
   1358   1369     1
   1358   1361     1
   1358   1362     1
   1359   1379     1
   1359   1369     1
   1359   1361     1
   1359   1362     1
   1360   1379     1
   1361   1378     1
   1361   1370     1
   1361   1371     1
   1362   1378     1
   1362   1370     1
   1362   1371     1
   1363   1379     1
   1364   2818     1
   1364   1376     1
   1364   1377     1
   1365   2818     1
   1365   1376     1
   1365   1377     1
   1366   1379     1
   1367   2788     1
   1367   1373     1
   1367   1374     1
   1368   2788     1
   1368   1373     1
   1368   1374     1
   1372   2780     1
   1372   2781     1
   1373   2779     1
   1374   2779     1
   1375   2810     1
   1375   2811     1
   1376   2809     1
   1377   2809     1
   1380   1394     1
   1380   1395     1
   1380   1397     1
   1380   1398     1
   1380   1391     1
   1380   1392     1
   1381   1385     1
   1381   1386     1
   1381   1388     1
   1381   1389     1
   1381   1406     1
   1381   1407     1
   1382   1384     1
   1382   1387     1
   1382   1409     1
   1382   1405     1
   1382   1394     1
   1382   1395     1
   1383   1384     1
   1383   1387     1
   1383   1409     1
   1383   1405     1
   1383   1394     1
   1383   1395     1
   1384   1388     1
   1384   1389     1
   1384   1403     1
   1384   1404     1
   1385   1387     1
   1385   1409     1
   1385   1402     1
   1385   1397     1
   1385   1398     1
   1386   1387     1
   1386   1409     1
   1386   1402     1
   1386   1397     1
   1386   1398     1
   1387   1400     1
   1387   1401     1
   1388   1409     1
   1388   1399     1
   1388   1391     1
   1388   1392     1
   1389   1409     1
   1389   1399     1
   1389   1391     1
   1389   1392     1
   1390   1409     1
   1391   1408     1
   1391   1400     1
   1391   1401     1
   1392   1408     1
   1392   1400     1
   1392   1401     1
   1393   1409     1
   1394   2878     1
   1394   1406     1
   1394   1407     1
   1395   2878     1
   1395   1406     1
   1395   1407     1
   1396   1409     1
   1397   2848     1
   1397   1403     1
   1397   1404     1
   1398   2848     1
   1398   1403     1
   1398   1404     1
   1402   2840     1
   1402   2841     1
   1403   2839     1
   1404   2839     1
   1405   2870     1
   1405   2871     1
   1406   2869     1
   1407   2869     1
   1410   1424     1
   1410   1425     1
   1410   1427     1
   1410   1428     1
   1410   1421     1
   1410   1422     1
   1411   1415     1
   1411   1416     1
   1411   1418     1
   1411   1419     1
   1411   1436     1
   1411   1437     1
   1412   1414     1
   1412   1417     1
   1412   1439     1
   1412   1435     1
   1412   1424     1
   1412   1425     1
   1413   1414     1
   1413   1417     1
   1413   1439     1
   1413   1435     1
   1413   1424     1
   1413   1425     1
   1414   1418     1
   1414   1419     1
   1414   1433     1
   1414   1434     1
   1415   1417     1
   1415   1439     1
   1415   1432     1
   1415   1427     1
   1415   1428     1
   1416   1417     1
   1416   1439     1
   1416   1432     1
   1416   1427     1
   1416   1428     1
   1417   1430     1
   1417   1431     1
   1418   1439     1
   1418   1429     1
   1418   1421     1
   1418   1422     1
   1419   1439     1
   1419   1429     1
   1419   1421     1
   1419   1422     1
   1420   1439     1
   1421   1438     1
   1421   1430     1
   1421   1431     1
   1422   1438     1
   1422   1430     1
   1422   1431     1
   1423   1439     1
   1424   2938     1
   1424   1436     1
   1424   1437     1
   1425   2938     1
   1425   1436     1
   1425   1437     1
   1426   1439     1
   1427   2908     1
   1427   1433     1
   1427   1434     1
   1428   2908     1
   1428   1433     1
   1428   1434     1
   1432   2900     1
   1432   2901     1
   1433   2899     1
   1434   2899     1
   1435   2930     1
   1435   2931     1
   1436   2929     1
   1437   2929     1
   1440   1454     1
   1440   1455     1
   1440   1457     1
   1440   1458     1
   1440   1451     1
   1440   1452     1
   1441   1445     1
   1441   1446     1
   1441   1448     1
   1441   1449     1
   1441   1466     1
   1441   1467     1
   1442   1444     1
   1442   1447     1
   1442   1469     1
   1442   1465     1
   1442   1454     1
   1442   1455     1
   1443   1444     1
   1443   1447     1
   1443   1469     1
   1443   1465     1
   1443   1454     1
   1443   1455     1
   1444   1448     1
   1444   1449     1
   1444   1463     1
   1444   1464     1
   1445   1447     1
   1445   1469     1
   1445   1462     1
   1445   1457     1
   1445   1458     1
   1446   1447     1
   1446   1469     1
   1446   1462     1
   1446   1457     1
   1446   1458     1
   1447   1460     1
   1447   1461     1
   1448   1469     1
   1448   1459     1
   1448   1451     1
   1448   1452     1
   1449   1469     1
   1449   1459     1
   1449   1451     1
   1449   1452     1
   1450   1469     1
   1451   1468     1
   1451   1460     1
   1451   1461     1
   1452   1468     1
   1452   1460     1
   1452   1461     1
   1453   1469     1
   1454   2998     1
   1454   1466     1
   1454   1467     1
   1455   2998     1
   1455   1466     1
   1455   1467     1
   1456   1469     1
   1457   2968     1
   1457   1463     1
   1457   1464     1
   1458   2968     1
   1458   1463     1
   1458   1464     1
   1462   2960     1
   1462   2961     1
   1463   2959     1
   1464   2959     1
   1465   2990     1
   1465   2991     1
   1466   2989     1
   1467   2989     1
   1470   1484     1
   1470   1485     1
   1470   1487     1
   1470   1488     1
   1470   1481     1
   1470   1482     1
   1471   1475     1
   1471   1476     1
   1471   1478     1
   1471   1479     1
   1471   1496     1
   1471   1497     1
   1472   1474     1
   1472   1477     1
   1472   1499     1
   1472   1495     1
   1472   1484     1
   1472   1485     1
   1473   1474     1
   1473   1477     1
   1473   1499     1
   1473   1495     1
   1473   1484     1
   1473   1485     1
   1474   1478     1
   1474   1479     1
   1474   1493     1
   1474   1494     1
   1475   1477     1
   1475   1499     1
   1475   1492     1
   1475   1487     1
   1475   1488     1
   1476   1477     1
   1476   1499     1
   1476   1492     1
   1476   1487     1
   1476   1488     1
   1477   1490     1
   1477   1491     1
   1478   1499     1
   1478   1489     1
   1478   1481     1
   1478   1482     1
   1479   1499     1
   1479   1489     1
   1479   1481     1
   1479   1482     1
   1480   1499     1
   1481   1498     1
   1481   1490     1
   1481   1491     1
   1482   1498     1
   1482   1490     1
   1482   1491     1
   1483   1499     1
   1484   3058     1
   1484   1496     1
   1484   1497     1
   1485   3058     1
   1485   1496     1
   1485   1497     1
   1486   1499     1
   1487   3028     1
   1487   1493     1
   1487   1494     1
   1488   3028     1
   1488   1493     1
   1488   1494     1
   1492   3020     1
   1492   3021     1
   1493   3019     1
   1494   3019     1
   1495   3050     1
   1495   3051     1
   1496   3049     1
   1497   3049     1
   1500   1514     1
   1500   1515     1
   1500   1517     1
   1500   1518     1
   1500   1511     1
   1500   1512     1
   1501   1505     1
   1501   1506     1
   1501   1508     1
   1501   1509     1
   1501   1526     1
   1501   1527     1
   1502   1504     1
   1502   1507     1
   1502   1529     1
   1502   1525     1
   1502   1514     1
   1502   1515     1
   1503   1504     1
   1503   1507     1
   1503   1529     1
   1503   1525     1
   1503   1514     1
   1503   1515     1
   1504   1508     1
   1504   1509     1
   1504   1523     1
   1504   1524     1
   1505   1507     1
   1505   1529     1
   1505   1522     1
   1505   1517     1
   1505   1518     1
   1506   1507     1
   1506   1529     1
   1506   1522     1
   1506   1517     1
   1506   1518     1
   1507   1520     1
   1507   1521     1
   1508   1529     1
   1508   1519     1
   1508   1511     1
   1508   1512     1
   1509   1529     1
   1509   1519     1
   1509   1511     1
   1509   1512     1
   1510   1529     1
   1511   1528     1
   1511   1520     1
   1511   1521     1
   1512   1528     1
   1512   1520     1
   1512   1521     1
   1513   1529     1
   1514   3118     1
   1514   1526     1
   1514   1527     1
   1515   3118     1
   1515   1526     1
   1515   1527     1
   1516   1529     1
   1517   3088     1
   1517   1523     1
   1517   1524     1
   1518   3088     1
   1518   1523     1
   1518   1524     1
   1522   3080     1
   1522   3081     1
   1523   3079     1
   1524   3079     1
   1525   3110     1
   1525   3111     1
   1526   3109     1
   1527   3109     1
   1530   1544     1
   1530   1545     1
   1530   1547     1
   1530   1548     1
   1530   1541     1
   1530   1542     1
   1531   1535     1
   1531   1536     1
   1531   1538     1
   1531   1539     1
   1531   1556     1
   1531   1557     1
   1532   1534     1
   1532   1537     1
   1532   1559     1
   1532   1555     1
   1532   1544     1
   1532   1545     1
   1533   1534     1
   1533   1537     1
   1533   1559     1
   1533   1555     1
   1533   1544     1
   1533   1545     1
   1534   1538     1
   1534   1539     1
   1534   1553     1
   1534   1554     1
   1535   1537     1
   1535   1559     1
   1535   1552     1
   1535   1547     1
   1535   1548     1
   1536   1537     1
   1536   1559     1
   1536   1552     1
   1536   1547     1
   1536   1548     1
   1537   1550     1
   1537   1551     1
   1538   1559     1
   1538   1549     1
   1538   1541     1
   1538   1542     1
   1539   1559     1
   1539   1549     1
   1539   1541     1
   1539   1542     1
   1540   1559     1
   1541   1558     1
   1541   1550     1
   1541   1551     1
   1542   1558     1
   1542   1550     1
   1542   1551     1
   1543   1559     1
   1544   3178     1
   1544   1556     1
   1544   1557     1
   1545   3178     1
   1545   1556     1
   1545   1557     1
   1546   1559     1
   1547   3148     1
   1547   1553     1
   1547   1554     1
   1548   3148     1
   1548   1553     1
   1548   1554     1
   1552   3140     1
   1552   3141     1
   1553   3139     1
   1554   3139     1
   1555   3170     1
   1555   3171     1
   1556   3169     1
   1557   3169     1
   1560   1574     1
   1560   1575     1
   1560   1577     1
   1560   1578     1
   1560   1571     1
   1560   1572     1
   1561   1565     1
   1561   1566     1
   1561   1568     1
   1561   1569     1
   1561   1586     1
   1561   1587     1
   1562   1564     1
   1562   1567     1
   1562   1589     1
   1562   1585     1
   1562   1574     1
   1562   1575     1
   1563   1564     1
   1563   1567     1
   1563   1589     1
   1563   1585     1
   1563   1574     1
   1563   1575     1
   1564   1568     1
   1564   1569     1
   1564   1583     1
   1564   1584     1
   1565   1567     1
   1565   1589     1
   1565   1582     1
   1565   1577     1
   1565   1578     1
   1566   1567     1
   1566   1589     1
   1566   1582     1
   1566   1577     1
   1566   1578     1
   1567   1580     1
   1567   1581     1
   1568   1589     1
   1568   1579     1
   1568   1571     1
   1568   1572     1
   1569   1589     1
   1569   1579     1
   1569   1571     1
   1569   1572     1
   1570   1589     1
   1571   1588     1
   1571   1580     1
   1571   1581     1
   1572   1588     1
   1572   1580     1
   1572   1581     1
   1573   1589     1
   1574   3238     1
   1574   1586     1
   1574   1587     1
   1575   3238     1
   1575   1586     1
   1575   1587     1
   1576   1589     1
   1577   3208     1
   1577   1583     1
   1577   1584     1
   1578   3208     1
   1578   1583     1
   1578   1584     1
   1582   3200     1
   1582   3201     1
   1583   3199     1
   1584   3199     1
   1585   3230     1
   1585   3231     1
   1586   3229     1
   1587   3229     1
   1590   1604     1
   1590   1605     1
   1590   1607     1
   1590   1608     1
   1590   1601     1
   1590   1602     1
   1591   1595     1
   1591   1596     1
   1591   1598     1
   1591   1599     1
   1591   1616     1
   1591   1617     1
   1592   1594     1
   1592   1597     1
   1592   1619     1
   1592   1615     1
   1592   1604     1
   1592   1605     1
   1593   1594     1
   1593   1597     1
   1593   1619     1
   1593   1615     1
   1593   1604     1
   1593   1605     1
   1594   1598     1
   1594   1599     1
   1594   1613     1
   1594   1614     1
   1595   1597     1
   1595   1619     1
   1595   1612     1
   1595   1607     1
   1595   1608     1
   1596   1597     1
   1596   1619     1
   1596   1612     1
   1596   1607     1
   1596   1608     1
   1597   1610     1
   1597   1611     1
   1598   1619     1
   1598   1609     1
   1598   1601     1
   1598   1602     1
   1599   1619     1
   1599   1609     1
   1599   1601     1
   1599   1602     1
   1600   1619     1
   1601   1618     1
   1601   1610     1
   1601   1611     1
   1602   1618     1
   1602   1610     1
   1602   1611     1
   1603   1619     1
   1604   3298     1
   1604   1616     1
   1604   1617     1
   1605   3298     1
   1605   1616     1
   1605   1617     1
   1606   1619     1
   1607   3268     1
   1607   1613     1
   1607   1614     1
   1608   3268     1
   1608   1613     1
   1608   1614     1
   1612   3260     1
   1612   3261     1
   1613   3259     1
   1614   3259     1
   1615   3290     1
   1615   3291     1
   1616   3289     1
   1617   3289     1
   1620   1634     1
   1620   1635     1
   1620   1637     1
   1620   1638     1
   1620   1631     1
   1620   1632     1
   1621   1625     1
   1621   1626     1
   1621   1628     1
   1621   1629     1
   1621   1646     1
   1621   1647     1
   1622   1624     1
   1622   1627     1
   1622   1649     1
   1622   1645     1
   1622   1634     1
   1622   1635     1
   1623   1624     1
   1623   1627     1
   1623   1649     1
   1623   1645     1
   1623   1634     1
   1623   1635     1
   1624   1628     1
   1624   1629     1
   1624   1643     1
   1624   1644     1
   1625   1627     1
   1625   1649     1
   1625   1642     1
   1625   1637     1
   1625   1638     1
   1626   1627     1
   1626   1649     1
   1626   1642     1
   1626   1637     1
   1626   1638     1
   1627   1640     1
   1627   1641     1
   1628   1649     1
   1628   1639     1
   1628   1631     1
   1628   1632     1
   1629   1649     1
   1629   1639     1
   1629   1631     1
   1629   1632     1
   1630   1649     1
   1631   1648     1
   1631   1640     1
   1631   1641     1
   1632   1648     1
   1632   1640     1
   1632   1641     1
   1633   1649     1
   1634   3358     1
   1634   1646     1
   1634   1647     1
   1635   3358     1
   1635   1646     1
   1635   1647     1
   1636   1649     1
   1637   3328     1
   1637   1643     1
   1637   1644     1
   1638   3328     1
   1638   1643     1
   1638   1644     1
   1642   3320     1
   1642   3321     1
   1643   3319     1
   1644   3319     1
   1645   3350     1
   1645   3351     1
   1646   3349     1
   1647   3349     1
   1650   1664     1
   1650   1665     1
   1650   1667     1
   1650   1668     1
   1650   1661     1
   1650   1662     1
   1651   1655     1
   1651   1656     1
   1651   1658     1
   1651   1659     1
   1651   1676     1
   1651   1677     1
   1652   1654     1
   1652   1657     1
   1652   1679     1
   1652   1675     1
   1652   1664     1
   1652   1665     1
   1653   1654     1
   1653   1657     1
   1653   1679     1
   1653   1675     1
   1653   1664     1
   1653   1665     1
   1654   1658     1
   1654   1659     1
   1654   1673     1
   1654   1674     1
   1655   1657     1
   1655   1679     1
   1655   1672     1
   1655   1667     1
   1655   1668     1
   1656   1657     1
   1656   1679     1
   1656   1672     1
   1656   1667     1
   1656   1668     1
   1657   1670     1
   1657   1671     1
   1658   1679     1
   1658   1669     1
   1658   1661     1
   1658   1662     1
   1659   1679     1
   1659   1669     1
   1659   1661     1
   1659   1662     1
   1660   1679     1
   1661   1678     1
   1661   1670     1
   1661   1671     1
   1662   1678     1
   1662   1670     1
   1662   1671     1
   1663   1679     1
   1664   3418     1
   1664   1676     1
   1664   1677     1
   1665   3418     1
   1665   1676     1
   1665   1677     1
   1666   1679     1
   1667   3388     1
   1667   1673     1
   1667   1674     1
   1668   3388     1
   1668   1673     1
   1668   1674     1
   1672   3380     1
   1672   3381     1
   1673   3379     1
   1674   3379     1
   1675   3410     1
   1675   3411     1
   1676   3409     1
   1677   3409     1
   1680   1694     1
   1680   1695     1
   1680   1697     1
   1680   1698     1
   1680   1691     1
   1680   1692     1
   1681   1685     1
   1681   1686     1
   1681   1688     1
   1681   1689     1
   1681   1706     1
   1681   1707     1
   1682   1684     1
   1682   1687     1
   1682   1709     1
   1682   1705     1
   1682   1694     1
   1682   1695     1
   1683   1684     1
   1683   1687     1
   1683   1709     1
   1683   1705     1
   1683   1694     1
   1683   1695     1
   1684   1688     1
   1684   1689     1
   1684   1703     1
   1684   1704     1
   1685   1687     1
   1685   1709     1
   1685   1702     1
   1685   1697     1
   1685   1698     1
   1686   1687     1
   1686   1709     1
   1686   1702     1
   1686   1697     1
   1686   1698     1
   1687   1700     1
   1687   1701     1
   1688   1709     1
   1688   1699     1
   1688   1691     1
   1688   1692     1
   1689   1709     1
   1689   1699     1
   1689   1691     1
   1689   1692     1
   1690   1709     1
   1691   1708     1
   1691   1700     1
   1691   1701     1
   1692   1708     1
   1692   1700     1
   1692   1701     1
   1693   1709     1
   1694   3478     1
   1694   1706     1
   1694   1707     1
   1695   3478     1
   1695   1706     1
   1695   1707     1
   1696   1709     1
   1697   3448     1
   1697   1703     1
   1697   1704     1
   1698   3448     1
   1698   1703     1
   1698   1704     1
   1702   3440     1
   1702   3441     1
   1703   3439     1
   1704   3439     1
   1705   3470     1
   1705   3471     1
   1706   3469     1
   1707   3469     1
   1710   1724     1
   1710   1725     1
   1710   1727     1
   1710   1728     1
   1710   1721     1
   1710   1722     1
   1711   1715     1
   1711   1716     1
   1711   1718     1
   1711   1719     1
   1711   1736     1
   1711   1737     1
   1712   1714     1
   1712   1717     1
   1712   1739     1
   1712   1735     1
   1712   1724     1
   1712   1725     1
   1713   1714     1
   1713   1717     1
   1713   1739     1
   1713   1735     1
   1713   1724     1
   1713   1725     1
   1714   1718     1
   1714   1719     1
   1714   1733     1
   1714   1734     1
   1715   1717     1
   1715   1739     1
   1715   1732     1
   1715   1727     1
   1715   1728     1
   1716   1717     1
   1716   1739     1
   1716   1732     1
   1716   1727     1
   1716   1728     1
   1717   1730     1
   1717   1731     1
   1718   1739     1
   1718   1729     1
   1718   1721     1
   1718   1722     1
   1719   1739     1
   1719   1729     1
   1719   1721     1
   1719   1722     1
   1720   1739     1
   1721   1738     1
   1721   1730     1
   1721   1731     1
   1722   1738     1
   1722   1730     1
   1722   1731     1
   1723   1739     1
   1724   3538     1
   1724   1736     1
   1724   1737     1
   1725   3538     1
   1725   1736     1
   1725   1737     1
   1726   1739     1
   1727   3508     1
   1727   1733     1
   1727   1734     1
   1728   3508     1
   1728   1733     1
   1728   1734     1
   1732   3500     1
   1732   3501     1
   1733   3499     1
   1734   3499     1
   1735   3530     1
   1735   3531     1
   1736   3529     1
   1737   3529     1
   1740   1754     1
   1740   1755     1
   1740   1757     1
   1740   1758     1
   1740   1751     1
   1740   1752     1
   1741   1745     1
   1741   1746     1
   1741   1748     1
   1741   1749     1
   1741   1766     1
   1741   1767     1
   1742   1744     1
   1742   1747     1
   1742   1769     1
   1742   1765     1
   1742   1754     1
   1742   1755     1
   1743   1744     1
   1743   1747     1
   1743   1769     1
   1743   1765     1
   1743   1754     1
   1743   1755     1
   1744   1748     1
   1744   1749     1
   1744   1763     1
   1744   1764     1
   1745   1747     1
   1745   1769     1
   1745   1762     1
   1745   1757     1
   1745   1758     1
   1746   1747     1
   1746   1769     1
   1746   1762     1
   1746   1757     1
   1746   1758     1
   1747   1760     1
   1747   1761     1
   1748   1769     1
   1748   1759     1
   1748   1751     1
   1748   1752     1
   1749   1769     1
   1749   1759     1
   1749   1751     1
   1749   1752     1
   1750   1769     1
   1751   1768     1
   1751   1760     1
   1751   1761     1
   1752   1768     1
   1752   1760     1
   1752   1761     1
   1753   1769     1
   1754   3598     1
   1754   1766     1
   1754   1767     1
   1755   3598     1
   1755   1766     1
   1755   1767     1
   1756   1769     1
   1757   3568     1
   1757   1763     1
   1757   1764     1
   1758   3568     1
   1758   1763     1
   1758   1764     1
   1762   3560     1
   1762   3561     1
   1763   3559     1
   1764   3559     1
   1765   3590     1
   1765   3591     1
   1766   3589     1
   1767   3589     1
   1770   1784     1
   1770   1785     1
   1770   1787     1
   1770   1788     1
   1770   1781     1
   1770   1782     1
   1771   1775     1
   1771   1776     1
   1771   1778     1
   1771   1779     1
   1771   1796     1
   1771   1797     1
   1772   1774     1
   1772   1777     1
   1772   1799     1
   1772   1795     1
   1772   1784     1
   1772   1785     1
   1773   1774     1
   1773   1777     1
   1773   1799     1
   1773   1795     1
   1773   1784     1
   1773   1785     1
   1774   1778     1
   1774   1779     1
   1774   1793     1
   1774   1794     1
   1775   1777     1
   1775   1799     1
   1775   1792     1
   1775   1787     1
   1775   1788     1
   1776   1777     1
   1776   1799     1
   1776   1792     1
   1776   1787     1
   1776   1788     1
   1777   1790     1
   1777   1791     1
   1778   1799     1
   1778   1789     1
   1778   1781     1
   1778   1782     1
   1779   1799     1
   1779   1789     1
   1779   1781     1
   1779   1782     1
   1780   1799     1
   1781   1798     1
   1781   1790     1
   1781   1791     1
   1782   1798     1
   1782   1790     1
   1782   1791     1
   1783   1799     1
   1784   3658     1
   1784   1796     1
   1784   1797     1
   1785   3658     1
   1785   1796     1
   1785   1797     1
   1786   1799     1
   1787   3628     1
   1787   1793     1
   1787   1794     1
   1788   3628     1
   1788   1793     1
   1788   1794     1
   1792   3620     1
   1792   3621     1
   1793   3619     1
   1794   3619     1
   1795   3650     1
   1795   3651     1
   1796   3649     1
   1797   3649     1
   1800   1814     1
   1800   1815     1
   1800   1817     1
   1800   1818     1
   1800   1811     1
   1800   1812     1
   1801   1805     1
   1801   1806     1
   1801   1808     1
   1801   1809     1
   1801   1826     1
   1801   1827     1
   1802   1804     1
   1802   1807     1
   1802   1829     1
   1802   1825     1
   1802   1814     1
   1802   1815     1
   1803   1804     1
   1803   1807     1
   1803   1829     1
   1803   1825     1
   1803   1814     1
   1803   1815     1
   1804   1808     1
   1804   1809     1
   1804   1823     1
   1804   1824     1
   1805   1807     1
   1805   1829     1
   1805   1822     1
   1805   1817     1
   1805   1818     1
   1806   1807     1
   1806   1829     1
   1806   1822     1
   1806   1817     1
   1806   1818     1
   1807   1820     1
   1807   1821     1
   1808   1829     1
   1808   1819     1
   1808   1811     1
   1808   1812     1
   1809   1829     1
   1809   1819     1
   1809   1811     1
   1809   1812     1
   1810   1829     1
   1811   1828     1
   1811   1820     1
   1811   1821     1
   1812   1828     1
   1812   1820     1
   1812   1821     1
   1813   1829     1
   1814   3718     1
   1814   1826     1
   1814   1827     1
   1815   3718     1
   1815   1826     1
   1815   1827     1
   1816   1829     1
   1817   3688     1
   1817   1823     1
   1817   1824     1
   1818   3688     1
   1818   1823     1
   1818   1824     1
   1822   3680     1
   1822   3681     1
   1823   3679     1
   1824   3679     1
   1825   3710     1
   1825   3711     1
   1826   3709     1
   1827   3709     1
   1830   1844     1
   1830   1845     1
   1830   1847     1
   1830   1848     1
   1830   1841     1
   1830   1842     1
   1831   1835     1
   1831   1836     1
   1831   1838     1
   1831   1839     1
   1831   1856     1
   1831   1857     1
   1832   1834     1
   1832   1837     1
   1832   1859     1
   1832   1855     1
   1832   1844     1
   1832   1845     1
   1833   1834     1
   1833   1837     1
   1833   1859     1
   1833   1855     1
   1833   1844     1
   1833   1845     1
   1834   1838     1
   1834   1839     1
   1834   1853     1
   1834   1854     1
   1835   1837     1
   1835   1859     1
   1835   1852     1
   1835   1847     1
   1835   1848     1
   1836   1837     1
   1836   1859     1
   1836   1852     1
   1836   1847     1
   1836   1848     1
   1837   1850     1
   1837   1851     1
   1838   1859     1
   1838   1849     1
   1838   1841     1
   1838   1842     1
   1839   1859     1
   1839   1849     1
   1839   1841     1
   1839   1842     1
   1840   1859     1
   1841   1858     1
   1841   1850     1
   1841   1851     1
   1842   1858     1
   1842   1850     1
   1842   1851     1
   1843   1859     1
   1844   3778     1
   1844   1856     1
   1844   1857     1
   1845   3778     1
   1845   1856     1
   1845   1857     1
   1846   1859     1
   1847   3748     1
   1847   1853     1
   1847   1854     1
   1848   3748     1
   1848   1853     1
   1848   1854     1
   1852   3740     1
   1852   3741     1
   1853   3739     1
   1854   3739     1
   1855   3770     1
   1855   3771     1
   1856   3769     1
   1857   3769     1
   1860   1874     1
   1860   1875     1
   1860   1877     1
   1860   1878     1
   1860   1871     1
   1860   1872     1
   1861   1865     1
   1861   1866     1
   1861   1868     1
   1861   1869     1
   1861   1886     1
   1861   1887     1
   1862   1864     1
   1862   1867     1
   1862   1889     1
   1862   1885     1
   1862   1874     1
   1862   1875     1
   1863   1864     1
   1863   1867     1
   1863   1889     1
   1863   1885     1
   1863   1874     1
   1863   1875     1
   1864   1868     1
   1864   1869     1
   1864   1883     1
   1864   1884     1
   1865   1867     1
   1865   1889     1
   1865   1882     1
   1865   1877     1
   1865   1878     1
   1866   1867     1
   1866   1889     1
   1866   1882     1
   1866   1877     1
   1866   1878     1
   1867   1880     1
   1867   1881     1
   1868   1889     1
   1868   1879     1
   1868   1871     1
   1868   1872     1
   1869   1889     1
   1869   1879     1
   1869   1871     1
   1869   1872     1
   1870   1889     1
   1871   1888     1
   1871   1880     1
   1871   1881     1
   1872   1888     1
   1872   1880     1
   1872   1881     1
   1873   1889     1
   1874   3838     1
   1874   1886     1
   1874   1887     1
   1875   3838     1
   1875   1886     1
   1875   1887     1
   1876   1889     1
   1877   3808     1
   1877   1883     1
   1877   1884     1
   1878   3808     1
   1878   1883     1
   1878   1884     1
   1882   3800     1
   1882   3801     1
   1883   3799     1
   1884   3799     1
   1885   3830     1
   1885   3831     1
   1886   3829     1
   1887   3829     1
   1890   1904     1
   1890   1905     1
   1890   1907     1
   1890   1908     1
   1890   1901     1
   1890   1902     1
   1891   1895     1
   1891   1896     1
   1891   1898     1
   1891   1899     1
   1891   1916     1
   1891   1917     1
   1892   1894     1
   1892   1897     1
   1892   1919     1
   1892   1915     1
   1892   1904     1
   1892   1905     1
   1893   1894     1
   1893   1897     1
   1893   1919     1
   1893   1915     1
   1893   1904     1
   1893   1905     1
   1894   1898     1
   1894   1899     1
   1894   1913     1
   1894   1914     1
   1895   1897     1
   1895   1919     1
   1895   1912     1
   1895   1907     1
   1895   1908     1
   1896   1897     1
   1896   1919     1
   1896   1912     1
   1896   1907     1
   1896   1908     1
   1897   1910     1
   1897   1911     1
   1898   1919     1
   1898   1909     1
   1898   1901     1
   1898   1902     1
   1899   1919     1
   1899   1909     1
   1899   1901     1
   1899   1902     1
   1900   1919     1
   1901   1918     1
   1901   1910     1
   1901   1911     1
   1902   1918     1
   1902   1910     1
   1902   1911     1
   1903   1919     1
   1904   3898     1
   1904   1916     1
   1904   1917     1
   1905   3898     1
   1905   1916     1
   1905   1917     1
   1906   1919     1
   1907   3868     1
   1907   1913     1
   1907   1914     1
   1908   3868     1
   1908   1913     1
   1908   1914     1
   1912   3860     1
   1912   3861     1
   1913   3859     1
   1914   3859     1
   1915   3890     1
   1915   3891     1
   1916   3889     1
   1917   3889     1
   1920   1934     1
   1920   1935     1
   1920   1937     1
   1920   1938     1
   1920   1931     1
   1920   1932     1
   1921   1925     1
   1921   1926     1
   1921   1928     1
   1921   1929     1
   1921   1946     1
   1921   1947     1
   1922   1924     1
   1922   1927     1
   1922   1949     1
   1922   1945     1
   1922   1934     1
   1922   1935     1
   1923   1924     1
   1923   1927     1
   1923   1949     1
   1923   1945     1
   1923   1934     1
   1923   1935     1
   1924   1928     1
   1924   1929     1
   1924   1943     1
   1924   1944     1
   1925   1927     1
   1925   1949     1
   1925   1942     1
   1925   1937     1
   1925   1938     1
   1926   1927     1
   1926   1949     1
   1926   1942     1
   1926   1937     1
   1926   1938     1
   1927   1940     1
   1927   1941     1
   1928   1949     1
   1928   1939     1
   1928   1931     1
   1928   1932     1
   1929   1949     1
   1929   1939     1
   1929   1931     1
   1929   1932     1
   1930   1949     1
   1931   1948     1
   1931   1940     1
   1931   1941     1
   1932   1948     1
   1932   1940     1
   1932   1941     1
   1933   1949     1
   1934   3958     1
   1934   1946     1
   1934   1947     1
   1935   3958     1
   1935   1946     1
   1935   1947     1
   1936   1949     1
   1937   3928     1
   1937   1943     1
   1937   1944     1
   1938   3928     1
   1938   1943     1
   1938   1944     1
   1942   3920     1
   1942   3921     1
   1943   3919     1
   1944   3919     1
   1945   3950     1
   1945   3951     1
   1946   3949     1
   1947   3949     1
   1950   1964     1
   1950   1965     1
   1950   1967     1
   1950   1968     1
   1950   1961     1
   1950   1962     1
   1951   1955     1
   1951   1956     1
   1951   1958     1
   1951   1959     1
   1951   1976     1
   1951   1977     1
   1952   1954     1
   1952   1957     1
   1952   1979     1
   1952   1975     1
   1952   1964     1
   1952   1965     1
   1953   1954     1
   1953   1957     1
   1953   1979     1
   1953   1975     1
   1953   1964     1
   1953   1965     1
   1954   1958     1
   1954   1959     1
   1954   1973     1
   1954   1974     1
   1955   1957     1
   1955   1979     1
   1955   1972     1
   1955   1967     1
   1955   1968     1
   1956   1957     1
   1956   1979     1
   1956   1972     1
   1956   1967     1
   1956   1968     1
   1957   1970     1
   1957   1971     1
   1958   1979     1
   1958   1969     1
   1958   1961     1
   1958   1962     1
   1959   1979     1
   1959   1969     1
   1959   1961     1
   1959   1962     1
   1960   1979     1
   1961   1978     1
   1961   1970     1
   1961   1971     1
   1962   1978     1
   1962   1970     1
   1962   1971     1
   1963   1979     1
   1964   4018     1
   1964   1976     1
   1964   1977     1
   1965   4018     1
   1965   1976     1
   1965   1977     1
   1966   1979     1
   1967   3988     1
   1967   1973     1
   1967   1974     1
   1968   3988     1
   1968   1973     1
   1968   1974     1
   1972   3980     1
   1972   3981     1
   1973   3979     1
   1974   3979     1
   1975   4010     1
   1975   4011     1
   1976   4009     1
   1977   4009     1
   1980   1994     1
   1980   1995     1
   1980   1997     1
   1980   1998     1
   1980   1991     1
   1980   1992     1
   1981   1985     1
   1981   1986     1
   1981   1988     1
   1981   1989     1
   1981   2006     1
   1981   2007     1
   1982   1984     1
   1982   1987     1
   1982   2009     1
   1982   2005     1
   1982   1994     1
   1982   1995     1
   1983   1984     1
   1983   1987     1
   1983   2009     1
   1983   2005     1
   1983   1994     1
   1983   1995     1
   1984   1988     1
   1984   1989     1
   1984   2003     1
   1984   2004     1
   1985   1987     1
   1985   2009     1
   1985   2002     1
   1985   1997     1
   1985   1998     1
   1986   1987     1
   1986   2009     1
   1986   2002     1
   1986   1997     1
   1986   1998     1
   1987   2000     1
   1987   2001     1
   1988   2009     1
   1988   1999     1
   1988   1991     1
   1988   1992     1
   1989   2009     1
   1989   1999     1
   1989   1991     1
   1989   1992     1
   1990   2009     1
   1991   2008     1
   1991   2000     1
   1991   2001     1
   1992   2008     1
   1992   2000     1
   1992   2001     1
   1993   2009     1
   1994   4078     1
   1994   2006     1
   1994   2007     1
   1995   4078     1
   1995   2006     1
   1995   2007     1
   1996   2009     1
   1997   4048     1
   1997   2003     1
   1997   2004     1
   1998   4048     1
   1998   2003     1
   1998   2004     1
   2002   4040     1
   2002   4041     1
   2003   4039     1
   2004   4039     1
   2005   4070     1
   2005   4071     1
   2006   4069     1
   2007   4069     1
   2010   2024     1
   2010   2025     1
   2010   2027     1
   2010   2028     1
   2010   2021     1
   2010   2022     1
   2011   2015     1
   2011   2016     1
   2011   2018     1
   2011   2019     1
   2011   2036     1
   2011   2037     1
   2012   2014     1
   2012   2017     1
   2012   2039     1
   2012   2035     1
   2012   2024     1
   2012   2025     1
   2013   2014     1
   2013   2017     1
   2013   2039     1
   2013   2035     1
   2013   2024     1
   2013   2025     1
   2014   2018     1
   2014   2019     1
   2014   2033     1
   2014   2034     1
   2015   2017     1
   2015   2039     1
   2015   2032     1
   2015   2027     1
   2015   2028     1
   2016   2017     1
   2016   2039     1
   2016   2032     1
   2016   2027     1
   2016   2028     1
   2017   2030     1
   2017   2031     1
   2018   2039     1
   2018   2029     1
   2018   2021     1
   2018   2022     1
   2019   2039     1
   2019   2029     1
   2019   2021     1
   2019   2022     1
   2020   2039     1
   2021   2038     1
   2021   2030     1
   2021   2031     1
   2022   2038     1
   2022   2030     1
   2022   2031     1
   2023   2039     1
   2024   4138     1
   2024   2036     1
   2024   2037     1
   2025   4138     1
   2025   2036     1
   2025   2037     1
   2026   2039     1
   2027   4108     1
   2027   2033     1
   2027   2034     1
   2028   4108     1
   2028   2033     1
   2028   2034     1
   2032   4100     1
   2032   4101     1
   2033   4099     1
   2034   4099     1
   2035   4130     1
   2035   4131     1
   2036   4129     1
   2037   4129     1
   2040   2054     1
   2040   2055     1
   2040   2057     1
   2040   2058     1
   2040   2051     1
   2040   2052     1
   2041   2045     1
   2041   2046     1
   2041   2048     1
   2041   2049     1
   2041   2066     1
   2041   2067     1
   2042   2044     1
   2042   2047     1
   2042   2069     1
   2042   2065     1
   2042   2054     1
   2042   2055     1
   2043   2044     1
   2043   2047     1
   2043   2069     1
   2043   2065     1
   2043   2054     1
   2043   2055     1
   2044   2048     1
   2044   2049     1
   2044   2063     1
   2044   2064     1
   2045   2047     1
   2045   2069     1
   2045   2062     1
   2045   2057     1
   2045   2058     1
   2046   2047     1
   2046   2069     1
   2046   2062     1
   2046   2057     1
   2046   2058     1
   2047   2060     1
   2047   2061     1
   2048   2069     1
   2048   2059     1
   2048   2051     1
   2048   2052     1
   2049   2069     1
   2049   2059     1
   2049   2051     1
   2049   2052     1
   2050   2069     1
   2051   2068     1
   2051   2060     1
   2051   2061     1
   2052   2068     1
   2052   2060     1
   2052   2061     1
   2053   2069     1
   2054   4198     1
   2054   2066     1
   2054   2067     1
   2055   4198     1
   2055   2066     1
   2055   2067     1
   2056   2069     1
   2057   4168     1
   2057   2063     1
   2057   2064     1
   2058   4168     1
   2058   2063     1
   2058   2064     1
   2062   4160     1
   2062   4161     1
   2063   4159     1
   2064   4159     1
   2065   4190     1
   2065   4191     1
   2066   4189     1
   2067   4189     1
   2070   2084     1
   2070   2085     1
   2070   2087     1
   2070   2088     1
   2070   2081     1
   2070   2082     1
   2071   2075     1
   2071   2076     1
   2071   2078     1
   2071   2079     1
   2071   2096     1
   2071   2097     1
   2072   2074     1
   2072   2077     1
   2072   2099     1
   2072   2095     1
   2072   2084     1
   2072   2085     1
   2073   2074     1
   2073   2077     1
   2073   2099     1
   2073   2095     1
   2073   2084     1
   2073   2085     1
   2074   2078     1
   2074   2079     1
   2074   2093     1
   2074   2094     1
   2075   2077     1
   2075   2099     1
   2075   2092     1
   2075   2087     1
   2075   2088     1
   2076   2077     1
   2076   2099     1
   2076   2092     1
   2076   2087     1
   2076   2088     1
   2077   2090     1
   2077   2091     1
   2078   2099     1
   2078   2089     1
   2078   2081     1
   2078   2082     1
   2079   2099     1
   2079   2089     1
   2079   2081     1
   2079   2082     1
   2080   2099     1
   2081   2098     1
   2081   2090     1
   2081   2091     1
   2082   2098     1
   2082   2090     1
   2082   2091     1
   2083   2099     1
   2084   4258     1
   2084   2096     1
   2084   2097     1
   2085   4258     1
   2085   2096     1
   2085   2097     1
   2086   2099     1
   2087   4228     1
   2087   2093     1
   2087   2094     1
   2088   4228     1
   2088   2093     1
   2088   2094     1
   2092   4220     1
   2092   4221     1
   2093   4219     1
   2094   4219     1
   2095   4250     1
   2095   4251     1
   2096   4249     1
   2097   4249     1
   2100   2114     1
   2100   2115     1
   2100   2117     1
   2100   2118     1
   2100   2111     1
   2100   2112     1
   2101   2105     1
   2101   2106     1
   2101   2108     1
   2101   2109     1
   2101   2126     1
   2101   2127     1
   2102   2104     1
   2102   2107     1
   2102   2129     1
   2102   2125     1
   2102   2114     1
   2102   2115     1
   2103   2104     1
   2103   2107     1
   2103   2129     1
   2103   2125     1
   2103   2114     1
   2103   2115     1
   2104   2108     1
   2104   2109     1
   2104   2123     1
   2104   2124     1
   2105   2107     1
   2105   2129     1
   2105   2122     1
   2105   2117     1
   2105   2118     1
   2106   2107     1
   2106   2129     1
   2106   2122     1
   2106   2117     1
   2106   2118     1
   2107   2120     1
   2107   2121     1
   2108   2129     1
   2108   2119     1
   2108   2111     1
   2108   2112     1
   2109   2129     1
   2109   2119     1
   2109   2111     1
   2109   2112     1
   2110   2129     1
   2111   2128     1
   2111   2120     1
   2111   2121     1
   2112   2128     1
   2112   2120     1
   2112   2121     1
   2113   2129     1
   2114   4318     1
   2114   2126     1
   2114   2127     1
   2115   4318     1
   2115   2126     1
   2115   2127     1
   2116   2129     1
   2117   4288     1
   2117   2123     1
   2117   2124     1
   2118   4288     1
   2118   2123     1
   2118   2124     1
   2122   4280     1
   2122   4281     1
   2123   4279     1
   2124   4279     1
   2125   4310     1
   2125   4311     1
   2126   4309     1
   2127   4309     1
   2130   2144     1
   2130   2145     1
   2130   2147     1
   2130   2148     1
   2130   2141     1
   2130   2142     1
   2131   2135     1
   2131   2136     1
   2131   2138     1
   2131   2139     1
   2131   2156     1
   2131   2157     1
   2132   2134     1
   2132   2137     1
   2132   2159     1
   2132   2155     1
   2132   2144     1
   2132   2145     1
   2133   2134     1
   2133   2137     1
   2133   2159     1
   2133   2155     1
   2133   2144     1
   2133   2145     1
   2134   2138     1
   2134   2139     1
   2134   2153     1
   2134   2154     1
   2135   2137     1
   2135   2159     1
   2135   2152     1
   2135   2147     1
   2135   2148     1
   2136   2137     1
   2136   2159     1
   2136   2152     1
   2136   2147     1
   2136   2148     1
   2137   2150     1
   2137   2151     1
   2138   2159     1
   2138   2149     1
   2138   2141     1
   2138   2142     1
   2139   2159     1
   2139   2149     1
   2139   2141     1
   2139   2142     1
   2140   2159     1
   2141   2158     1
   2141   2150     1
   2141   2151     1
   2142   2158     1
   2142   2150     1
   2142   2151     1
   2143   2159     1
   2144   4378     1
   2144   2156     1
   2144   2157     1
   2145   4378     1
   2145   2156     1
   2145   2157     1
   2146   2159     1
   2147   4348     1
   2147   2153     1
   2147   2154     1
   2148   4348     1
   2148   2153     1
   2148   2154     1
   2152   4340     1
   2152   4341     1
   2153   4339     1
   2154   4339     1
   2155   4370     1
   2155   4371     1
   2156   4369     1
   2157   4369     1
   2160   2174     1
   2160   2175     1
   2160   2177     1
   2160   2178     1
   2160   2171     1
   2160   2172     1
   2161   2165     1
   2161   2166     1
   2161   2168     1
   2161   2169     1
   2161   2186     1
   2161   2187     1
   2162   2164     1
   2162   2167     1
   2162   2189     1
   2162   2185     1
   2162   2174     1
   2162   2175     1
   2163   2164     1
   2163   2167     1
   2163   2189     1
   2163   2185     1
   2163   2174     1
   2163   2175     1
   2164   2168     1
   2164   2169     1
   2164   2183     1
   2164   2184     1
   2165   2167     1
   2165   2189     1
   2165   2182     1
   2165   2177     1
   2165   2178     1
   2166   2167     1
   2166   2189     1
   2166   2182     1
   2166   2177     1
   2166   2178     1
   2167   2180     1
   2167   2181     1
   2168   2189     1
   2168   2179     1
   2168   2171     1
   2168   2172     1
   2169   2189     1
   2169   2179     1
   2169   2171     1
   2169   2172     1
   2170   2189     1
   2171   2188     1
   2171   2180     1
   2171   2181     1
   2172   2188     1
   2172   2180     1
   2172   2181     1
   2173   2189     1
   2174   4438     1
   2174   2186     1
   2174   2187     1
   2175   4438     1
   2175   2186     1
   2175   2187     1
   2176   2189     1
   2177   4408     1
   2177   2183     1
   2177   2184     1
   2178   4408     1
   2178   2183     1
   2178   2184     1
   2182   4400     1
   2182   4401     1
   2183   4399     1
   2184   4399     1
   2185   4430     1
   2185   4431     1
   2186   4429     1
   2187   4429     1
   2190   2204     1
   2190   2205     1
   2190   2207     1
   2190   2208     1
   2190   2201     1
   2190   2202     1
   2191   2195     1
   2191   2196     1
   2191   2198     1
   2191   2199     1
   2191   2216     1
   2191   2217     1
   2192   2194     1
   2192   2197     1
   2192   2219     1
   2192   2215     1
   2192   2204     1
   2192   2205     1
   2193   2194     1
   2193   2197     1
   2193   2219     1
   2193   2215     1
   2193   2204     1
   2193   2205     1
   2194   2198     1
   2194   2199     1
   2194   2213     1
   2194   2214     1
   2195   2197     1
   2195   2219     1
   2195   2212     1
   2195   2207     1
   2195   2208     1
   2196   2197     1
   2196   2219     1
   2196   2212     1
   2196   2207     1
   2196   2208     1
   2197   2210     1
   2197   2211     1
   2198   2219     1
   2198   2209     1
   2198   2201     1
   2198   2202     1
   2199   2219     1
   2199   2209     1
   2199   2201     1
   2199   2202     1
   2200   2219     1
   2201   2218     1
   2201   2210     1
   2201   2211     1
   2202   2218     1
   2202   2210     1
   2202   2211     1
   2203   2219     1
   2204   4498     1
   2204   2216     1
   2204   2217     1
   2205   4498     1
   2205   2216     1
   2205   2217     1
   2206   2219     1
   2207   4468     1
   2207   2213     1
   2207   2214     1
   2208   4468     1
   2208   2213     1
   2208   2214     1
   2212   4460     1
   2212   4461     1
   2213   4459     1
   2214   4459     1
   2215   4490     1
   2215   4491     1
   2216   4489     1
   2217   4489     1
   2220   2234     1
   2220   2235     1
   2220   2237     1
   2220   2238     1
   2220   2231     1
   2220   2232     1
   2221   2225     1
   2221   2226     1
   2221   2228     1
   2221   2229     1
   2221   2246     1
   2221   2247     1
   2222   2224     1
   2222   2227     1
   2222   2249     1
   2222   2245     1
   2222   2234     1
   2222   2235     1
   2223   2224     1
   2223   2227     1
   2223   2249     1
   2223   2245     1
   2223   2234     1
   2223   2235     1
   2224   2228     1
   2224   2229     1
   2224   2243     1
   2224   2244     1
   2225   2227     1
   2225   2249     1
   2225   2242     1
   2225   2237     1
   2225   2238     1
   2226   2227     1
   2226   2249     1
   2226   2242     1
   2226   2237     1
   2226   2238     1
   2227   2240     1
   2227   2241     1
   2228   2249     1
   2228   2239     1
   2228   2231     1
   2228   2232     1
   2229   2249     1
   2229   2239     1
   2229   2231     1
   2229   2232     1
   2230   2249     1
   2231   2248     1
   2231   2240     1
   2231   2241     1
   2232   2248     1
   2232   2240     1
   2232   2241     1
   2233   2249     1
   2234   4558     1
   2234   2246     1
   2234   2247     1
   2235   4558     1
   2235   2246     1
   2235   2247     1
   2236   2249     1
   2237   4528     1
   2237   2243     1
   2237   2244     1
   2238   4528     1
   2238   2243     1
   2238   2244     1
   2242   4520     1
   2242   4521     1
   2243   4519     1
   2244   4519     1
   2245   4550     1
   2245   4551     1
   2246   4549     1
   2247   4549     1
   2250   2264     1
   2250   2265     1
   2250   2267     1
   2250   2268     1
   2250   2261     1
   2250   2262     1
   2251   2255     1
   2251   2256     1
   2251   2258     1
   2251   2259     1
   2251   2276     1
   2251   2277     1
   2252   2254     1
   2252   2257     1
   2252   2279     1
   2252   2275     1
   2252   2264     1
   2252   2265     1
   2253   2254     1
   2253   2257     1
   2253   2279     1
   2253   2275     1
   2253   2264     1
   2253   2265     1
   2254   2258     1
   2254   2259     1
   2254   2273     1
   2254   2274     1
   2255   2257     1
   2255   2279     1
   2255   2272     1
   2255   2267     1
   2255   2268     1
   2256   2257     1
   2256   2279     1
   2256   2272     1
   2256   2267     1
   2256   2268     1
   2257   2270     1
   2257   2271     1
   2258   2279     1
   2258   2269     1
   2258   2261     1
   2258   2262     1
   2259   2279     1
   2259   2269     1
   2259   2261     1
   2259   2262     1
   2260   2279     1
   2261   2278     1
   2261   2270     1
   2261   2271     1
   2262   2278     1
   2262   2270     1
   2262   2271     1
   2263   2279     1
   2264   4618     1
   2264   2276     1
   2264   2277     1
   2265   4618     1
   2265   2276     1
   2265   2277     1
   2266   2279     1
   2267   4588     1
   2267   2273     1
   2267   2274     1
   2268   4588     1
   2268   2273     1
   2268   2274     1
   2272   4580     1
   2272   4581     1
   2273   4579     1
   2274   4579     1
   2275   4610     1
   2275   4611     1
   2276   4609     1
   2277   4609     1
   2280   2294     1
   2280   2295     1
   2280   2297     1
   2280   2298     1
   2280   2291     1
   2280   2292     1
   2281   2285     1
   2281   2286     1
   2281   2288     1
   2281   2289     1
   2281   2306     1
   2281   2307     1
   2282   2284     1
   2282   2287     1
   2282   2309     1
   2282   2305     1
   2282   2294     1
   2282   2295     1
   2283   2284     1
   2283   2287     1
   2283   2309     1
   2283   2305     1
   2283   2294     1
   2283   2295     1
   2284   2288     1
   2284   2289     1
   2284   2303     1
   2284   2304     1
   2285   2287     1
   2285   2309     1
   2285   2302     1
   2285   2297     1
   2285   2298     1
   2286   2287     1
   2286   2309     1
   2286   2302     1
   2286   2297     1
   2286   2298     1
   2287   2300     1
   2287   2301     1
   2288   2309     1
   2288   2299     1
   2288   2291     1
   2288   2292     1
   2289   2309     1
   2289   2299     1
   2289   2291     1
   2289   2292     1
   2290   2309     1
   2291   2308     1
   2291   2300     1
   2291   2301     1
   2292   2308     1
   2292   2300     1
   2292   2301     1
   2293   2309     1
   2294   4678     1
   2294   2306     1
   2294   2307     1
   2295   4678     1
   2295   2306     1
   2295   2307     1
   2296   2309     1
   2297   4648     1
   2297   2303     1
   2297   2304     1
   2298   4648     1
   2298   2303     1
   2298   2304     1
   2302   4640     1
   2302   4641     1
   2303   4639     1
   2304   4639     1
   2305   4670     1
   2305   4671     1
   2306   4669     1
   2307   4669     1
   2310   2324     1
   2310   2325     1
   2310   2327     1
   2310   2328     1
   2310   2321     1
   2310   2322     1
   2311   2315     1
   2311   2316     1
   2311   2318     1
   2311   2319     1
   2311   2336     1
   2311   2337     1
   2312   2314     1
   2312   2317     1
   2312   2339     1
   2312   2335     1
   2312   2324     1
   2312   2325     1
   2313   2314     1
   2313   2317     1
   2313   2339     1
   2313   2335     1
   2313   2324     1
   2313   2325     1
   2314   2318     1
   2314   2319     1
   2314   2333     1
   2314   2334     1
   2315   2317     1
   2315   2339     1
   2315   2332     1
   2315   2327     1
   2315   2328     1
   2316   2317     1
   2316   2339     1
   2316   2332     1
   2316   2327     1
   2316   2328     1
   2317   2330     1
   2317   2331     1
   2318   2339     1
   2318   2329     1
   2318   2321     1
   2318   2322     1
   2319   2339     1
   2319   2329     1
   2319   2321     1
   2319   2322     1
   2320   2339     1
   2321   2338     1
   2321   2330     1
   2321   2331     1
   2322   2338     1
   2322   2330     1
   2322   2331     1
   2323   2339     1
   2324   4738     1
   2324   2336     1
   2324   2337     1
   2325   4738     1
   2325   2336     1
   2325   2337     1
   2326   2339     1
   2327   4708     1
   2327   2333     1
   2327   2334     1
   2328   4708     1
   2328   2333     1
   2328   2334     1
   2332   4700     1
   2332   4701     1
   2333   4699     1
   2334   4699     1
   2335   4730     1
   2335   4731     1
   2336   4729     1
   2337   4729     1
   2340   2354     1
   2340   2355     1
   2340   2357     1
   2340   2358     1
   2340   2351     1
   2340   2352     1
   2341   2345     1
   2341   2346     1
   2341   2348     1
   2341   2349     1
   2341   2366     1
   2341   2367     1
   2342   2344     1
   2342   2347     1
   2342   2369     1
   2342   2365     1
   2342   2354     1
   2342   2355     1
   2343   2344     1
   2343   2347     1
   2343   2369     1
   2343   2365     1
   2343   2354     1
   2343   2355     1
   2344   2348     1
   2344   2349     1
   2344   2363     1
   2344   2364     1
   2345   2347     1
   2345   2369     1
   2345   2362     1
   2345   2357     1
   2345   2358     1
   2346   2347     1
   2346   2369     1
   2346   2362     1
   2346   2357     1
   2346   2358     1
   2347   2360     1
   2347   2361     1
   2348   2369     1
   2348   2359     1
   2348   2351     1
   2348   2352     1
   2349   2369     1
   2349   2359     1
   2349   2351     1
   2349   2352     1
   2350   2369     1
   2351   2368     1
   2351   2360     1
   2351   2361     1
   2352   2368     1
   2352   2360     1
   2352   2361     1
   2353   2369     1
   2354   4798     1
   2354   2366     1
   2354   2367     1
   2355   4798     1
   2355   2366     1
   2355   2367     1
   2356   2369     1
   2357   4768     1
   2357   2363     1
   2357   2364     1
   2358   4768     1
   2358   2363     1
   2358   2364     1
   2362   4760     1
   2362   4761     1
   2363   4759     1
   2364   4759     1
   2365   4790     1
   2365   4791     1
   2366   4789     1
   2367   4789     1
   2370   2384     1
   2370   2385     1
   2370   2387     1
   2370   2388     1
   2370   2381     1
   2370   2382     1
   2371   2375     1
   2371   2376     1
   2371   2378     1
   2371   2379     1
   2371   2396     1
   2371   2397     1
   2372   2374     1
   2372   2377     1
   2372   2399     1
   2372   2395     1
   2372   2384     1
   2372   2385     1
   2373   2374     1
   2373   2377     1
   2373   2399     1
   2373   2395     1
   2373   2384     1
   2373   2385     1
   2374   2378     1
   2374   2379     1
   2374   2393     1
   2374   2394     1
   2375   2377     1
   2375   2399     1
   2375   2392     1
   2375   2387     1
   2375   2388     1
   2376   2377     1
   2376   2399     1
   2376   2392     1
   2376   2387     1
   2376   2388     1
   2377   2390     1
   2377   2391     1
   2378   2399     1
   2378   2389     1
   2378   2381     1
   2378   2382     1
   2379   2399     1
   2379   2389     1
   2379   2381     1
   2379   2382     1
   2380   2399     1
   2381   2398     1
   2381   2390     1
   2381   2391     1
   2382   2398     1
   2382   2390     1
   2382   2391     1
   2383   2399     1
   2384   4858     1
   2384   2396     1
   2384   2397     1
   2385   4858     1
   2385   2396     1
   2385   2397     1
   2386   2399     1
   2387   4828     1
   2387   2393     1
   2387   2394     1
   2388   4828     1
   2388   2393     1
   2388   2394     1
   2392   4820     1
   2392   4821     1
   2393   4819     1
   2394   4819     1
   2395   4850     1
   2395   4851     1
   2396   4849     1
   2397   4849     1
   2400   2414     1
   2400   2415     1
   2400   2417     1
   2400   2418     1
   2400   2411     1
   2400   2412     1
   2401   2405     1
   2401   2406     1
   2401   2408     1
   2401   2409     1
   2401   2426     1
   2401   2427     1
   2402   2404     1
   2402   2407     1
   2402   2429     1
   2402   2425     1
   2402   2414     1
   2402   2415     1
   2403   2404     1
   2403   2407     1
   2403   2429     1
   2403   2425     1
   2403   2414     1
   2403   2415     1
   2404   2408     1
   2404   2409     1
   2404   2423     1
   2404   2424     1
   2405   2407     1
   2405   2429     1
   2405   2422     1
   2405   2417     1
   2405   2418     1
   2406   2407     1
   2406   2429     1
   2406   2422     1
   2406   2417     1
   2406   2418     1
   2407   2420     1
   2407   2421     1
   2408   2429     1
   2408   2419     1
   2408   2411     1
   2408   2412     1
   2409   2429     1
   2409   2419     1
   2409   2411     1
   2409   2412     1
   2410   2429     1
   2411   2428     1
   2411   2420     1
   2411   2421     1
   2412   2428     1
   2412   2420     1
   2412   2421     1
   2413   2429     1
   2414   4918     1
   2414   2426     1
   2414   2427     1
   2415   4918     1
   2415   2426     1
   2415   2427     1
   2416   2429     1
   2417   4888     1
   2417   2423     1
   2417   2424     1
   2418   4888     1
   2418   2423     1
   2418   2424     1
   2422   4880     1
   2422   4881     1
   2423   4879     1
   2424   4879     1
   2425   4910     1
   2425   4911     1
   2426   4909     1
   2427   4909     1
   2430   2444     1
   2430   2445     1
   2430   2447     1
   2430   2448     1
   2430   2441     1
   2430   2442     1
   2431   2435     1
   2431   2436     1
   2431   2438     1
   2431   2439     1
   2431   2456     1
   2431   2457     1
   2432   2434     1
   2432   2437     1
   2432   2459     1
   2432   2455     1
   2432   2444     1
   2432   2445     1
   2433   2434     1
   2433   2437     1
   2433   2459     1
   2433   2455     1
   2433   2444     1
   2433   2445     1
   2434   2438     1
   2434   2439     1
   2434   2453     1
   2434   2454     1
   2435   2437     1
   2435   2459     1
   2435   2452     1
   2435   2447     1
   2435   2448     1
   2436   2437     1
   2436   2459     1
   2436   2452     1
   2436   2447     1
   2436   2448     1
   2437   2450     1
   2437   2451     1
   2438   2459     1
   2438   2449     1
   2438   2441     1
   2438   2442     1
   2439   2459     1
   2439   2449     1
   2439   2441     1
   2439   2442     1
   2440   2459     1
   2441   2458     1
   2441   2450     1
   2441   2451     1
   2442   2458     1
   2442   2450     1
   2442   2451     1
   2443   2459     1
   2444   4978     1
   2444   2456     1
   2444   2457     1
   2445   4978     1
   2445   2456     1
   2445   2457     1
   2446   2459     1
   2447   4948     1
   2447   2453     1
   2447   2454     1
   2448   4948     1
   2448   2453     1
   2448   2454     1
   2452   4940     1
   2452   4941     1
   2453   4939     1
   2454   4939     1
   2455   4970     1
   2455   4971     1
   2456   4969     1
   2457   4969     1
   2460   2474     1
   2460   2475     1
   2460   2477     1
   2460   2478     1
   2460   2471     1
   2460   2472     1
   2461   2465     1
   2461   2466     1
   2461   2468     1
   2461   2469     1
   2461   2486     1
   2461   2487     1
   2462   2464     1
   2462   2467     1
   2462   2489     1
   2462   2485     1
   2462   2474     1
   2462   2475     1
   2463   2464     1
   2463   2467     1
   2463   2489     1
   2463   2485     1
   2463   2474     1
   2463   2475     1
   2464   2468     1
   2464   2469     1
   2464   2483     1
   2464   2484     1
   2465   2467     1
   2465   2489     1
   2465   2482     1
   2465   2477     1
   2465   2478     1
   2466   2467     1
   2466   2489     1
   2466   2482     1
   2466   2477     1
   2466   2478     1
   2467   2480     1
   2467   2481     1
   2468   2489     1
   2468   2479     1
   2468   2471     1
   2468   2472     1
   2469   2489     1
   2469   2479     1
   2469   2471     1
   2469   2472     1
   2470   2489     1
   2471   2488     1
   2471   2480     1
   2471   2481     1
   2472   2488     1
   2472   2480     1
   2472   2481     1
   2473   2489     1
   2474   5038     1
   2474   2486     1
   2474   2487     1
   2475   5038     1
   2475   2486     1
   2475   2487     1
   2476   2489     1
   2477   5008     1
   2477   2483     1
   2477   2484     1
   2478   5008     1
   2478   2483     1
   2478   2484     1
   2482   5000     1
   2482   5001     1
   2483   4999     1
   2484   4999     1
   2485   5030     1
   2485   5031     1
   2486   5029     1
   2487   5029     1
   2490   2504     1
   2490   2505     1
   2490   2507     1
   2490   2508     1
   2490   2501     1
   2490   2502     1
   2491   2495     1
   2491   2496     1
   2491   2498     1
   2491   2499     1
   2491   2516     1
   2491   2517     1
   2492   2494     1
   2492   2497     1
   2492   2519     1
   2492   2515     1
   2492   2504     1
   2492   2505     1
   2493   2494     1
   2493   2497     1
   2493   2519     1
   2493   2515     1
   2493   2504     1
   2493   2505     1
   2494   2498     1
   2494   2499     1
   2494   2513     1
   2494   2514     1
   2495   2497     1
   2495   2519     1
   2495   2512     1
   2495   2507     1
   2495   2508     1
   2496   2497     1
   2496   2519     1
   2496   2512     1
   2496   2507     1
   2496   2508     1
   2497   2510     1
   2497   2511     1
   2498   2519     1
   2498   2509     1
   2498   2501     1
   2498   2502     1
   2499   2519     1
   2499   2509     1
   2499   2501     1
   2499   2502     1
   2500   2519     1
   2501   2518     1
   2501   2510     1
   2501   2511     1
   2502   2518     1
   2502   2510     1
   2502   2511     1
   2503   2519     1
   2504   5098     1
   2504   2516     1
   2504   2517     1
   2505   5098     1
   2505   2516     1
   2505   2517     1
   2506   2519     1
   2507   5068     1
   2507   2513     1
   2507   2514     1
   2508   5068     1
   2508   2513     1
   2508   2514     1
   2512   5060     1
   2512   5061     1
   2513   5059     1
   2514   5059     1
   2515   5090     1
   2515   5091     1
   2516   5089     1
   2517   5089     1
   2520   2534     1
   2520   2535     1
   2520   2537     1
   2520   2538     1
   2520   2531     1
   2520   2532     1
   2521   2525     1
   2521   2526     1
   2521   2528     1
   2521   2529     1
   2521   2546     1
   2521   2547     1
   2522   2524     1
   2522   2527     1
   2522   2549     1
   2522   2545     1
   2522   2534     1
   2522   2535     1
   2523   2524     1
   2523   2527     1
   2523   2549     1
   2523   2545     1
   2523   2534     1
   2523   2535     1
   2524   2528     1
   2524   2529     1
   2524   2543     1
   2524   2544     1
   2525   2527     1
   2525   2549     1
   2525   2542     1
   2525   2537     1
   2525   2538     1
   2526   2527     1
   2526   2549     1
   2526   2542     1
   2526   2537     1
   2526   2538     1
   2527   2540     1
   2527   2541     1
   2528   2549     1
   2528   2539     1
   2528   2531     1
   2528   2532     1
   2529   2549     1
   2529   2539     1
   2529   2531     1
   2529   2532     1
   2530   2549     1
   2531   2548     1
   2531   2540     1
   2531   2541     1
   2532   2548     1
   2532   2540     1
   2532   2541     1
   2533   2549     1
   2534   5158     1
   2534   2546     1
   2534   2547     1
   2535   5158     1
   2535   2546     1
   2535   2547     1
   2536   2549     1
   2537   5128     1
   2537   2543     1
   2537   2544     1
   2538   5128     1
   2538   2543     1
   2538   2544     1
   2542   5120     1
   2542   5121     1
   2543   5119     1
   2544   5119     1
   2545   5150     1
   2545   5151     1
   2546   5149     1
   2547   5149     1
   2550   2564     1
   2550   2565     1
   2550   2567     1
   2550   2568     1
   2550   2561     1
   2550   2562     1
   2551   2555     1
   2551   2556     1
   2551   2558     1
   2551   2559     1
   2551   2576     1
   2551   2577     1
   2552   2554     1
   2552   2557     1
   2552   2579     1
   2552   2575     1
   2552   2564     1
   2552   2565     1
   2553   2554     1
   2553   2557     1
   2553   2579     1
   2553   2575     1
   2553   2564     1
   2553   2565     1
   2554   2558     1
   2554   2559     1
   2554   2573     1
   2554   2574     1
   2555   2557     1
   2555   2579     1
   2555   2572     1
   2555   2567     1
   2555   2568     1
   2556   2557     1
   2556   2579     1
   2556   2572     1
   2556   2567     1
   2556   2568     1
   2557   2570     1
   2557   2571     1
   2558   2579     1
   2558   2569     1
   2558   2561     1
   2558   2562     1
   2559   2579     1
   2559   2569     1
   2559   2561     1
   2559   2562     1
   2560   2579     1
   2561   2578     1
   2561   2570     1
   2561   2571     1
   2562   2578     1
   2562   2570     1
   2562   2571     1
   2563   2579     1
   2564   5218     1
   2564   2576     1
   2564   2577     1
   2565   5218     1
   2565   2576     1
   2565   2577     1
   2566   2579     1
   2567   5188     1
   2567   2573     1
   2567   2574     1
   2568   5188     1
   2568   2573     1
   2568   2574     1
   2572   5180     1
   2572   5181     1
   2573   5179     1
   2574   5179     1
   2575   5210     1
   2575   5211     1
   2576   5209     1
   2577   5209     1
   2580   2594     1
   2580   2595     1
   2580   2597     1
   2580   2598     1
   2580   2591     1
   2580   2592     1
   2581   2585     1
   2581   2586     1
   2581   2588     1
   2581   2589     1
   2581   2606     1
   2581   2607     1
   2582   2584     1
   2582   2587     1
   2582   2609     1
   2582   2605     1
   2582   2594     1
   2582   2595     1
   2583   2584     1
   2583   2587     1
   2583   2609     1
   2583   2605     1
   2583   2594     1
   2583   2595     1
   2584   2588     1
   2584   2589     1
   2584   2603     1
   2584   2604     1
   2585   2587     1
   2585   2609     1
   2585   2602     1
   2585   2597     1
   2585   2598     1
   2586   2587     1
   2586   2609     1
   2586   2602     1
   2586   2597     1
   2586   2598     1
   2587   2600     1
   2587   2601     1
   2588   2609     1
   2588   2599     1
   2588   2591     1
   2588   2592     1
   2589   2609     1
   2589   2599     1
   2589   2591     1
   2589   2592     1
   2590   2609     1
   2591   2608     1
   2591   2600     1
   2591   2601     1
   2592   2608     1
   2592   2600     1
   2592   2601     1
   2593   2609     1
   2594   5278     1
   2594   2606     1
   2594   2607     1
   2595   5278     1
   2595   2606     1
   2595   2607     1
   2596   2609     1
   2597   5248     1
   2597   2603     1
   2597   2604     1
   2598   5248     1
   2598   2603     1
   2598   2604     1
   2602   5240     1
   2602   5241     1
   2603   5239     1
   2604   5239     1
   2605   5270     1
   2605   5271     1
   2606   5269     1
   2607   5269     1
   2610   2624     1
   2610   2625     1
   2610   2627     1
   2610   2628     1
   2610   2621     1
   2610   2622     1
   2611   2615     1
   2611   2616     1
   2611   2618     1
   2611   2619     1
   2611   2636     1
   2611   2637     1
   2612   2614     1
   2612   2617     1
   2612   2639     1
   2612   2635     1
   2612   2624     1
   2612   2625     1
   2613   2614     1
   2613   2617     1
   2613   2639     1
   2613   2635     1
   2613   2624     1
   2613   2625     1
   2614   2618     1
   2614   2619     1
   2614   2633     1
   2614   2634     1
   2615   2617     1
   2615   2639     1
   2615   2632     1
   2615   2627     1
   2615   2628     1
   2616   2617     1
   2616   2639     1
   2616   2632     1
   2616   2627     1
   2616   2628     1
   2617   2630     1
   2617   2631     1
   2618   2639     1
   2618   2629     1
   2618   2621     1
   2618   2622     1
   2619   2639     1
   2619   2629     1
   2619   2621     1
   2619   2622     1
   2620   2639     1
   2621   2638     1
   2621   2630     1
   2621   2631     1
   2622   2638     1
   2622   2630     1
   2622   2631     1
   2623   2639     1
   2624   5338     1
   2624   2636     1
   2624   2637     1
   2625   5338     1
   2625   2636     1
   2625   2637     1
   2626   2639     1
   2627   5308     1
   2627   2633     1
   2627   2634     1
   2628   5308     1
   2628   2633     1
   2628   2634     1
   2632   5300     1
   2632   5301     1
   2633   5299     1
   2634   5299     1
   2635   5330     1
   2635   5331     1
   2636   5329     1
   2637   5329     1
   2640   2654     1
   2640   2655     1
   2640   2657     1
   2640   2658     1
   2640   2651     1
   2640   2652     1
   2641   2645     1
   2641   2646     1
   2641   2648     1
   2641   2649     1
   2641   2666     1
   2641   2667     1
   2642   2644     1
   2642   2647     1
   2642   2669     1
   2642   2665     1
   2642   2654     1
   2642   2655     1
   2643   2644     1
   2643   2647     1
   2643   2669     1
   2643   2665     1
   2643   2654     1
   2643   2655     1
   2644   2648     1
   2644   2649     1
   2644   2663     1
   2644   2664     1
   2645   2647     1
   2645   2669     1
   2645   2662     1
   2645   2657     1
   2645   2658     1
   2646   2647     1
   2646   2669     1
   2646   2662     1
   2646   2657     1
   2646   2658     1
   2647   2660     1
   2647   2661     1
   2648   2669     1
   2648   2659     1
   2648   2651     1
   2648   2652     1
   2649   2669     1
   2649   2659     1
   2649   2651     1
   2649   2652     1
   2650   2669     1
   2651   2668     1
   2651   2660     1
   2651   2661     1
   2652   2668     1
   2652   2660     1
   2652   2661     1
   2653   2669     1
   2654   5398     1
   2654   2666     1
   2654   2667     1
   2655   5398     1
   2655   2666     1
   2655   2667     1
   2656   2669     1
   2657   5368     1
   2657   2663     1
   2657   2664     1
   2658   5368     1
   2658   2663     1
   2658   2664     1
   2662   5360     1
   2662   5361     1
   2663   5359     1
   2664   5359     1
   2665   5390     1
   2665   5391     1
   2666   5389     1
   2667   5389     1
   2670   2684     1
   2670   2685     1
   2670   2687     1
   2670   2688     1
   2670   2681     1
   2670   2682     1
   2671   2675     1
   2671   2676     1
   2671   2678     1
   2671   2679     1
   2671   2696     1
   2671   2697     1
   2672   2674     1
   2672   2677     1
   2672   2699     1
   2672   2695     1
   2672   2684     1
   2672   2685     1
   2673   2674     1
   2673   2677     1
   2673   2699     1
   2673   2695     1
   2673   2684     1
   2673   2685     1
   2674   2678     1
   2674   2679     1
   2674   2693     1
   2674   2694     1
   2675   2677     1
   2675   2699     1
   2675   2692     1
   2675   2687     1
   2675   2688     1
   2676   2677     1
   2676   2699     1
   2676   2692     1
   2676   2687     1
   2676   2688     1
   2677   2690     1
   2677   2691     1
   2678   2699     1
   2678   2689     1
   2678   2681     1
   2678   2682     1
   2679   2699     1
   2679   2689     1
   2679   2681     1
   2679   2682     1
   2680   2699     1
   2681   2698     1
   2681   2690     1
   2681   2691     1
   2682   2698     1
   2682   2690     1
   2682   2691     1
   2683   2699     1
   2684   5458     1
   2684   2696     1
   2684   2697     1
   2685   5458     1
   2685   2696     1
   2685   2697     1
   2686   2699     1
   2687   5428     1
   2687   2693     1
   2687   2694     1
   2688   5428     1
   2688   2693     1
   2688   2694     1
   2692   5420     1
   2692   5421     1
   2693   5419     1
   2694   5419     1
   2695   5450     1
   2695   5451     1
   2696   5449     1
   2697   5449     1
   2700   2714     1
   2700   2715     1
   2700   2717     1
   2700   2718     1
   2700   2711     1
   2700   2712     1
   2701   2705     1
   2701   2706     1
   2701   2708     1
   2701   2709     1
   2701   2726     1
   2701   2727     1
   2702   2704     1
   2702   2707     1
   2702   2729     1
   2702   2725     1
   2702   2714     1
   2702   2715     1
   2703   2704     1
   2703   2707     1
   2703   2729     1
   2703   2725     1
   2703   2714     1
   2703   2715     1
   2704   2708     1
   2704   2709     1
   2704   2723     1
   2704   2724     1
   2705   2707     1
   2705   2729     1
   2705   2722     1
   2705   2717     1
   2705   2718     1
   2706   2707     1
   2706   2729     1
   2706   2722     1
   2706   2717     1
   2706   2718     1
   2707   2720     1
   2707   2721     1
   2708   2729     1
   2708   2719     1
   2708   2711     1
   2708   2712     1
   2709   2729     1
   2709   2719     1
   2709   2711     1
   2709   2712     1
   2710   2729     1
   2711   2728     1
   2711   2720     1
   2711   2721     1
   2712   2728     1
   2712   2720     1
   2712   2721     1
   2713   2729     1
   2714   5518     1
   2714   2726     1
   2714   2727     1
   2715   5518     1
   2715   2726     1
   2715   2727     1
   2716   2729     1
   2717   5488     1
   2717   2723     1
   2717   2724     1
   2718   5488     1
   2718   2723     1
   2718   2724     1
   2722   5480     1
   2722   5481     1
   2723   5479     1
   2724   5479     1
   2725   5510     1
   2725   5511     1
   2726   5509     1
   2727   5509     1
   2730   2744     1
   2730   2745     1
   2730   2747     1
   2730   2748     1
   2730   2741     1
   2730   2742     1
   2731   2735     1
   2731   2736     1
   2731   2738     1
   2731   2739     1
   2731   2756     1
   2731   2757     1
   2732   2734     1
   2732   2737     1
   2732   2759     1
   2732   2755     1
   2732   2744     1
   2732   2745     1
   2733   2734     1
   2733   2737     1
   2733   2759     1
   2733   2755     1
   2733   2744     1
   2733   2745     1
   2734   2738     1
   2734   2739     1
   2734   2753     1
   2734   2754     1
   2735   2737     1
   2735   2759     1
   2735   2752     1
   2735   2747     1
   2735   2748     1
   2736   2737     1
   2736   2759     1
   2736   2752     1
   2736   2747     1
   2736   2748     1
   2737   2750     1
   2737   2751     1
   2738   2759     1
   2738   2749     1
   2738   2741     1
   2738   2742     1
   2739   2759     1
   2739   2749     1
   2739   2741     1
   2739   2742     1
   2740   2759     1
   2741   2758     1
   2741   2750     1
   2741   2751     1
   2742   2758     1
   2742   2750     1
   2742   2751     1
   2743   2759     1
   2744   5578     1
   2744   2756     1
   2744   2757     1
   2745   5578     1
   2745   2756     1
   2745   2757     1
   2746   2759     1
   2747   5548     1
   2747   2753     1
   2747   2754     1
   2748   5548     1
   2748   2753     1
   2748   2754     1
   2752   5540     1
   2752   5541     1
   2753   5539     1
   2754   5539     1
   2755   5570     1
   2755   5571     1
   2756   5569     1
   2757   5569     1
   2760   2774     1
   2760   2775     1
   2760   2777     1
   2760   2778     1
   2760   2771     1
   2760   2772     1
   2761   2765     1
   2761   2766     1
   2761   2768     1
   2761   2769     1
   2761   2786     1
   2761   2787     1
   2762   2764     1
   2762   2767     1
   2762   2789     1
   2762   2785     1
   2762   2774     1
   2762   2775     1
   2763   2764     1
   2763   2767     1
   2763   2789     1
   2763   2785     1
   2763   2774     1
   2763   2775     1
   2764   2768     1
   2764   2769     1
   2764   2783     1
   2764   2784     1
   2765   2767     1
   2765   2789     1
   2765   2782     1
   2765   2777     1
   2765   2778     1
   2766   2767     1
   2766   2789     1
   2766   2782     1
   2766   2777     1
   2766   2778     1
   2767   2780     1
   2767   2781     1
   2768   2789     1
   2768   2779     1
   2768   2771     1
   2768   2772     1
   2769   2789     1
   2769   2779     1
   2769   2771     1
   2769   2772     1
   2770   2789     1
   2771   2788     1
   2771   2780     1
   2771   2781     1
   2772   2788     1
   2772   2780     1
   2772   2781     1
   2773   2789     1
   2774   5638     1
   2774   2786     1
   2774   2787     1
   2775   5638     1
   2775   2786     1
   2775   2787     1
   2776   2789     1
   2777   5608     1
   2777   2783     1
   2777   2784     1
   2778   5608     1
   2778   2783     1
   2778   2784     1
   2782   5600     1
   2782   5601     1
   2783   5599     1
   2784   5599     1
   2785   5630     1
   2785   5631     1
   2786   5629     1
   2787   5629     1
   2790   2804     1
   2790   2805     1
   2790   2807     1
   2790   2808     1
   2790   2801     1
   2790   2802     1
   2791   2795     1
   2791   2796     1
   2791   2798     1
   2791   2799     1
   2791   2816     1
   2791   2817     1
   2792   2794     1
   2792   2797     1
   2792   2819     1
   2792   2815     1
   2792   2804     1
   2792   2805     1
   2793   2794     1
   2793   2797     1
   2793   2819     1
   2793   2815     1
   2793   2804     1
   2793   2805     1
   2794   2798     1
   2794   2799     1
   2794   2813     1
   2794   2814     1
   2795   2797     1
   2795   2819     1
   2795   2812     1
   2795   2807     1
   2795   2808     1
   2796   2797     1
   2796   2819     1
   2796   2812     1
   2796   2807     1
   2796   2808     1
   2797   2810     1
   2797   2811     1
   2798   2819     1
   2798   2809     1
   2798   2801     1
   2798   2802     1
   2799   2819     1
   2799   2809     1
   2799   2801     1
   2799   2802     1
   2800   2819     1
   2801   2818     1
   2801   2810     1
   2801   2811     1
   2802   2818     1
   2802   2810     1
   2802   2811     1
   2803   2819     1
   2804   5698     1
   2804   2816     1
   2804   2817     1
   2805   5698     1
   2805   2816     1
   2805   2817     1
   2806   2819     1
   2807   5668     1
   2807   2813     1
   2807   2814     1
   2808   5668     1
   2808   2813     1
   2808   2814     1
   2812   5660     1
   2812   5661     1
   2813   5659     1
   2814   5659     1
   2815   5690     1
   2815   5691     1
   2816   5689     1
   2817   5689     1
   2820   2834     1
   2820   2835     1
   2820   2837     1
   2820   2838     1
   2820   2831     1
   2820   2832     1
   2821   2825     1
   2821   2826     1
   2821   2828     1
   2821   2829     1
   2821   2846     1
   2821   2847     1
   2822   2824     1
   2822   2827     1
   2822   2849     1
   2822   2845     1
   2822   2834     1
   2822   2835     1
   2823   2824     1
   2823   2827     1
   2823   2849     1
   2823   2845     1
   2823   2834     1
   2823   2835     1
   2824   2828     1
   2824   2829     1
   2824   2843     1
   2824   2844     1
   2825   2827     1
   2825   2849     1
   2825   2842     1
   2825   2837     1
   2825   2838     1
   2826   2827     1
   2826   2849     1
   2826   2842     1
   2826   2837     1
   2826   2838     1
   2827   2840     1
   2827   2841     1
   2828   2849     1
   2828   2839     1
   2828   2831     1
   2828   2832     1
   2829   2849     1
   2829   2839     1
   2829   2831     1
   2829   2832     1
   2830   2849     1
   2831   2848     1
   2831   2840     1
   2831   2841     1
   2832   2848     1
   2832   2840     1
   2832   2841     1
   2833   2849     1
   2834   5733     1
   2834   2846     1
   2834   2847     1
   2835   5733     1
   2835   2846     1
   2835   2847     1
   2836   2849     1
   2837   5710     1
   2837   2843     1
   2837   2844     1
   2838   5710     1
   2838   2843     1
   2838   2844     1
   2842   5709     1
   2843   5706     1
   2844   5706     1
   2845   5732     1
   2846   5729     1
   2847   5729     1
   2850   2864     1
   2850   2865     1
   2850   2867     1
   2850   2868     1
   2850   2861     1
   2850   2862     1
   2851   2855     1
   2851   2856     1
   2851   2858     1
   2851   2859     1
   2851   2876     1
   2851   2877     1
   2852   2854     1
   2852   2857     1
   2852   2879     1
   2852   2875     1
   2852   2864     1
   2852   2865     1
   2853   2854     1
   2853   2857     1
   2853   2879     1
   2853   2875     1
   2853   2864     1
   2853   2865     1
   2854   2858     1
   2854   2859     1
   2854   2873     1
   2854   2874     1
   2855   2857     1
   2855   2879     1
   2855   2872     1
   2855   2867     1
   2855   2868     1
   2856   2857     1
   2856   2879     1
   2856   2872     1
   2856   2867     1
   2856   2868     1
   2857   2870     1
   2857   2871     1
   2858   2879     1
   2858   2869     1
   2858   2861     1
   2858   2862     1
   2859   2879     1
   2859   2869     1
   2859   2861     1
   2859   2862     1
   2860   2879     1
   2861   2878     1
   2861   2870     1
   2861   2871     1
   2862   2878     1
   2862   2870     1
   2862   2871     1
   2863   2879     1
   2864   5779     1
   2864   2876     1
   2864   2877     1
   2865   5779     1
   2865   2876     1
   2865   2877     1
   2866   2879     1
   2867   5756     1
   2867   2873     1
   2867   2874     1
   2868   5756     1
   2868   2873     1
   2868   2874     1
   2872   5755     1
   2873   5752     1
   2874   5752     1
   2875   5778     1
   2876   5775     1
   2877   5775     1
   2880   2894     1
   2880   2895     1
   2880   2897     1
   2880   2898     1
   2880   2891     1
   2880   2892     1
   2881   2885     1
   2881   2886     1
   2881   2888     1
   2881   2889     1
   2881   2906     1
   2881   2907     1
   2882   2884     1
   2882   2887     1
   2882   2909     1
   2882   2905     1
   2882   2894     1
   2882   2895     1
   2883   2884     1
   2883   2887     1
   2883   2909     1
   2883   2905     1
   2883   2894     1
   2883   2895     1
   2884   2888     1
   2884   2889     1
   2884   2903     1
   2884   2904     1
   2885   2887     1
   2885   2909     1
   2885   2902     1
   2885   2897     1
   2885   2898     1
   2886   2887     1
   2886   2909     1
   2886   2902     1
   2886   2897     1
   2886   2898     1
   2887   2900     1
   2887   2901     1
   2888   2909     1
   2888   2899     1
   2888   2891     1
   2888   2892     1
   2889   2909     1
   2889   2899     1
   2889   2891     1
   2889   2892     1
   2890   2909     1
   2891   2908     1
   2891   2900     1
   2891   2901     1
   2892   2908     1
   2892   2900     1
   2892   2901     1
   2893   2909     1
   2894   5825     1
   2894   2906     1
   2894   2907     1
   2895   5825     1
   2895   2906     1
   2895   2907     1
   2896   2909     1
   2897   5802     1
   2897   2903     1
   2897   2904     1
   2898   5802     1
   2898   2903     1
   2898   2904     1
   2902   5801     1
   2903   5798     1
   2904   5798     1
   2905   5824     1
   2906   5821     1
   2907   5821     1
   2910   2924     1
   2910   2925     1
   2910   2927     1
   2910   2928     1
   2910   2921     1
   2910   2922     1
   2911   2915     1
   2911   2916     1
   2911   2918     1
   2911   2919     1
   2911   2936     1
   2911   2937     1
   2912   2914     1
   2912   2917     1
   2912   2939     1
   2912   2935     1
   2912   2924     1
   2912   2925     1
   2913   2914     1
   2913   2917     1
   2913   2939     1
   2913   2935     1
   2913   2924     1
   2913   2925     1
   2914   2918     1
   2914   2919     1
   2914   2933     1
   2914   2934     1
   2915   2917     1
   2915   2939     1
   2915   2932     1
   2915   2927     1
   2915   2928     1
   2916   2917     1
   2916   2939     1
   2916   2932     1
   2916   2927     1
   2916   2928     1
   2917   2930     1
   2917   2931     1
   2918   2939     1
   2918   2929     1
   2918   2921     1
   2918   2922     1
   2919   2939     1
   2919   2929     1
   2919   2921     1
   2919   2922     1
   2920   2939     1
   2921   2938     1
   2921   2930     1
   2921   2931     1
   2922   2938     1
   2922   2930     1
   2922   2931     1
   2923   2939     1
   2924   5871     1
   2924   2936     1
   2924   2937     1
   2925   5871     1
   2925   2936     1
   2925   2937     1
   2926   2939     1
   2927   5848     1
   2927   2933     1
   2927   2934     1
   2928   5848     1
   2928   2933     1
   2928   2934     1
   2932   5847     1
   2933   5844     1
   2934   5844     1
   2935   5870     1
   2936   5867     1
   2937   5867     1
   2940   2954     1
   2940   2955     1
   2940   2957     1
   2940   2958     1
   2940   2951     1
   2940   2952     1
   2941   2945     1
   2941   2946     1
   2941   2948     1
   2941   2949     1
   2941   2966     1
   2941   2967     1
   2942   2944     1
   2942   2947     1
   2942   2969     1
   2942   2965     1
   2942   2954     1
   2942   2955     1
   2943   2944     1
   2943   2947     1
   2943   2969     1
   2943   2965     1
   2943   2954     1
   2943   2955     1
   2944   2948     1
   2944   2949     1
   2944   2963     1
   2944   2964     1
   2945   2947     1
   2945   2969     1
   2945   2962     1
   2945   2957     1
   2945   2958     1
   2946   2947     1
   2946   2969     1
   2946   2962     1
   2946   2957     1
   2946   2958     1
   2947   2960     1
   2947   2961     1
   2948   2969     1
   2948   2959     1
   2948   2951     1
   2948   2952     1
   2949   2969     1
   2949   2959     1
   2949   2951     1
   2949   2952     1
   2950   2969     1
   2951   2968     1
   2951   2960     1
   2951   2961     1
   2952   2968     1
   2952   2960     1
   2952   2961     1
   2953   2969     1
   2954   5917     1
   2954   2966     1
   2954   2967     1
   2955   5917     1
   2955   2966     1
   2955   2967     1
   2956   2969     1
   2957   5894     1
   2957   2963     1
   2957   2964     1
   2958   5894     1
   2958   2963     1
   2958   2964     1
   2962   5893     1
   2963   5890     1
   2964   5890     1
   2965   5916     1
   2966   5913     1
   2967   5913     1
   2970   2984     1
   2970   2985     1
   2970   2987     1
   2970   2988     1
   2970   2981     1
   2970   2982     1
   2971   2975     1
   2971   2976     1
   2971   2978     1
   2971   2979     1
   2971   2996     1
   2971   2997     1
   2972   2974     1
   2972   2977     1
   2972   2999     1
   2972   2995     1
   2972   2984     1
   2972   2985     1
   2973   2974     1
   2973   2977     1
   2973   2999     1
   2973   2995     1
   2973   2984     1
   2973   2985     1
   2974   2978     1
   2974   2979     1
   2974   2993     1
   2974   2994     1
   2975   2977     1
   2975   2999     1
   2975   2992     1
   2975   2987     1
   2975   2988     1
   2976   2977     1
   2976   2999     1
   2976   2992     1
   2976   2987     1
   2976   2988     1
   2977   2990     1
   2977   2991     1
   2978   2999     1
   2978   2989     1
   2978   2981     1
   2978   2982     1
   2979   2999     1
   2979   2989     1
   2979   2981     1
   2979   2982     1
   2980   2999     1
   2981   2998     1
   2981   2990     1
   2981   2991     1
   2982   2998     1
   2982   2990     1
   2982   2991     1
   2983   2999     1
   2984   5963     1
   2984   2996     1
   2984   2997     1
   2985   5963     1
   2985   2996     1
   2985   2997     1
   2986   2999     1
   2987   5940     1
   2987   2993     1
   2987   2994     1
   2988   5940     1
   2988   2993     1
   2988   2994     1
   2992   5939     1
   2993   5936     1
   2994   5936     1
   2995   5962     1
   2996   5959     1
   2997   5959     1
   3000   3014     1
   3000   3015     1
   3000   3017     1
   3000   3018     1
   3000   3011     1
   3000   3012     1
   3001   3005     1
   3001   3006     1
   3001   3008     1
   3001   3009     1
   3001   3026     1
   3001   3027     1
   3002   3004     1
   3002   3007     1
   3002   3029     1
   3002   3025     1
   3002   3014     1
   3002   3015     1
   3003   3004     1
   3003   3007     1
   3003   3029     1
   3003   3025     1
   3003   3014     1
   3003   3015     1
   3004   3008     1
   3004   3009     1
   3004   3023     1
   3004   3024     1
   3005   3007     1
   3005   3029     1
   3005   3022     1
   3005   3017     1
   3005   3018     1
   3006   3007     1
   3006   3029     1
   3006   3022     1
   3006   3017     1
   3006   3018     1
   3007   3020     1
   3007   3021     1
   3008   3029     1
   3008   3019     1
   3008   3011     1
   3008   3012     1
   3009   3029     1
   3009   3019     1
   3009   3011     1
   3009   3012     1
   3010   3029     1
   3011   3028     1
   3011   3020     1
   3011   3021     1
   3012   3028     1
   3012   3020     1
   3012   3021     1
   3013   3029     1
   3014   6009     1
   3014   3026     1
   3014   3027     1
   3015   6009     1
   3015   3026     1
   3015   3027     1
   3016   3029     1
   3017   5986     1
   3017   3023     1
   3017   3024     1
   3018   5986     1
   3018   3023     1
   3018   3024     1
   3022   5985     1
   3023   5982     1
   3024   5982     1
   3025   6008     1
   3026   6005     1
   3027   6005     1
   3030   3044     1
   3030   3045     1
   3030   3047     1
   3030   3048     1
   3030   3041     1
   3030   3042     1
   3031   3035     1
   3031   3036     1
   3031   3038     1
   3031   3039     1
   3031   3056     1
   3031   3057     1
   3032   3034     1
   3032   3037     1
   3032   3059     1
   3032   3055     1
   3032   3044     1
   3032   3045     1
   3033   3034     1
   3033   3037     1
   3033   3059     1
   3033   3055     1
   3033   3044     1
   3033   3045     1
   3034   3038     1
   3034   3039     1
   3034   3053     1
   3034   3054     1
   3035   3037     1
   3035   3059     1
   3035   3052     1
   3035   3047     1
   3035   3048     1
   3036   3037     1
   3036   3059     1
   3036   3052     1
   3036   3047     1
   3036   3048     1
   3037   3050     1
   3037   3051     1
   3038   3059     1
   3038   3049     1
   3038   3041     1
   3038   3042     1
   3039   3059     1
   3039   3049     1
   3039   3041     1
   3039   3042     1
   3040   3059     1
   3041   3058     1
   3041   3050     1
   3041   3051     1
   3042   3058     1
   3042   3050     1
   3042   3051     1
   3043   3059     1
   3044   6055     1
   3044   3056     1
   3044   3057     1
   3045   6055     1
   3045   3056     1
   3045   3057     1
   3046   3059     1
   3047   6032     1
   3047   3053     1
   3047   3054     1
   3048   6032     1
   3048   3053     1
   3048   3054     1
   3052   6031     1
   3053   6028     1
   3054   6028     1
   3055   6054     1
   3056   6051     1
   3057   6051     1
   3060   3074     1
   3060   3075     1
   3060   3077     1
   3060   3078     1
   3060   3071     1
   3060   3072     1
   3061   3065     1
   3061   3066     1
   3061   3068     1
   3061   3069     1
   3061   3086     1
   3061   3087     1
   3062   3064     1
   3062   3067     1
   3062   3089     1
   3062   3085     1
   3062   3074     1
   3062   3075     1
   3063   3064     1
   3063   3067     1
   3063   3089     1
   3063   3085     1
   3063   3074     1
   3063   3075     1
   3064   3068     1
   3064   3069     1
   3064   3083     1
   3064   3084     1
   3065   3067     1
   3065   3089     1
   3065   3082     1
   3065   3077     1
   3065   3078     1
   3066   3067     1
   3066   3089     1
   3066   3082     1
   3066   3077     1
   3066   3078     1
   3067   3080     1
   3067   3081     1
   3068   3089     1
   3068   3079     1
   3068   3071     1
   3068   3072     1
   3069   3089     1
   3069   3079     1
   3069   3071     1
   3069   3072     1
   3070   3089     1
   3071   3088     1
   3071   3080     1
   3071   3081     1
   3072   3088     1
   3072   3080     1
   3072   3081     1
   3073   3089     1
   3074   6101     1
   3074   3086     1
   3074   3087     1
   3075   6101     1
   3075   3086     1
   3075   3087     1
   3076   3089     1
   3077   6078     1
   3077   3083     1
   3077   3084     1
   3078   6078     1
   3078   3083     1
   3078   3084     1
   3082   6077     1
   3083   6074     1
   3084   6074     1
   3085   6100     1
   3086   6097     1
   3087   6097     1
   3090   3104     1
   3090   3105     1
   3090   3107     1
   3090   3108     1
   3090   3101     1
   3090   3102     1
   3091   3095     1
   3091   3096     1
   3091   3098     1
   3091   3099     1
   3091   3116     1
   3091   3117     1
   3092   3094     1
   3092   3097     1
   3092   3119     1
   3092   3115     1
   3092   3104     1
   3092   3105     1
   3093   3094     1
   3093   3097     1
   3093   3119     1
   3093   3115     1
   3093   3104     1
   3093   3105     1
   3094   3098     1
   3094   3099     1
   3094   3113     1
   3094   3114     1
   3095   3097     1
   3095   3119     1
   3095   3112     1
   3095   3107     1
   3095   3108     1
   3096   3097     1
   3096   3119     1
   3096   3112     1
   3096   3107     1
   3096   3108     1
   3097   3110     1
   3097   3111     1
   3098   3119     1
   3098   3109     1
   3098   3101     1
   3098   3102     1
   3099   3119     1
   3099   3109     1
   3099   3101     1
   3099   3102     1
   3100   3119     1
   3101   3118     1
   3101   3110     1
   3101   3111     1
   3102   3118     1
   3102   3110     1
   3102   3111     1
   3103   3119     1
   3104   6147     1
   3104   3116     1
   3104   3117     1
   3105   6147     1
   3105   3116     1
   3105   3117     1
   3106   3119     1
   3107   6124     1
   3107   3113     1
   3107   3114     1
   3108   6124     1
   3108   3113     1
   3108   3114     1
   3112   6123     1
   3113   6120     1
   3114   6120     1
   3115   6146     1
   3116   6143     1
   3117   6143     1
   3120   3134     1
   3120   3135     1
   3120   3137     1
   3120   3138     1
   3120   3131     1
   3120   3132     1
   3121   3125     1
   3121   3126     1
   3121   3128     1
   3121   3129     1
   3121   3146     1
   3121   3147     1
   3122   3124     1
   3122   3127     1
   3122   3149     1
   3122   3145     1
   3122   3134     1
   3122   3135     1
   3123   3124     1
   3123   3127     1
   3123   3149     1
   3123   3145     1
   3123   3134     1
   3123   3135     1
   3124   3128     1
   3124   3129     1
   3124   3143     1
   3124   3144     1
   3125   3127     1
   3125   3149     1
   3125   3142     1
   3125   3137     1
   3125   3138     1
   3126   3127     1
   3126   3149     1
   3126   3142     1
   3126   3137     1
   3126   3138     1
   3127   3140     1
   3127   3141     1
   3128   3149     1
   3128   3139     1
   3128   3131     1
   3128   3132     1
   3129   3149     1
   3129   3139     1
   3129   3131     1
   3129   3132     1
   3130   3149     1
   3131   3148     1
   3131   3140     1
   3131   3141     1
   3132   3148     1
   3132   3140     1
   3132   3141     1
   3133   3149     1
   3134   6193     1
   3134   3146     1
   3134   3147     1
   3135   6193     1
   3135   3146     1
   3135   3147     1
   3136   3149     1
   3137   6170     1
   3137   3143     1
   3137   3144     1
   3138   6170     1
   3138   3143     1
   3138   3144     1
   3142   6169     1
   3143   6166     1
   3144   6166     1
   3145   6192     1
   3146   6189     1
   3147   6189     1
   3150   3164     1
   3150   3165     1
   3150   3167     1
   3150   3168     1
   3150   3161     1
   3150   3162     1
   3151   3155     1
   3151   3156     1
   3151   3158     1
   3151   3159     1
   3151   3176     1
   3151   3177     1
   3152   3154     1
   3152   3157     1
   3152   3179     1
   3152   3175     1
   3152   3164     1
   3152   3165     1
   3153   3154     1
   3153   3157     1
   3153   3179     1
   3153   3175     1
   3153   3164     1
   3153   3165     1
   3154   3158     1
   3154   3159     1
   3154   3173     1
   3154   3174     1
   3155   3157     1
   3155   3179     1
   3155   3172     1
   3155   3167     1
   3155   3168     1
   3156   3157     1
   3156   3179     1
   3156   3172     1
   3156   3167     1
   3156   3168     1
   3157   3170     1
   3157   3171     1
   3158   3179     1
   3158   3169     1
   3158   3161     1
   3158   3162     1
   3159   3179     1
   3159   3169     1
   3159   3161     1
   3159   3162     1
   3160   3179     1
   3161   3178     1
   3161   3170     1
   3161   3171     1
   3162   3178     1
   3162   3170     1
   3162   3171     1
   3163   3179     1
   3164   6239     1
   3164   3176     1
   3164   3177     1
   3165   6239     1
   3165   3176     1
   3165   3177     1
   3166   3179     1
   3167   6216     1
   3167   3173     1
   3167   3174     1
   3168   6216     1
   3168   3173     1
   3168   3174     1
   3172   6215     1
   3173   6212     1
   3174   6212     1
   3175   6238     1
   3176   6235     1
   3177   6235     1
   3180   3194     1
   3180   3195     1
   3180   3197     1
   3180   3198     1
   3180   3191     1
   3180   3192     1
   3181   3185     1
   3181   3186     1
   3181   3188     1
   3181   3189     1
   3181   3206     1
   3181   3207     1
   3182   3184     1
   3182   3187     1
   3182   3209     1
   3182   3205     1
   3182   3194     1
   3182   3195     1
   3183   3184     1
   3183   3187     1
   3183   3209     1
   3183   3205     1
   3183   3194     1
   3183   3195     1
   3184   3188     1
   3184   3189     1
   3184   3203     1
   3184   3204     1
   3185   3187     1
   3185   3209     1
   3185   3202     1
   3185   3197     1
   3185   3198     1
   3186   3187     1
   3186   3209     1
   3186   3202     1
   3186   3197     1
   3186   3198     1
   3187   3200     1
   3187   3201     1
   3188   3209     1
   3188   3199     1
   3188   3191     1
   3188   3192     1
   3189   3209     1
   3189   3199     1
   3189   3191     1
   3189   3192     1
   3190   3209     1
   3191   3208     1
   3191   3200     1
   3191   3201     1
   3192   3208     1
   3192   3200     1
   3192   3201     1
   3193   3209     1
   3194   6285     1
   3194   3206     1
   3194   3207     1
   3195   6285     1
   3195   3206     1
   3195   3207     1
   3196   3209     1
   3197   6262     1
   3197   3203     1
   3197   3204     1
   3198   6262     1
   3198   3203     1
   3198   3204     1
   3202   6261     1
   3203   6258     1
   3204   6258     1
   3205   6284     1
   3206   6281     1
   3207   6281     1
   3210   3224     1
   3210   3225     1
   3210   3227     1
   3210   3228     1
   3210   3221     1
   3210   3222     1
   3211   3215     1
   3211   3216     1
   3211   3218     1
   3211   3219     1
   3211   3236     1
   3211   3237     1
   3212   3214     1
   3212   3217     1
   3212   3239     1
   3212   3235     1
   3212   3224     1
   3212   3225     1
   3213   3214     1
   3213   3217     1
   3213   3239     1
   3213   3235     1
   3213   3224     1
   3213   3225     1
   3214   3218     1
   3214   3219     1
   3214   3233     1
   3214   3234     1
   3215   3217     1
   3215   3239     1
   3215   3232     1
   3215   3227     1
   3215   3228     1
   3216   3217     1
   3216   3239     1
   3216   3232     1
   3216   3227     1
   3216   3228     1
   3217   3230     1
   3217   3231     1
   3218   3239     1
   3218   3229     1
   3218   3221     1
   3218   3222     1
   3219   3239     1
   3219   3229     1
   3219   3221     1
   3219   3222     1
   3220   3239     1
   3221   3238     1
   3221   3230     1
   3221   3231     1
   3222   3238     1
   3222   3230     1
   3222   3231     1
   3223   3239     1
   3224   6331     1
   3224   3236     1
   3224   3237     1
   3225   6331     1
   3225   3236     1
   3225   3237     1
   3226   3239     1
   3227   6308     1
   3227   3233     1
   3227   3234     1
   3228   6308     1
   3228   3233     1
   3228   3234     1
   3232   6307     1
   3233   6304     1
   3234   6304     1
   3235   6330     1
   3236   6327     1
   3237   6327     1
   3240   3254     1
   3240   3255     1
   3240   3257     1
   3240   3258     1
   3240   3251     1
   3240   3252     1
   3241   3245     1
   3241   3246     1
   3241   3248     1
   3241   3249     1
   3241   3266     1
   3241   3267     1
   3242   3244     1
   3242   3247     1
   3242   3269     1
   3242   3265     1
   3242   3254     1
   3242   3255     1
   3243   3244     1
   3243   3247     1
   3243   3269     1
   3243   3265     1
   3243   3254     1
   3243   3255     1
   3244   3248     1
   3244   3249     1
   3244   3263     1
   3244   3264     1
   3245   3247     1
   3245   3269     1
   3245   3262     1
   3245   3257     1
   3245   3258     1
   3246   3247     1
   3246   3269     1
   3246   3262     1
   3246   3257     1
   3246   3258     1
   3247   3260     1
   3247   3261     1
   3248   3269     1
   3248   3259     1
   3248   3251     1
   3248   3252     1
   3249   3269     1
   3249   3259     1
   3249   3251     1
   3249   3252     1
   3250   3269     1
   3251   3268     1
   3251   3260     1
   3251   3261     1
   3252   3268     1
   3252   3260     1
   3252   3261     1
   3253   3269     1
   3254   6377     1
   3254   3266     1
   3254   3267     1
   3255   6377     1
   3255   3266     1
   3255   3267     1
   3256   3269     1
   3257   6354     1
   3257   3263     1
   3257   3264     1
   3258   6354     1
   3258   3263     1
   3258   3264     1
   3262   6353     1
   3263   6350     1
   3264   6350     1
   3265   6376     1
   3266   6373     1
   3267   6373     1
   3270   3284     1
   3270   3285     1
   3270   3287     1
   3270   3288     1
   3270   3281     1
   3270   3282     1
   3271   3275     1
   3271   3276     1
   3271   3278     1
   3271   3279     1
   3271   3296     1
   3271   3297     1
   3272   3274     1
   3272   3277     1
   3272   3299     1
   3272   3295     1
   3272   3284     1
   3272   3285     1
   3273   3274     1
   3273   3277     1
   3273   3299     1
   3273   3295     1
   3273   3284     1
   3273   3285     1
   3274   3278     1
   3274   3279     1
   3274   3293     1
   3274   3294     1
   3275   3277     1
   3275   3299     1
   3275   3292     1
   3275   3287     1
   3275   3288     1
   3276   3277     1
   3276   3299     1
   3276   3292     1
   3276   3287     1
   3276   3288     1
   3277   3290     1
   3277   3291     1
   3278   3299     1
   3278   3289     1
   3278   3281     1
   3278   3282     1
   3279   3299     1
   3279   3289     1
   3279   3281     1
   3279   3282     1
   3280   3299     1
   3281   3298     1
   3281   3290     1
   3281   3291     1
   3282   3298     1
   3282   3290     1
   3282   3291     1
   3283   3299     1
   3284   6423     1
   3284   3296     1
   3284   3297     1
   3285   6423     1
   3285   3296     1
   3285   3297     1
   3286   3299     1
   3287   6400     1
   3287   3293     1
   3287   3294     1
   3288   6400     1
   3288   3293     1
   3288   3294     1
   3292   6399     1
   3293   6396     1
   3294   6396     1
   3295   6422     1
   3296   6419     1
   3297   6419     1
   3300   3314     1
   3300   3315     1
   3300   3317     1
   3300   3318     1
   3300   3311     1
   3300   3312     1
   3301   3305     1
   3301   3306     1
   3301   3308     1
   3301   3309     1
   3301   3326     1
   3301   3327     1
   3302   3304     1
   3302   3307     1
   3302   3329     1
   3302   3325     1
   3302   3314     1
   3302   3315     1
   3303   3304     1
   3303   3307     1
   3303   3329     1
   3303   3325     1
   3303   3314     1
   3303   3315     1
   3304   3308     1
   3304   3309     1
   3304   3323     1
   3304   3324     1
   3305   3307     1
   3305   3329     1
   3305   3322     1
   3305   3317     1
   3305   3318     1
   3306   3307     1
   3306   3329     1
   3306   3322     1
   3306   3317     1
   3306   3318     1
   3307   3320     1
   3307   3321     1
   3308   3329     1
   3308   3319     1
   3308   3311     1
   3308   3312     1
   3309   3329     1
   3309   3319     1
   3309   3311     1
   3309   3312     1
   3310   3329     1
   3311   3328     1
   3311   3320     1
   3311   3321     1
   3312   3328     1
   3312   3320     1
   3312   3321     1
   3313   3329     1
   3314   6469     1
   3314   3326     1
   3314   3327     1
   3315   6469     1
   3315   3326     1
   3315   3327     1
   3316   3329     1
   3317   6446     1
   3317   3323     1
   3317   3324     1
   3318   6446     1
   3318   3323     1
   3318   3324     1
   3322   6445     1
   3323   6442     1
   3324   6442     1
   3325   6468     1
   3326   6465     1
   3327   6465     1
   3330   3344     1
   3330   3345     1
   3330   3347     1
   3330   3348     1
   3330   3341     1
   3330   3342     1
   3331   3335     1
   3331   3336     1
   3331   3338     1
   3331   3339     1
   3331   3356     1
   3331   3357     1
   3332   3334     1
   3332   3337     1
   3332   3359     1
   3332   3355     1
   3332   3344     1
   3332   3345     1
   3333   3334     1
   3333   3337     1
   3333   3359     1
   3333   3355     1
   3333   3344     1
   3333   3345     1
   3334   3338     1
   3334   3339     1
   3334   3353     1
   3334   3354     1
   3335   3337     1
   3335   3359     1
   3335   3352     1
   3335   3347     1
   3335   3348     1
   3336   3337     1
   3336   3359     1
   3336   3352     1
   3336   3347     1
   3336   3348     1
   3337   3350     1
   3337   3351     1
   3338   3359     1
   3338   3349     1
   3338   3341     1
   3338   3342     1
   3339   3359     1
   3339   3349     1
   3339   3341     1
   3339   3342     1
   3340   3359     1
   3341   3358     1
   3341   3350     1
   3341   3351     1
   3342   3358     1
   3342   3350     1
   3342   3351     1
   3343   3359     1
   3344   6515     1
   3344   3356     1
   3344   3357     1
   3345   6515     1
   3345   3356     1
   3345   3357     1
   3346   3359     1
   3347   6492     1
   3347   3353     1
   3347   3354     1
   3348   6492     1
   3348   3353     1
   3348   3354     1
   3352   6491     1
   3353   6488     1
   3354   6488     1
   3355   6514     1
   3356   6511     1
   3357   6511     1
   3360   3374     1
   3360   3375     1
   3360   3377     1
   3360   3378     1
   3360   3371     1
   3360   3372     1
   3361   3365     1
   3361   3366     1
   3361   3368     1
   3361   3369     1
   3361   3386     1
   3361   3387     1
   3362   3364     1
   3362   3367     1
   3362   3389     1
   3362   3385     1
   3362   3374     1
   3362   3375     1
   3363   3364     1
   3363   3367     1
   3363   3389     1
   3363   3385     1
   3363   3374     1
   3363   3375     1
   3364   3368     1
   3364   3369     1
   3364   3383     1
   3364   3384     1
   3365   3367     1
   3365   3389     1
   3365   3382     1
   3365   3377     1
   3365   3378     1
   3366   3367     1
   3366   3389     1
   3366   3382     1
   3366   3377     1
   3366   3378     1
   3367   3380     1
   3367   3381     1
   3368   3389     1
   3368   3379     1
   3368   3371     1
   3368   3372     1
   3369   3389     1
   3369   3379     1
   3369   3371     1
   3369   3372     1
   3370   3389     1
   3371   3388     1
   3371   3380     1
   3371   3381     1
   3372   3388     1
   3372   3380     1
   3372   3381     1
   3373   3389     1
   3374   6561     1
   3374   3386     1
   3374   3387     1
   3375   6561     1
   3375   3386     1
   3375   3387     1
   3376   3389     1
   3377   6538     1
   3377   3383     1
   3377   3384     1
   3378   6538     1
   3378   3383     1
   3378   3384     1
   3382   6537     1
   3383   6534     1
   3384   6534     1
   3385   6560     1
   3386   6557     1
   3387   6557     1
   3390   3404     1
   3390   3405     1
   3390   3407     1
   3390   3408     1
   3390   3401     1
   3390   3402     1
   3391   3395     1
   3391   3396     1
   3391   3398     1
   3391   3399     1
   3391   3416     1
   3391   3417     1
   3392   3394     1
   3392   3397     1
   3392   3419     1
   3392   3415     1
   3392   3404     1
   3392   3405     1
   3393   3394     1
   3393   3397     1
   3393   3419     1
   3393   3415     1
   3393   3404     1
   3393   3405     1
   3394   3398     1
   3394   3399     1
   3394   3413     1
   3394   3414     1
   3395   3397     1
   3395   3419     1
   3395   3412     1
   3395   3407     1
   3395   3408     1
   3396   3397     1
   3396   3419     1
   3396   3412     1
   3396   3407     1
   3396   3408     1
   3397   3410     1
   3397   3411     1
   3398   3419     1
   3398   3409     1
   3398   3401     1
   3398   3402     1
   3399   3419     1
   3399   3409     1
   3399   3401     1
   3399   3402     1
   3400   3419     1
   3401   3418     1
   3401   3410     1
   3401   3411     1
   3402   3418     1
   3402   3410     1
   3402   3411     1
   3403   3419     1
   3404   6607     1
   3404   3416     1
   3404   3417     1
   3405   6607     1
   3405   3416     1
   3405   3417     1
   3406   3419     1
   3407   6584     1
   3407   3413     1
   3407   3414     1
   3408   6584     1
   3408   3413     1
   3408   3414     1
   3412   6583     1
   3413   6580     1
   3414   6580     1
   3415   6606     1
   3416   6603     1
   3417   6603     1
   3420   3434     1
   3420   3435     1
   3420   3437     1
   3420   3438     1
   3420   3431     1
   3420   3432     1
   3421   3425     1
   3421   3426     1
   3421   3428     1
   3421   3429     1
   3421   3446     1
   3421   3447     1
   3422   3424     1
   3422   3427     1
   3422   3449     1
   3422   3445     1
   3422   3434     1
   3422   3435     1
   3423   3424     1
   3423   3427     1
   3423   3449     1
   3423   3445     1
   3423   3434     1
   3423   3435     1
   3424   3428     1
   3424   3429     1
   3424   3443     1
   3424   3444     1
   3425   3427     1
   3425   3449     1
   3425   3442     1
   3425   3437     1
   3425   3438     1
   3426   3427     1
   3426   3449     1
   3426   3442     1
   3426   3437     1
   3426   3438     1
   3427   3440     1
   3427   3441     1
   3428   3449     1
   3428   3439     1
   3428   3431     1
   3428   3432     1
   3429   3449     1
   3429   3439     1
   3429   3431     1
   3429   3432     1
   3430   3449     1
   3431   3448     1
   3431   3440     1
   3431   3441     1
   3432   3448     1
   3432   3440     1
   3432   3441     1
   3433   3449     1
   3434   6653     1
   3434   3446     1
   3434   3447     1
   3435   6653     1
   3435   3446     1
   3435   3447     1
   3436   3449     1
   3437   6630     1
   3437   3443     1
   3437   3444     1
   3438   6630     1
   3438   3443     1
   3438   3444     1
   3442   6629     1
   3443   6626     1
   3444   6626     1
   3445   6652     1
   3446   6649     1
   3447   6649     1
   3450   3464     1
   3450   3465     1
   3450   3467     1
   3450   3468     1
   3450   3461     1
   3450   3462     1
   3451   3455     1
   3451   3456     1
   3451   3458     1
   3451   3459     1
   3451   3476     1
   3451   3477     1
   3452   3454     1
   3452   3457     1
   3452   3479     1
   3452   3475     1
   3452   3464     1
   3452   3465     1
   3453   3454     1
   3453   3457     1
   3453   3479     1
   3453   3475     1
   3453   3464     1
   3453   3465     1
   3454   3458     1
   3454   3459     1
   3454   3473     1
   3454   3474     1
   3455   3457     1
   3455   3479     1
   3455   3472     1
   3455   3467     1
   3455   3468     1
   3456   3457     1
   3456   3479     1
   3456   3472     1
   3456   3467     1
   3456   3468     1
   3457   3470     1
   3457   3471     1
   3458   3479     1
   3458   3469     1
   3458   3461     1
   3458   3462     1
   3459   3479     1
   3459   3469     1
   3459   3461     1
   3459   3462     1
   3460   3479     1
   3461   3478     1
   3461   3470     1
   3461   3471     1
   3462   3478     1
   3462   3470     1
   3462   3471     1
   3463   3479     1
   3464   6699     1
   3464   3476     1
   3464   3477     1
   3465   6699     1
   3465   3476     1
   3465   3477     1
   3466   3479     1
   3467   6676     1
   3467   3473     1
   3467   3474     1
   3468   6676     1
   3468   3473     1
   3468   3474     1
   3472   6675     1
   3473   6672     1
   3474   6672     1
   3475   6698     1
   3476   6695     1
   3477   6695     1
   3480   3494     1
   3480   3495     1
   3480   3497     1
   3480   3498     1
   3480   3491     1
   3480   3492     1
   3481   3485     1
   3481   3486     1
   3481   3488     1
   3481   3489     1
   3481   3506     1
   3481   3507     1
   3482   3484     1
   3482   3487     1
   3482   3509     1
   3482   3505     1
   3482   3494     1
   3482   3495     1
   3483   3484     1
   3483   3487     1
   3483   3509     1
   3483   3505     1
   3483   3494     1
   3483   3495     1
   3484   3488     1
   3484   3489     1
   3484   3503     1
   3484   3504     1
   3485   3487     1
   3485   3509     1
   3485   3502     1
   3485   3497     1
   3485   3498     1
   3486   3487     1
   3486   3509     1
   3486   3502     1
   3486   3497     1
   3486   3498     1
   3487   3500     1
   3487   3501     1
   3488   3509     1
   3488   3499     1
   3488   3491     1
   3488   3492     1
   3489   3509     1
   3489   3499     1
   3489   3491     1
   3489   3492     1
   3490   3509     1
   3491   3508     1
   3491   3500     1
   3491   3501     1
   3492   3508     1
   3492   3500     1
   3492   3501     1
   3493   3509     1
   3494   6745     1
   3494   3506     1
   3494   3507     1
   3495   6745     1
   3495   3506     1
   3495   3507     1
   3496   3509     1
   3497   6722     1
   3497   3503     1
   3497   3504     1
   3498   6722     1
   3498   3503     1
   3498   3504     1
   3502   6721     1
   3503   6718     1
   3504   6718     1
   3505   6744     1
   3506   6741     1
   3507   6741     1
   3510   3524     1
   3510   3525     1
   3510   3527     1
   3510   3528     1
   3510   3521     1
   3510   3522     1
   3511   3515     1
   3511   3516     1
   3511   3518     1
   3511   3519     1
   3511   3536     1
   3511   3537     1
   3512   3514     1
   3512   3517     1
   3512   3539     1
   3512   3535     1
   3512   3524     1
   3512   3525     1
   3513   3514     1
   3513   3517     1
   3513   3539     1
   3513   3535     1
   3513   3524     1
   3513   3525     1
   3514   3518     1
   3514   3519     1
   3514   3533     1
   3514   3534     1
   3515   3517     1
   3515   3539     1
   3515   3532     1
   3515   3527     1
   3515   3528     1
   3516   3517     1
   3516   3539     1
   3516   3532     1
   3516   3527     1
   3516   3528     1
   3517   3530     1
   3517   3531     1
   3518   3539     1
   3518   3529     1
   3518   3521     1
   3518   3522     1
   3519   3539     1
   3519   3529     1
   3519   3521     1
   3519   3522     1
   3520   3539     1
   3521   3538     1
   3521   3530     1
   3521   3531     1
   3522   3538     1
   3522   3530     1
   3522   3531     1
   3523   3539     1
   3524   6791     1
   3524   3536     1
   3524   3537     1
   3525   6791     1
   3525   3536     1
   3525   3537     1
   3526   3539     1
   3527   6768     1
   3527   3533     1
   3527   3534     1
   3528   6768     1
   3528   3533     1
   3528   3534     1
   3532   6767     1
   3533   6764     1
   3534   6764     1
   3535   6790     1
   3536   6787     1
   3537   6787     1
   3540   3554     1
   3540   3555     1
   3540   3557     1
   3540   3558     1
   3540   3551     1
   3540   3552     1
   3541   3545     1
   3541   3546     1
   3541   3548     1
   3541   3549     1
   3541   3566     1
   3541   3567     1
   3542   3544     1
   3542   3547     1
   3542   3569     1
   3542   3565     1
   3542   3554     1
   3542   3555     1
   3543   3544     1
   3543   3547     1
   3543   3569     1
   3543   3565     1
   3543   3554     1
   3543   3555     1
   3544   3548     1
   3544   3549     1
   3544   3563     1
   3544   3564     1
   3545   3547     1
   3545   3569     1
   3545   3562     1
   3545   3557     1
   3545   3558     1
   3546   3547     1
   3546   3569     1
   3546   3562     1
   3546   3557     1
   3546   3558     1
   3547   3560     1
   3547   3561     1
   3548   3569     1
   3548   3559     1
   3548   3551     1
   3548   3552     1
   3549   3569     1
   3549   3559     1
   3549   3551     1
   3549   3552     1
   3550   3569     1
   3551   3568     1
   3551   3560     1
   3551   3561     1
   3552   3568     1
   3552   3560     1
   3552   3561     1
   3553   3569     1
   3554   6837     1
   3554   3566     1
   3554   3567     1
   3555   6837     1
   3555   3566     1
   3555   3567     1
   3556   3569     1
   3557   6814     1
   3557   3563     1
   3557   3564     1
   3558   6814     1
   3558   3563     1
   3558   3564     1
   3562   6813     1
   3563   6810     1
   3564   6810     1
   3565   6836     1
   3566   6833     1
   3567   6833     1
   3570   3584     1
   3570   3585     1
   3570   3587     1
   3570   3588     1
   3570   3581     1
   3570   3582     1
   3571   3575     1
   3571   3576     1
   3571   3578     1
   3571   3579     1
   3571   3596     1
   3571   3597     1
   3572   3574     1
   3572   3577     1
   3572   3599     1
   3572   3595     1
   3572   3584     1
   3572   3585     1
   3573   3574     1
   3573   3577     1
   3573   3599     1
   3573   3595     1
   3573   3584     1
   3573   3585     1
   3574   3578     1
   3574   3579     1
   3574   3593     1
   3574   3594     1
   3575   3577     1
   3575   3599     1
   3575   3592     1
   3575   3587     1
   3575   3588     1
   3576   3577     1
   3576   3599     1
   3576   3592     1
   3576   3587     1
   3576   3588     1
   3577   3590     1
   3577   3591     1
   3578   3599     1
   3578   3589     1
   3578   3581     1
   3578   3582     1
   3579   3599     1
   3579   3589     1
   3579   3581     1
   3579   3582     1
   3580   3599     1
   3581   3598     1
   3581   3590     1
   3581   3591     1
   3582   3598     1
   3582   3590     1
   3582   3591     1
   3583   3599     1
   3584   6883     1
   3584   3596     1
   3584   3597     1
   3585   6883     1
   3585   3596     1
   3585   3597     1
   3586   3599     1
   3587   6860     1
   3587   3593     1
   3587   3594     1
   3588   6860     1
   3588   3593     1
   3588   3594     1
   3592   6859     1
   3593   6856     1
   3594   6856     1
   3595   6882     1
   3596   6879     1
   3597   6879     1
   3600   3614     1
   3600   3615     1
   3600   3617     1
   3600   3618     1
   3600   3611     1
   3600   3612     1
   3601   3605     1
   3601   3606     1
   3601   3608     1
   3601   3609     1
   3601   3626     1
   3601   3627     1
   3602   3604     1
   3602   3607     1
   3602   3629     1
   3602   3625     1
   3602   3614     1
   3602   3615     1
   3603   3604     1
   3603   3607     1
   3603   3629     1
   3603   3625     1
   3603   3614     1
   3603   3615     1
   3604   3608     1
   3604   3609     1
   3604   3623     1
   3604   3624     1
   3605   3607     1
   3605   3629     1
   3605   3622     1
   3605   3617     1
   3605   3618     1
   3606   3607     1
   3606   3629     1
   3606   3622     1
   3606   3617     1
   3606   3618     1
   3607   3620     1
   3607   3621     1
   3608   3629     1
   3608   3619     1
   3608   3611     1
   3608   3612     1
   3609   3629     1
   3609   3619     1
   3609   3611     1
   3609   3612     1
   3610   3629     1
   3611   3628     1
   3611   3620     1
   3611   3621     1
   3612   3628     1
   3612   3620     1
   3612   3621     1
   3613   3629     1
   3614   6929     1
   3614   3626     1
   3614   3627     1
   3615   6929     1
   3615   3626     1
   3615   3627     1
   3616   3629     1
   3617   6906     1
   3617   3623     1
   3617   3624     1
   3618   6906     1
   3618   3623     1
   3618   3624     1
   3622   6905     1
   3623   6902     1
   3624   6902     1
   3625   6928     1
   3626   6925     1
   3627   6925     1
   3630   3644     1
   3630   3645     1
   3630   3647     1
   3630   3648     1
   3630   3641     1
   3630   3642     1
   3631   3635     1
   3631   3636     1
   3631   3638     1
   3631   3639     1
   3631   3656     1
   3631   3657     1
   3632   3634     1
   3632   3637     1
   3632   3659     1
   3632   3655     1
   3632   3644     1
   3632   3645     1
   3633   3634     1
   3633   3637     1
   3633   3659     1
   3633   3655     1
   3633   3644     1
   3633   3645     1
   3634   3638     1
   3634   3639     1
   3634   3653     1
   3634   3654     1
   3635   3637     1
   3635   3659     1
   3635   3652     1
   3635   3647     1
   3635   3648     1
   3636   3637     1
   3636   3659     1
   3636   3652     1
   3636   3647     1
   3636   3648     1
   3637   3650     1
   3637   3651     1
   3638   3659     1
   3638   3649     1
   3638   3641     1
   3638   3642     1
   3639   3659     1
   3639   3649     1
   3639   3641     1
   3639   3642     1
   3640   3659     1
   3641   3658     1
   3641   3650     1
   3641   3651     1
   3642   3658     1
   3642   3650     1
   3642   3651     1
   3643   3659     1
   3644   6975     1
   3644   3656     1
   3644   3657     1
   3645   6975     1
   3645   3656     1
   3645   3657     1
   3646   3659     1
   3647   6952     1
   3647   3653     1
   3647   3654     1
   3648   6952     1
   3648   3653     1
   3648   3654     1
   3652   6951     1
   3653   6948     1
   3654   6948     1
   3655   6974     1
   3656   6971     1
   3657   6971     1
   3660   3674     1
   3660   3675     1
   3660   3677     1
   3660   3678     1
   3660   3671     1
   3660   3672     1
   3661   3665     1
   3661   3666     1
   3661   3668     1
   3661   3669     1
   3661   3686     1
   3661   3687     1
   3662   3664     1
   3662   3667     1
   3662   3689     1
   3662   3685     1
   3662   3674     1
   3662   3675     1
   3663   3664     1
   3663   3667     1
   3663   3689     1
   3663   3685     1
   3663   3674     1
   3663   3675     1
   3664   3668     1
   3664   3669     1
   3664   3683     1
   3664   3684     1
   3665   3667     1
   3665   3689     1
   3665   3682     1
   3665   3677     1
   3665   3678     1
   3666   3667     1
   3666   3689     1
   3666   3682     1
   3666   3677     1
   3666   3678     1
   3667   3680     1
   3667   3681     1
   3668   3689     1
   3668   3679     1
   3668   3671     1
   3668   3672     1
   3669   3689     1
   3669   3679     1
   3669   3671     1
   3669   3672     1
   3670   3689     1
   3671   3688     1
   3671   3680     1
   3671   3681     1
   3672   3688     1
   3672   3680     1
   3672   3681     1
   3673   3689     1
   3674   7021     1
   3674   3686     1
   3674   3687     1
   3675   7021     1
   3675   3686     1
   3675   3687     1
   3676   3689     1
   3677   6998     1
   3677   3683     1
   3677   3684     1
   3678   6998     1
   3678   3683     1
   3678   3684     1
   3682   6997     1
   3683   6994     1
   3684   6994     1
   3685   7020     1
   3686   7017     1
   3687   7017     1
   3690   3704     1
   3690   3705     1
   3690   3707     1
   3690   3708     1
   3690   3701     1
   3690   3702     1
   3691   3695     1
   3691   3696     1
   3691   3698     1
   3691   3699     1
   3691   3716     1
   3691   3717     1
   3692   3694     1
   3692   3697     1
   3692   3719     1
   3692   3715     1
   3692   3704     1
   3692   3705     1
   3693   3694     1
   3693   3697     1
   3693   3719     1
   3693   3715     1
   3693   3704     1
   3693   3705     1
   3694   3698     1
   3694   3699     1
   3694   3713     1
   3694   3714     1
   3695   3697     1
   3695   3719     1
   3695   3712     1
   3695   3707     1
   3695   3708     1
   3696   3697     1
   3696   3719     1
   3696   3712     1
   3696   3707     1
   3696   3708     1
   3697   3710     1
   3697   3711     1
   3698   3719     1
   3698   3709     1
   3698   3701     1
   3698   3702     1
   3699   3719     1
   3699   3709     1
   3699   3701     1
   3699   3702     1
   3700   3719     1
   3701   3718     1
   3701   3710     1
   3701   3711     1
   3702   3718     1
   3702   3710     1
   3702   3711     1
   3703   3719     1
   3704   7067     1
   3704   3716     1
   3704   3717     1
   3705   7067     1
   3705   3716     1
   3705   3717     1
   3706   3719     1
   3707   7044     1
   3707   3713     1
   3707   3714     1
   3708   7044     1
   3708   3713     1
   3708   3714     1
   3712   7043     1
   3713   7040     1
   3714   7040     1
   3715   7066     1
   3716   7063     1
   3717   7063     1
   3720   3734     1
   3720   3735     1
   3720   3737     1
   3720   3738     1
   3720   3731     1
   3720   3732     1
   3721   3725     1
   3721   3726     1
   3721   3728     1
   3721   3729     1
   3721   3746     1
   3721   3747     1
   3722   3724     1
   3722   3727     1
   3722   3749     1
   3722   3745     1
   3722   3734     1
   3722   3735     1
   3723   3724     1
   3723   3727     1
   3723   3749     1
   3723   3745     1
   3723   3734     1
   3723   3735     1
   3724   3728     1
   3724   3729     1
   3724   3743     1
   3724   3744     1
   3725   3727     1
   3725   3749     1
   3725   3742     1
   3725   3737     1
   3725   3738     1
   3726   3727     1
   3726   3749     1
   3726   3742     1
   3726   3737     1
   3726   3738     1
   3727   3740     1
   3727   3741     1
   3728   3749     1
   3728   3739     1
   3728   3731     1
   3728   3732     1
   3729   3749     1
   3729   3739     1
   3729   3731     1
   3729   3732     1
   3730   3749     1
   3731   3748     1
   3731   3740     1
   3731   3741     1
   3732   3748     1
   3732   3740     1
   3732   3741     1
   3733   3749     1
   3734   7113     1
   3734   3746     1
   3734   3747     1
   3735   7113     1
   3735   3746     1
   3735   3747     1
   3736   3749     1
   3737   7090     1
   3737   3743     1
   3737   3744     1
   3738   7090     1
   3738   3743     1
   3738   3744     1
   3742   7089     1
   3743   7086     1
   3744   7086     1
   3745   7112     1
   3746   7109     1
   3747   7109     1
   3750   3764     1
   3750   3765     1
   3750   3767     1
   3750   3768     1
   3750   3761     1
   3750   3762     1
   3751   3755     1
   3751   3756     1
   3751   3758     1
   3751   3759     1
   3751   3776     1
   3751   3777     1
   3752   3754     1
   3752   3757     1
   3752   3779     1
   3752   3775     1
   3752   3764     1
   3752   3765     1
   3753   3754     1
   3753   3757     1
   3753   3779     1
   3753   3775     1
   3753   3764     1
   3753   3765     1
   3754   3758     1
   3754   3759     1
   3754   3773     1
   3754   3774     1
   3755   3757     1
   3755   3779     1
   3755   3772     1
   3755   3767     1
   3755   3768     1
   3756   3757     1
   3756   3779     1
   3756   3772     1
   3756   3767     1
   3756   3768     1
   3757   3770     1
   3757   3771     1
   3758   3779     1
   3758   3769     1
   3758   3761     1
   3758   3762     1
   3759   3779     1
   3759   3769     1
   3759   3761     1
   3759   3762     1
   3760   3779     1
   3761   3778     1
   3761   3770     1
   3761   3771     1
   3762   3778     1
   3762   3770     1
   3762   3771     1
   3763   3779     1
   3764   7159     1
   3764   3776     1
   3764   3777     1
   3765   7159     1
   3765   3776     1
   3765   3777     1
   3766   3779     1
   3767   7136     1
   3767   3773     1
   3767   3774     1
   3768   7136     1
   3768   3773     1
   3768   3774     1
   3772   7135     1
   3773   7132     1
   3774   7132     1
   3775   7158     1
   3776   7155     1
   3777   7155     1
   3780   3794     1
   3780   3795     1
   3780   3797     1
   3780   3798     1
   3780   3791     1
   3780   3792     1
   3781   3785     1
   3781   3786     1
   3781   3788     1
   3781   3789     1
   3781   3806     1
   3781   3807     1
   3782   3784     1
   3782   3787     1
   3782   3809     1
   3782   3805     1
   3782   3794     1
   3782   3795     1
   3783   3784     1
   3783   3787     1
   3783   3809     1
   3783   3805     1
   3783   3794     1
   3783   3795     1
   3784   3788     1
   3784   3789     1
   3784   3803     1
   3784   3804     1
   3785   3787     1
   3785   3809     1
   3785   3802     1
   3785   3797     1
   3785   3798     1
   3786   3787     1
   3786   3809     1
   3786   3802     1
   3786   3797     1
   3786   3798     1
   3787   3800     1
   3787   3801     1
   3788   3809     1
   3788   3799     1
   3788   3791     1
   3788   3792     1
   3789   3809     1
   3789   3799     1
   3789   3791     1
   3789   3792     1
   3790   3809     1
   3791   3808     1
   3791   3800     1
   3791   3801     1
   3792   3808     1
   3792   3800     1
   3792   3801     1
   3793   3809     1
   3794   7205     1
   3794   3806     1
   3794   3807     1
   3795   7205     1
   3795   3806     1
   3795   3807     1
   3796   3809     1
   3797   7182     1
   3797   3803     1
   3797   3804     1
   3798   7182     1
   3798   3803     1
   3798   3804     1
   3802   7181     1
   3803   7178     1
   3804   7178     1
   3805   7204     1
   3806   7201     1
   3807   7201     1
   3810   3824     1
   3810   3825     1
   3810   3827     1
   3810   3828     1
   3810   3821     1
   3810   3822     1
   3811   3815     1
   3811   3816     1
   3811   3818     1
   3811   3819     1
   3811   3836     1
   3811   3837     1
   3812   3814     1
   3812   3817     1
   3812   3839     1
   3812   3835     1
   3812   3824     1
   3812   3825     1
   3813   3814     1
   3813   3817     1
   3813   3839     1
   3813   3835     1
   3813   3824     1
   3813   3825     1
   3814   3818     1
   3814   3819     1
   3814   3833     1
   3814   3834     1
   3815   3817     1
   3815   3839     1
   3815   3832     1
   3815   3827     1
   3815   3828     1
   3816   3817     1
   3816   3839     1
   3816   3832     1
   3816   3827     1
   3816   3828     1
   3817   3830     1
   3817   3831     1
   3818   3839     1
   3818   3829     1
   3818   3821     1
   3818   3822     1
   3819   3839     1
   3819   3829     1
   3819   3821     1
   3819   3822     1
   3820   3839     1
   3821   3838     1
   3821   3830     1
   3821   3831     1
   3822   3838     1
   3822   3830     1
   3822   3831     1
   3823   3839     1
   3824   7251     1
   3824   3836     1
   3824   3837     1
   3825   7251     1
   3825   3836     1
   3825   3837     1
   3826   3839     1
   3827   7228     1
   3827   3833     1
   3827   3834     1
   3828   7228     1
   3828   3833     1
   3828   3834     1
   3832   7227     1
   3833   7224     1
   3834   7224     1
   3835   7250     1
   3836   7247     1
   3837   7247     1
   3840   3854     1
   3840   3855     1
   3840   3857     1
   3840   3858     1
   3840   3851     1
   3840   3852     1
   3841   3845     1
   3841   3846     1
   3841   3848     1
   3841   3849     1
   3841   3866     1
   3841   3867     1
   3842   3844     1
   3842   3847     1
   3842   3869     1
   3842   3865     1
   3842   3854     1
   3842   3855     1
   3843   3844     1
   3843   3847     1
   3843   3869     1
   3843   3865     1
   3843   3854     1
   3843   3855     1
   3844   3848     1
   3844   3849     1
   3844   3863     1
   3844   3864     1
   3845   3847     1
   3845   3869     1
   3845   3862     1
   3845   3857     1
   3845   3858     1
   3846   3847     1
   3846   3869     1
   3846   3862     1
   3846   3857     1
   3846   3858     1
   3847   3860     1
   3847   3861     1
   3848   3869     1
   3848   3859     1
   3848   3851     1
   3848   3852     1
   3849   3869     1
   3849   3859     1
   3849   3851     1
   3849   3852     1
   3850   3869     1
   3851   3868     1
   3851   3860     1
   3851   3861     1
   3852   3868     1
   3852   3860     1
   3852   3861     1
   3853   3869     1
   3854   7297     1
   3854   3866     1
   3854   3867     1
   3855   7297     1
   3855   3866     1
   3855   3867     1
   3856   3869     1
   3857   7274     1
   3857   3863     1
   3857   3864     1
   3858   7274     1
   3858   3863     1
   3858   3864     1
   3862   7273     1
   3863   7270     1
   3864   7270     1
   3865   7296     1
   3866   7293     1
   3867   7293     1
   3870   3884     1
   3870   3885     1
   3870   3887     1
   3870   3888     1
   3870   3881     1
   3870   3882     1
   3871   3875     1
   3871   3876     1
   3871   3878     1
   3871   3879     1
   3871   3896     1
   3871   3897     1
   3872   3874     1
   3872   3877     1
   3872   3899     1
   3872   3895     1
   3872   3884     1
   3872   3885     1
   3873   3874     1
   3873   3877     1
   3873   3899     1
   3873   3895     1
   3873   3884     1
   3873   3885     1
   3874   3878     1
   3874   3879     1
   3874   3893     1
   3874   3894     1
   3875   3877     1
   3875   3899     1
   3875   3892     1
   3875   3887     1
   3875   3888     1
   3876   3877     1
   3876   3899     1
   3876   3892     1
   3876   3887     1
   3876   3888     1
   3877   3890     1
   3877   3891     1
   3878   3899     1
   3878   3889     1
   3878   3881     1
   3878   3882     1
   3879   3899     1
   3879   3889     1
   3879   3881     1
   3879   3882     1
   3880   3899     1
   3881   3898     1
   3881   3890     1
   3881   3891     1
   3882   3898     1
   3882   3890     1
   3882   3891     1
   3883   3899     1
   3884   7343     1
   3884   3896     1
   3884   3897     1
   3885   7343     1
   3885   3896     1
   3885   3897     1
   3886   3899     1
   3887   7320     1
   3887   3893     1
   3887   3894     1
   3888   7320     1
   3888   3893     1
   3888   3894     1
   3892   7319     1
   3893   7316     1
   3894   7316     1
   3895   7342     1
   3896   7339     1
   3897   7339     1
   3900   3914     1
   3900   3915     1
   3900   3917     1
   3900   3918     1
   3900   3911     1
   3900   3912     1
   3901   3905     1
   3901   3906     1
   3901   3908     1
   3901   3909     1
   3901   3926     1
   3901   3927     1
   3902   3904     1
   3902   3907     1
   3902   3929     1
   3902   3925     1
   3902   3914     1
   3902   3915     1
   3903   3904     1
   3903   3907     1
   3903   3929     1
   3903   3925     1
   3903   3914     1
   3903   3915     1
   3904   3908     1
   3904   3909     1
   3904   3923     1
   3904   3924     1
   3905   3907     1
   3905   3929     1
   3905   3922     1
   3905   3917     1
   3905   3918     1
   3906   3907     1
   3906   3929     1
   3906   3922     1
   3906   3917     1
   3906   3918     1
   3907   3920     1
   3907   3921     1
   3908   3929     1
   3908   3919     1
   3908   3911     1
   3908   3912     1
   3909   3929     1
   3909   3919     1
   3909   3911     1
   3909   3912     1
   3910   3929     1
   3911   3928     1
   3911   3920     1
   3911   3921     1
   3912   3928     1
   3912   3920     1
   3912   3921     1
   3913   3929     1
   3914   7389     1
   3914   3926     1
   3914   3927     1
   3915   7389     1
   3915   3926     1
   3915   3927     1
   3916   3929     1
   3917   7366     1
   3917   3923     1
   3917   3924     1
   3918   7366     1
   3918   3923     1
   3918   3924     1
   3922   7365     1
   3923   7362     1
   3924   7362     1
   3925   7388     1
   3926   7385     1
   3927   7385     1
   3930   3944     1
   3930   3945     1
   3930   3947     1
   3930   3948     1
   3930   3941     1
   3930   3942     1
   3931   3935     1
   3931   3936     1
   3931   3938     1
   3931   3939     1
   3931   3956     1
   3931   3957     1
   3932   3934     1
   3932   3937     1
   3932   3959     1
   3932   3955     1
   3932   3944     1
   3932   3945     1
   3933   3934     1
   3933   3937     1
   3933   3959     1
   3933   3955     1
   3933   3944     1
   3933   3945     1
   3934   3938     1
   3934   3939     1
   3934   3953     1
   3934   3954     1
   3935   3937     1
   3935   3959     1
   3935   3952     1
   3935   3947     1
   3935   3948     1
   3936   3937     1
   3936   3959     1
   3936   3952     1
   3936   3947     1
   3936   3948     1
   3937   3950     1
   3937   3951     1
   3938   3959     1
   3938   3949     1
   3938   3941     1
   3938   3942     1
   3939   3959     1
   3939   3949     1
   3939   3941     1
   3939   3942     1
   3940   3959     1
   3941   3958     1
   3941   3950     1
   3941   3951     1
   3942   3958     1
   3942   3950     1
   3942   3951     1
   3943   3959     1
   3944   7435     1
   3944   3956     1
   3944   3957     1
   3945   7435     1
   3945   3956     1
   3945   3957     1
   3946   3959     1
   3947   7412     1
   3947   3953     1
   3947   3954     1
   3948   7412     1
   3948   3953     1
   3948   3954     1
   3952   7411     1
   3953   7408     1
   3954   7408     1
   3955   7434     1
   3956   7431     1
   3957   7431     1
   3960   3974     1
   3960   3975     1
   3960   3977     1
   3960   3978     1
   3960   3971     1
   3960   3972     1
   3961   3965     1
   3961   3966     1
   3961   3968     1
   3961   3969     1
   3961   3986     1
   3961   3987     1
   3962   3964     1
   3962   3967     1
   3962   3989     1
   3962   3985     1
   3962   3974     1
   3962   3975     1
   3963   3964     1
   3963   3967     1
   3963   3989     1
   3963   3985     1
   3963   3974     1
   3963   3975     1
   3964   3968     1
   3964   3969     1
   3964   3983     1
   3964   3984     1
   3965   3967     1
   3965   3989     1
   3965   3982     1
   3965   3977     1
   3965   3978     1
   3966   3967     1
   3966   3989     1
   3966   3982     1
   3966   3977     1
   3966   3978     1
   3967   3980     1
   3967   3981     1
   3968   3989     1
   3968   3979     1
   3968   3971     1
   3968   3972     1
   3969   3989     1
   3969   3979     1
   3969   3971     1
   3969   3972     1
   3970   3989     1
   3971   3988     1
   3971   3980     1
   3971   3981     1
   3972   3988     1
   3972   3980     1
   3972   3981     1
   3973   3989     1
   3974   7481     1
   3974   3986     1
   3974   3987     1
   3975   7481     1
   3975   3986     1
   3975   3987     1
   3976   3989     1
   3977   7458     1
   3977   3983     1
   3977   3984     1
   3978   7458     1
   3978   3983     1
   3978   3984     1
   3982   7457     1
   3983   7454     1
   3984   7454     1
   3985   7480     1
   3986   7477     1
   3987   7477     1
   3990   4004     1
   3990   4005     1
   3990   4007     1
   3990   4008     1
   3990   4001     1
   3990   4002     1
   3991   3995     1
   3991   3996     1
   3991   3998     1
   3991   3999     1
   3991   4016     1
   3991   4017     1
   3992   3994     1
   3992   3997     1
   3992   4019     1
   3992   4015     1
   3992   4004     1
   3992   4005     1
   3993   3994     1
   3993   3997     1
   3993   4019     1
   3993   4015     1
   3993   4004     1
   3993   4005     1
   3994   3998     1
   3994   3999     1
   3994   4013     1
   3994   4014     1
   3995   3997     1
   3995   4019     1
   3995   4012     1
   3995   4007     1
   3995   4008     1
   3996   3997     1
   3996   4019     1
   3996   4012     1
   3996   4007     1
   3996   4008     1
   3997   4010     1
   3997   4011     1
   3998   4019     1
   3998   4009     1
   3998   4001     1
   3998   4002     1
   3999   4019     1
   3999   4009     1
   3999   4001     1
   3999   4002     1
   4000   4019     1
   4001   4018     1
   4001   4010     1
   4001   4011     1
   4002   4018     1
   4002   4010     1
   4002   4011     1
   4003   4019     1
   4004   7527     1
   4004   4016     1
   4004   4017     1
   4005   7527     1
   4005   4016     1
   4005   4017     1
   4006   4019     1
   4007   7504     1
   4007   4013     1
   4007   4014     1
   4008   7504     1
   4008   4013     1
   4008   4014     1
   4012   7503     1
   4013   7500     1
   4014   7500     1
   4015   7526     1
   4016   7523     1
   4017   7523     1
   4020   4034     1
   4020   4035     1
   4020   4037     1
   4020   4038     1
   4020   4031     1
   4020   4032     1
   4021   4025     1
   4021   4026     1
   4021   4028     1
   4021   4029     1
   4021   4046     1
   4021   4047     1
   4022   4024     1
   4022   4027     1
   4022   4049     1
   4022   4045     1
   4022   4034     1
   4022   4035     1
   4023   4024     1
   4023   4027     1
   4023   4049     1
   4023   4045     1
   4023   4034     1
   4023   4035     1
   4024   4028     1
   4024   4029     1
   4024   4043     1
   4024   4044     1
   4025   4027     1
   4025   4049     1
   4025   4042     1
   4025   4037     1
   4025   4038     1
   4026   4027     1
   4026   4049     1
   4026   4042     1
   4026   4037     1
   4026   4038     1
   4027   4040     1
   4027   4041     1
   4028   4049     1
   4028   4039     1
   4028   4031     1
   4028   4032     1
   4029   4049     1
   4029   4039     1
   4029   4031     1
   4029   4032     1
   4030   4049     1
   4031   4048     1
   4031   4040     1
   4031   4041     1
   4032   4048     1
   4032   4040     1
   4032   4041     1
   4033   4049     1
   4034   7573     1
   4034   4046     1
   4034   4047     1
   4035   7573     1
   4035   4046     1
   4035   4047     1
   4036   4049     1
   4037   7550     1
   4037   4043     1
   4037   4044     1
   4038   7550     1
   4038   4043     1
   4038   4044     1
   4042   7549     1
   4043   7546     1
   4044   7546     1
   4045   7572     1
   4046   7569     1
   4047   7569     1
   4050   4064     1
   4050   4065     1
   4050   4067     1
   4050   4068     1
   4050   4061     1
   4050   4062     1
   4051   4055     1
   4051   4056     1
   4051   4058     1
   4051   4059     1
   4051   4076     1
   4051   4077     1
   4052   4054     1
   4052   4057     1
   4052   4079     1
   4052   4075     1
   4052   4064     1
   4052   4065     1
   4053   4054     1
   4053   4057     1
   4053   4079     1
   4053   4075     1
   4053   4064     1
   4053   4065     1
   4054   4058     1
   4054   4059     1
   4054   4073     1
   4054   4074     1
   4055   4057     1
   4055   4079     1
   4055   4072     1
   4055   4067     1
   4055   4068     1
   4056   4057     1
   4056   4079     1
   4056   4072     1
   4056   4067     1
   4056   4068     1
   4057   4070     1
   4057   4071     1
   4058   4079     1
   4058   4069     1
   4058   4061     1
   4058   4062     1
   4059   4079     1
   4059   4069     1
   4059   4061     1
   4059   4062     1
   4060   4079     1
   4061   4078     1
   4061   4070     1
   4061   4071     1
   4062   4078     1
   4062   4070     1
   4062   4071     1
   4063   4079     1
   4064   7619     1
   4064   4076     1
   4064   4077     1
   4065   7619     1
   4065   4076     1
   4065   4077     1
   4066   4079     1
   4067   7596     1
   4067   4073     1
   4067   4074     1
   4068   7596     1
   4068   4073     1
   4068   4074     1
   4072   7595     1
   4073   7592     1
   4074   7592     1
   4075   7618     1
   4076   7615     1
   4077   7615     1
   4080   4094     1
   4080   4095     1
   4080   4097     1
   4080   4098     1
   4080   4091     1
   4080   4092     1
   4081   4085     1
   4081   4086     1
   4081   4088     1
   4081   4089     1
   4081   4106     1
   4081   4107     1
   4082   4084     1
   4082   4087     1
   4082   4109     1
   4082   4105     1
   4082   4094     1
   4082   4095     1
   4083   4084     1
   4083   4087     1
   4083   4109     1
   4083   4105     1
   4083   4094     1
   4083   4095     1
   4084   4088     1
   4084   4089     1
   4084   4103     1
   4084   4104     1
   4085   4087     1
   4085   4109     1
   4085   4102     1
   4085   4097     1
   4085   4098     1
   4086   4087     1
   4086   4109     1
   4086   4102     1
   4086   4097     1
   4086   4098     1
   4087   4100     1
   4087   4101     1
   4088   4109     1
   4088   4099     1
   4088   4091     1
   4088   4092     1
   4089   4109     1
   4089   4099     1
   4089   4091     1
   4089   4092     1
   4090   4109     1
   4091   4108     1
   4091   4100     1
   4091   4101     1
   4092   4108     1
   4092   4100     1
   4092   4101     1
   4093   4109     1
   4094   7665     1
   4094   4106     1
   4094   4107     1
   4095   7665     1
   4095   4106     1
   4095   4107     1
   4096   4109     1
   4097   7642     1
   4097   4103     1
   4097   4104     1
   4098   7642     1
   4098   4103     1
   4098   4104     1
   4102   7641     1
   4103   7638     1
   4104   7638     1
   4105   7664     1
   4106   7661     1
   4107   7661     1
   4110   4124     1
   4110   4125     1
   4110   4127     1
   4110   4128     1
   4110   4121     1
   4110   4122     1
   4111   4115     1
   4111   4116     1
   4111   4118     1
   4111   4119     1
   4111   4136     1
   4111   4137     1
   4112   4114     1
   4112   4117     1
   4112   4139     1
   4112   4135     1
   4112   4124     1
   4112   4125     1
   4113   4114     1
   4113   4117     1
   4113   4139     1
   4113   4135     1
   4113   4124     1
   4113   4125     1
   4114   4118     1
   4114   4119     1
   4114   4133     1
   4114   4134     1
   4115   4117     1
   4115   4139     1
   4115   4132     1
   4115   4127     1
   4115   4128     1
   4116   4117     1
   4116   4139     1
   4116   4132     1
   4116   4127     1
   4116   4128     1
   4117   4130     1
   4117   4131     1
   4118   4139     1
   4118   4129     1
   4118   4121     1
   4118   4122     1
   4119   4139     1
   4119   4129     1
   4119   4121     1
   4119   4122     1
   4120   4139     1
   4121   4138     1
   4121   4130     1
   4121   4131     1
   4122   4138     1
   4122   4130     1
   4122   4131     1
   4123   4139     1
   4124   7711     1
   4124   4136     1
   4124   4137     1
   4125   7711     1
   4125   4136     1
   4125   4137     1
   4126   4139     1
   4127   7688     1
   4127   4133     1
   4127   4134     1
   4128   7688     1
   4128   4133     1
   4128   4134     1
   4132   7687     1
   4133   7684     1
   4134   7684     1
   4135   7710     1
   4136   7707     1
   4137   7707     1
   4140   4154     1
   4140   4155     1
   4140   4157     1
   4140   4158     1
   4140   4151     1
   4140   4152     1
   4141   4145     1
   4141   4146     1
   4141   4148     1
   4141   4149     1
   4141   4166     1
   4141   4167     1
   4142   4144     1
   4142   4147     1
   4142   4169     1
   4142   4165     1
   4142   4154     1
   4142   4155     1
   4143   4144     1
   4143   4147     1
   4143   4169     1
   4143   4165     1
   4143   4154     1
   4143   4155     1
   4144   4148     1
   4144   4149     1
   4144   4163     1
   4144   4164     1
   4145   4147     1
   4145   4169     1
   4145   4162     1
   4145   4157     1
   4145   4158     1
   4146   4147     1
   4146   4169     1
   4146   4162     1
   4146   4157     1
   4146   4158     1
   4147   4160     1
   4147   4161     1
   4148   4169     1
   4148   4159     1
   4148   4151     1
   4148   4152     1
   4149   4169     1
   4149   4159     1
   4149   4151     1
   4149   4152     1
   4150   4169     1
   4151   4168     1
   4151   4160     1
   4151   4161     1
   4152   4168     1
   4152   4160     1
   4152   4161     1
   4153   4169     1
   4154   7757     1
   4154   4166     1
   4154   4167     1
   4155   7757     1
   4155   4166     1
   4155   4167     1
   4156   4169     1
   4157   7734     1
   4157   4163     1
   4157   4164     1
   4158   7734     1
   4158   4163     1
   4158   4164     1
   4162   7733     1
   4163   7730     1
   4164   7730     1
   4165   7756     1
   4166   7753     1
   4167   7753     1
   4170   4184     1
   4170   4185     1
   4170   4187     1
   4170   4188     1
   4170   4181     1
   4170   4182     1
   4171   4175     1
   4171   4176     1
   4171   4178     1
   4171   4179     1
   4171   4196     1
   4171   4197     1
   4172   4174     1
   4172   4177     1
   4172   4199     1
   4172   4195     1
   4172   4184     1
   4172   4185     1
   4173   4174     1
   4173   4177     1
   4173   4199     1
   4173   4195     1
   4173   4184     1
   4173   4185     1
   4174   4178     1
   4174   4179     1
   4174   4193     1
   4174   4194     1
   4175   4177     1
   4175   4199     1
   4175   4192     1
   4175   4187     1
   4175   4188     1
   4176   4177     1
   4176   4199     1
   4176   4192     1
   4176   4187     1
   4176   4188     1
   4177   4190     1
   4177   4191     1
   4178   4199     1
   4178   4189     1
   4178   4181     1
   4178   4182     1
   4179   4199     1
   4179   4189     1
   4179   4181     1
   4179   4182     1
   4180   4199     1
   4181   4198     1
   4181   4190     1
   4181   4191     1
   4182   4198     1
   4182   4190     1
   4182   4191     1
   4183   4199     1
   4184   7803     1
   4184   4196     1
   4184   4197     1
   4185   7803     1
   4185   4196     1
   4185   4197     1
   4186   4199     1
   4187   7780     1
   4187   4193     1
   4187   4194     1
   4188   7780     1
   4188   4193     1
   4188   4194     1
   4192   7779     1
   4193   7776     1
   4194   7776     1
   4195   7802     1
   4196   7799     1
   4197   7799     1
   4200   4214     1
   4200   4215     1
   4200   4217     1
   4200   4218     1
   4200   4211     1
   4200   4212     1
   4201   4205     1
   4201   4206     1
   4201   4208     1
   4201   4209     1
   4201   4226     1
   4201   4227     1
   4202   4204     1
   4202   4207     1
   4202   4229     1
   4202   4225     1
   4202   4214     1
   4202   4215     1
   4203   4204     1
   4203   4207     1
   4203   4229     1
   4203   4225     1
   4203   4214     1
   4203   4215     1
   4204   4208     1
   4204   4209     1
   4204   4223     1
   4204   4224     1
   4205   4207     1
   4205   4229     1
   4205   4222     1
   4205   4217     1
   4205   4218     1
   4206   4207     1
   4206   4229     1
   4206   4222     1
   4206   4217     1
   4206   4218     1
   4207   4220     1
   4207   4221     1
   4208   4229     1
   4208   4219     1
   4208   4211     1
   4208   4212     1
   4209   4229     1
   4209   4219     1
   4209   4211     1
   4209   4212     1
   4210   4229     1
   4211   4228     1
   4211   4220     1
   4211   4221     1
   4212   4228     1
   4212   4220     1
   4212   4221     1
   4213   4229     1
   4214   7849     1
   4214   4226     1
   4214   4227     1
   4215   7849     1
   4215   4226     1
   4215   4227     1
   4216   4229     1
   4217   7826     1
   4217   4223     1
   4217   4224     1
   4218   7826     1
   4218   4223     1
   4218   4224     1
   4222   7825     1
   4223   7822     1
   4224   7822     1
   4225   7848     1
   4226   7845     1
   4227   7845     1
   4230   4244     1
   4230   4245     1
   4230   4247     1
   4230   4248     1
   4230   4241     1
   4230   4242     1
   4231   4235     1
   4231   4236     1
   4231   4238     1
   4231   4239     1
   4231   4256     1
   4231   4257     1
   4232   4234     1
   4232   4237     1
   4232   4259     1
   4232   4255     1
   4232   4244     1
   4232   4245     1
   4233   4234     1
   4233   4237     1
   4233   4259     1
   4233   4255     1
   4233   4244     1
   4233   4245     1
   4234   4238     1
   4234   4239     1
   4234   4253     1
   4234   4254     1
   4235   4237     1
   4235   4259     1
   4235   4252     1
   4235   4247     1
   4235   4248     1
   4236   4237     1
   4236   4259     1
   4236   4252     1
   4236   4247     1
   4236   4248     1
   4237   4250     1
   4237   4251     1
   4238   4259     1
   4238   4249     1
   4238   4241     1
   4238   4242     1
   4239   4259     1
   4239   4249     1
   4239   4241     1
   4239   4242     1
   4240   4259     1
   4241   4258     1
   4241   4250     1
   4241   4251     1
   4242   4258     1
   4242   4250     1
   4242   4251     1
   4243   4259     1
   4244   7895     1
   4244   4256     1
   4244   4257     1
   4245   7895     1
   4245   4256     1
   4245   4257     1
   4246   4259     1
   4247   7872     1
   4247   4253     1
   4247   4254     1
   4248   7872     1
   4248   4253     1
   4248   4254     1
   4252   7871     1
   4253   7868     1
   4254   7868     1
   4255   7894     1
   4256   7891     1
   4257   7891     1
   4260   4274     1
   4260   4275     1
   4260   4277     1
   4260   4278     1
   4260   4271     1
   4260   4272     1
   4261   4265     1
   4261   4266     1
   4261   4268     1
   4261   4269     1
   4261   4286     1
   4261   4287     1
   4262   4264     1
   4262   4267     1
   4262   4289     1
   4262   4285     1
   4262   4274     1
   4262   4275     1
   4263   4264     1
   4263   4267     1
   4263   4289     1
   4263   4285     1
   4263   4274     1
   4263   4275     1
   4264   4268     1
   4264   4269     1
   4264   4283     1
   4264   4284     1
   4265   4267     1
   4265   4289     1
   4265   4282     1
   4265   4277     1
   4265   4278     1
   4266   4267     1
   4266   4289     1
   4266   4282     1
   4266   4277     1
   4266   4278     1
   4267   4280     1
   4267   4281     1
   4268   4289     1
   4268   4279     1
   4268   4271     1
   4268   4272     1
   4269   4289     1
   4269   4279     1
   4269   4271     1
   4269   4272     1
   4270   4289     1
   4271   4288     1
   4271   4280     1
   4271   4281     1
   4272   4288     1
   4272   4280     1
   4272   4281     1
   4273   4289     1
   4274   7941     1
   4274   4286     1
   4274   4287     1
   4275   7941     1
   4275   4286     1
   4275   4287     1
   4276   4289     1
   4277   7918     1
   4277   4283     1
   4277   4284     1
   4278   7918     1
   4278   4283     1
   4278   4284     1
   4282   7917     1
   4283   7914     1
   4284   7914     1
   4285   7940     1
   4286   7937     1
   4287   7937     1
   4290   4304     1
   4290   4305     1
   4290   4307     1
   4290   4308     1
   4290   4301     1
   4290   4302     1
   4291   4295     1
   4291   4296     1
   4291   4298     1
   4291   4299     1
   4291   4316     1
   4291   4317     1
   4292   4294     1
   4292   4297     1
   4292   4319     1
   4292   4315     1
   4292   4304     1
   4292   4305     1
   4293   4294     1
   4293   4297     1
   4293   4319     1
   4293   4315     1
   4293   4304     1
   4293   4305     1
   4294   4298     1
   4294   4299     1
   4294   4313     1
   4294   4314     1
   4295   4297     1
   4295   4319     1
   4295   4312     1
   4295   4307     1
   4295   4308     1
   4296   4297     1
   4296   4319     1
   4296   4312     1
   4296   4307     1
   4296   4308     1
   4297   4310     1
   4297   4311     1
   4298   4319     1
   4298   4309     1
   4298   4301     1
   4298   4302     1
   4299   4319     1
   4299   4309     1
   4299   4301     1
   4299   4302     1
   4300   4319     1
   4301   4318     1
   4301   4310     1
   4301   4311     1
   4302   4318     1
   4302   4310     1
   4302   4311     1
   4303   4319     1
   4304   7987     1
   4304   4316     1
   4304   4317     1
   4305   7987     1
   4305   4316     1
   4305   4317     1
   4306   4319     1
   4307   7964     1
   4307   4313     1
   4307   4314     1
   4308   7964     1
   4308   4313     1
   4308   4314     1
   4312   7963     1
   4313   7960     1
   4314   7960     1
   4315   7986     1
   4316   7983     1
   4317   7983     1
   4320   4334     1
   4320   4335     1
   4320   4337     1
   4320   4338     1
   4320   4331     1
   4320   4332     1
   4321   4325     1
   4321   4326     1
   4321   4328     1
   4321   4329     1
   4321   4346     1
   4321   4347     1
   4322   4324     1
   4322   4327     1
   4322   4349     1
   4322   4345     1
   4322   4334     1
   4322   4335     1
   4323   4324     1
   4323   4327     1
   4323   4349     1
   4323   4345     1
   4323   4334     1
   4323   4335     1
   4324   4328     1
   4324   4329     1
   4324   4343     1
   4324   4344     1
   4325   4327     1
   4325   4349     1
   4325   4342     1
   4325   4337     1
   4325   4338     1
   4326   4327     1
   4326   4349     1
   4326   4342     1
   4326   4337     1
   4326   4338     1
   4327   4340     1
   4327   4341     1
   4328   4349     1
   4328   4339     1
   4328   4331     1
   4328   4332     1
   4329   4349     1
   4329   4339     1
   4329   4331     1
   4329   4332     1
   4330   4349     1
   4331   4348     1
   4331   4340     1
   4331   4341     1
   4332   4348     1
   4332   4340     1
   4332   4341     1
   4333   4349     1
   4334   8033     1
   4334   4346     1
   4334   4347     1
   4335   8033     1
   4335   4346     1
   4335   4347     1
   4336   4349     1
   4337   8010     1
   4337   4343     1
   4337   4344     1
   4338   8010     1
   4338   4343     1
   4338   4344     1
   4342   8009     1
   4343   8006     1
   4344   8006     1
   4345   8032     1
   4346   8029     1
   4347   8029     1
   4350   4364     1
   4350   4365     1
   4350   4367     1
   4350   4368     1
   4350   4361     1
   4350   4362     1
   4351   4355     1
   4351   4356     1
   4351   4358     1
   4351   4359     1
   4351   4376     1
   4351   4377     1
   4352   4354     1
   4352   4357     1
   4352   4379     1
   4352   4375     1
   4352   4364     1
   4352   4365     1
   4353   4354     1
   4353   4357     1
   4353   4379     1
   4353   4375     1
   4353   4364     1
   4353   4365     1
   4354   4358     1
   4354   4359     1
   4354   4373     1
   4354   4374     1
   4355   4357     1
   4355   4379     1
   4355   4372     1
   4355   4367     1
   4355   4368     1
   4356   4357     1
   4356   4379     1
   4356   4372     1
   4356   4367     1
   4356   4368     1
   4357   4370     1
   4357   4371     1
   4358   4379     1
   4358   4369     1
   4358   4361     1
   4358   4362     1
   4359   4379     1
   4359   4369     1
   4359   4361     1
   4359   4362     1
   4360   4379     1
   4361   4378     1
   4361   4370     1
   4361   4371     1
   4362   4378     1
   4362   4370     1
   4362   4371     1
   4363   4379     1
   4364   8079     1
   4364   4376     1
   4364   4377     1
   4365   8079     1
   4365   4376     1
   4365   4377     1
   4366   4379     1
   4367   8056     1
   4367   4373     1
   4367   4374     1
   4368   8056     1
   4368   4373     1
   4368   4374     1
   4372   8055     1
   4373   8052     1
   4374   8052     1
   4375   8078     1
   4376   8075     1
   4377   8075     1
   4380   4394     1
   4380   4395     1
   4380   4397     1
   4380   4398     1
   4380   4391     1
   4380   4392     1
   4381   4385     1
   4381   4386     1
   4381   4388     1
   4381   4389     1
   4381   4406     1
   4381   4407     1
   4382   4384     1
   4382   4387     1
   4382   4409     1
   4382   4405     1
   4382   4394     1
   4382   4395     1
   4383   4384     1
   4383   4387     1
   4383   4409     1
   4383   4405     1
   4383   4394     1
   4383   4395     1
   4384   4388     1
   4384   4389     1
   4384   4403     1
   4384   4404     1
   4385   4387     1
   4385   4409     1
   4385   4402     1
   4385   4397     1
   4385   4398     1
   4386   4387     1
   4386   4409     1
   4386   4402     1
   4386   4397     1
   4386   4398     1
   4387   4400     1
   4387   4401     1
   4388   4409     1
   4388   4399     1
   4388   4391     1
   4388   4392     1
   4389   4409     1
   4389   4399     1
   4389   4391     1
   4389   4392     1
   4390   4409     1
   4391   4408     1
   4391   4400     1
   4391   4401     1
   4392   4408     1
   4392   4400     1
   4392   4401     1
   4393   4409     1
   4394   8125     1
   4394   4406     1
   4394   4407     1
   4395   8125     1
   4395   4406     1
   4395   4407     1
   4396   4409     1
   4397   8102     1
   4397   4403     1
   4397   4404     1
   4398   8102     1
   4398   4403     1
   4398   4404     1
   4402   8101     1
   4403   8098     1
   4404   8098     1
   4405   8124     1
   4406   8121     1
   4407   8121     1
   4410   4424     1
   4410   4425     1
   4410   4427     1
   4410   4428     1
   4410   4421     1
   4410   4422     1
   4411   4415     1
   4411   4416     1
   4411   4418     1
   4411   4419     1
   4411   4436     1
   4411   4437     1
   4412   4414     1
   4412   4417     1
   4412   4439     1
   4412   4435     1
   4412   4424     1
   4412   4425     1
   4413   4414     1
   4413   4417     1
   4413   4439     1
   4413   4435     1
   4413   4424     1
   4413   4425     1
   4414   4418     1
   4414   4419     1
   4414   4433     1
   4414   4434     1
   4415   4417     1
   4415   4439     1
   4415   4432     1
   4415   4427     1
   4415   4428     1
   4416   4417     1
   4416   4439     1
   4416   4432     1
   4416   4427     1
   4416   4428     1
   4417   4430     1
   4417   4431     1
   4418   4439     1
   4418   4429     1
   4418   4421     1
   4418   4422     1
   4419   4439     1
   4419   4429     1
   4419   4421     1
   4419   4422     1
   4420   4439     1
   4421   4438     1
   4421   4430     1
   4421   4431     1
   4422   4438     1
   4422   4430     1
   4422   4431     1
   4423   4439     1
   4424   8171     1
   4424   4436     1
   4424   4437     1
   4425   8171     1
   4425   4436     1
   4425   4437     1
   4426   4439     1
   4427   8148     1
   4427   4433     1
   4427   4434     1
   4428   8148     1
   4428   4433     1
   4428   4434     1
   4432   8147     1
   4433   8144     1
   4434   8144     1
   4435   8170     1
   4436   8167     1
   4437   8167     1
   4440   4454     1
   4440   4455     1
   4440   4457     1
   4440   4458     1
   4440   4451     1
   4440   4452     1
   4441   4445     1
   4441   4446     1
   4441   4448     1
   4441   4449     1
   4441   4466     1
   4441   4467     1
   4442   4444     1
   4442   4447     1
   4442   4469     1
   4442   4465     1
   4442   4454     1
   4442   4455     1
   4443   4444     1
   4443   4447     1
   4443   4469     1
   4443   4465     1
   4443   4454     1
   4443   4455     1
   4444   4448     1
   4444   4449     1
   4444   4463     1
   4444   4464     1
   4445   4447     1
   4445   4469     1
   4445   4462     1
   4445   4457     1
   4445   4458     1
   4446   4447     1
   4446   4469     1
   4446   4462     1
   4446   4457     1
   4446   4458     1
   4447   4460     1
   4447   4461     1
   4448   4469     1
   4448   4459     1
   4448   4451     1
   4448   4452     1
   4449   4469     1
   4449   4459     1
   4449   4451     1
   4449   4452     1
   4450   4469     1
   4451   4468     1
   4451   4460     1
   4451   4461     1
   4452   4468     1
   4452   4460     1
   4452   4461     1
   4453   4469     1
   4454   8217     1
   4454   4466     1
   4454   4467     1
   4455   8217     1
   4455   4466     1
   4455   4467     1
   4456   4469     1
   4457   8194     1
   4457   4463     1
   4457   4464     1
   4458   8194     1
   4458   4463     1
   4458   4464     1
   4462   8193     1
   4463   8190     1
   4464   8190     1
   4465   8216     1
   4466   8213     1
   4467   8213     1
   4470   4484     1
   4470   4485     1
   4470   4487     1
   4470   4488     1
   4470   4481     1
   4470   4482     1
   4471   4475     1
   4471   4476     1
   4471   4478     1
   4471   4479     1
   4471   4496     1
   4471   4497     1
   4472   4474     1
   4472   4477     1
   4472   4499     1
   4472   4495     1
   4472   4484     1
   4472   4485     1
   4473   4474     1
   4473   4477     1
   4473   4499     1
   4473   4495     1
   4473   4484     1
   4473   4485     1
   4474   4478     1
   4474   4479     1
   4474   4493     1
   4474   4494     1
   4475   4477     1
   4475   4499     1
   4475   4492     1
   4475   4487     1
   4475   4488     1
   4476   4477     1
   4476   4499     1
   4476   4492     1
   4476   4487     1
   4476   4488     1
   4477   4490     1
   4477   4491     1
   4478   4499     1
   4478   4489     1
   4478   4481     1
   4478   4482     1
   4479   4499     1
   4479   4489     1
   4479   4481     1
   4479   4482     1
   4480   4499     1
   4481   4498     1
   4481   4490     1
   4481   4491     1
   4482   4498     1
   4482   4490     1
   4482   4491     1
   4483   4499     1
   4484   8263     1
   4484   4496     1
   4484   4497     1
   4485   8263     1
   4485   4496     1
   4485   4497     1
   4486   4499     1
   4487   8240     1
   4487   4493     1
   4487   4494     1
   4488   8240     1
   4488   4493     1
   4488   4494     1
   4492   8239     1
   4493   8236     1
   4494   8236     1
   4495   8262     1
   4496   8259     1
   4497   8259     1
   4500   4514     1
   4500   4515     1
   4500   4517     1
   4500   4518     1
   4500   4511     1
   4500   4512     1
   4501   4505     1
   4501   4506     1
   4501   4508     1
   4501   4509     1
   4501   4526     1
   4501   4527     1
   4502   4504     1
   4502   4507     1
   4502   4529     1
   4502   4525     1
   4502   4514     1
   4502   4515     1
   4503   4504     1
   4503   4507     1
   4503   4529     1
   4503   4525     1
   4503   4514     1
   4503   4515     1
   4504   4508     1
   4504   4509     1
   4504   4523     1
   4504   4524     1
   4505   4507     1
   4505   4529     1
   4505   4522     1
   4505   4517     1
   4505   4518     1
   4506   4507     1
   4506   4529     1
   4506   4522     1
   4506   4517     1
   4506   4518     1
   4507   4520     1
   4507   4521     1
   4508   4529     1
   4508   4519     1
   4508   4511     1
   4508   4512     1
   4509   4529     1
   4509   4519     1
   4509   4511     1
   4509   4512     1
   4510   4529     1
   4511   4528     1
   4511   4520     1
   4511   4521     1
   4512   4528     1
   4512   4520     1
   4512   4521     1
   4513   4529     1
   4514   8309     1
   4514   4526     1
   4514   4527     1
   4515   8309     1
   4515   4526     1
   4515   4527     1
   4516   4529     1
   4517   8286     1
   4517   4523     1
   4517   4524     1
   4518   8286     1
   4518   4523     1
   4518   4524     1
   4522   8285     1
   4523   8282     1
   4524   8282     1
   4525   8308     1
   4526   8305     1
   4527   8305     1
   4530   4544     1
   4530   4545     1
   4530   4547     1
   4530   4548     1
   4530   4541     1
   4530   4542     1
   4531   4535     1
   4531   4536     1
   4531   4538     1
   4531   4539     1
   4531   4556     1
   4531   4557     1
   4532   4534     1
   4532   4537     1
   4532   4559     1
   4532   4555     1
   4532   4544     1
   4532   4545     1
   4533   4534     1
   4533   4537     1
   4533   4559     1
   4533   4555     1
   4533   4544     1
   4533   4545     1
   4534   4538     1
   4534   4539     1
   4534   4553     1
   4534   4554     1
   4535   4537     1
   4535   4559     1
   4535   4552     1
   4535   4547     1
   4535   4548     1
   4536   4537     1
   4536   4559     1
   4536   4552     1
   4536   4547     1
   4536   4548     1
   4537   4550     1
   4537   4551     1
   4538   4559     1
   4538   4549     1
   4538   4541     1
   4538   4542     1
   4539   4559     1
   4539   4549     1
   4539   4541     1
   4539   4542     1
   4540   4559     1
   4541   4558     1
   4541   4550     1
   4541   4551     1
   4542   4558     1
   4542   4550     1
   4542   4551     1
   4543   4559     1
   4544   8355     1
   4544   4556     1
   4544   4557     1
   4545   8355     1
   4545   4556     1
   4545   4557     1
   4546   4559     1
   4547   8332     1
   4547   4553     1
   4547   4554     1
   4548   8332     1
   4548   4553     1
   4548   4554     1
   4552   8331     1
   4553   8328     1
   4554   8328     1
   4555   8354     1
   4556   8351     1
   4557   8351     1
   4560   4574     1
   4560   4575     1
   4560   4577     1
   4560   4578     1
   4560   4571     1
   4560   4572     1
   4561   4565     1
   4561   4566     1
   4561   4568     1
   4561   4569     1
   4561   4586     1
   4561   4587     1
   4562   4564     1
   4562   4567     1
   4562   4589     1
   4562   4585     1
   4562   4574     1
   4562   4575     1
   4563   4564     1
   4563   4567     1
   4563   4589     1
   4563   4585     1
   4563   4574     1
   4563   4575     1
   4564   4568     1
   4564   4569     1
   4564   4583     1
   4564   4584     1
   4565   4567     1
   4565   4589     1
   4565   4582     1
   4565   4577     1
   4565   4578     1
   4566   4567     1
   4566   4589     1
   4566   4582     1
   4566   4577     1
   4566   4578     1
   4567   4580     1
   4567   4581     1
   4568   4589     1
   4568   4579     1
   4568   4571     1
   4568   4572     1
   4569   4589     1
   4569   4579     1
   4569   4571     1
   4569   4572     1
   4570   4589     1
   4571   4588     1
   4571   4580     1
   4571   4581     1
   4572   4588     1
   4572   4580     1
   4572   4581     1
   4573   4589     1
   4574   8401     1
   4574   4586     1
   4574   4587     1
   4575   8401     1
   4575   4586     1
   4575   4587     1
   4576   4589     1
   4577   8378     1
   4577   4583     1
   4577   4584     1
   4578   8378     1
   4578   4583     1
   4578   4584     1
   4582   8377     1
   4583   8374     1
   4584   8374     1
   4585   8400     1
   4586   8397     1
   4587   8397     1
   4590   4604     1
   4590   4605     1
   4590   4607     1
   4590   4608     1
   4590   4601     1
   4590   4602     1
   4591   4595     1
   4591   4596     1
   4591   4598     1
   4591   4599     1
   4591   4616     1
   4591   4617     1
   4592   4594     1
   4592   4597     1
   4592   4619     1
   4592   4615     1
   4592   4604     1
   4592   4605     1
   4593   4594     1
   4593   4597     1
   4593   4619     1
   4593   4615     1
   4593   4604     1
   4593   4605     1
   4594   4598     1
   4594   4599     1
   4594   4613     1
   4594   4614     1
   4595   4597     1
   4595   4619     1
   4595   4612     1
   4595   4607     1
   4595   4608     1
   4596   4597     1
   4596   4619     1
   4596   4612     1
   4596   4607     1
   4596   4608     1
   4597   4610     1
   4597   4611     1
   4598   4619     1
   4598   4609     1
   4598   4601     1
   4598   4602     1
   4599   4619     1
   4599   4609     1
   4599   4601     1
   4599   4602     1
   4600   4619     1
   4601   4618     1
   4601   4610     1
   4601   4611     1
   4602   4618     1
   4602   4610     1
   4602   4611     1
   4603   4619     1
   4604   8447     1
   4604   4616     1
   4604   4617     1
   4605   8447     1
   4605   4616     1
   4605   4617     1
   4606   4619     1
   4607   8424     1
   4607   4613     1
   4607   4614     1
   4608   8424     1
   4608   4613     1
   4608   4614     1
   4612   8423     1
   4613   8420     1
   4614   8420     1
   4615   8446     1
   4616   8443     1
   4617   8443     1
   4620   4634     1
   4620   4635     1
   4620   4637     1
   4620   4638     1
   4620   4631     1
   4620   4632     1
   4621   4625     1
   4621   4626     1
   4621   4628     1
   4621   4629     1
   4621   4646     1
   4621   4647     1
   4622   4624     1
   4622   4627     1
   4622   4649     1
   4622   4645     1
   4622   4634     1
   4622   4635     1
   4623   4624     1
   4623   4627     1
   4623   4649     1
   4623   4645     1
   4623   4634     1
   4623   4635     1
   4624   4628     1
   4624   4629     1
   4624   4643     1
   4624   4644     1
   4625   4627     1
   4625   4649     1
   4625   4642     1
   4625   4637     1
   4625   4638     1
   4626   4627     1
   4626   4649     1
   4626   4642     1
   4626   4637     1
   4626   4638     1
   4627   4640     1
   4627   4641     1
   4628   4649     1
   4628   4639     1
   4628   4631     1
   4628   4632     1
   4629   4649     1
   4629   4639     1
   4629   4631     1
   4629   4632     1
   4630   4649     1
   4631   4648     1
   4631   4640     1
   4631   4641     1
   4632   4648     1
   4632   4640     1
   4632   4641     1
   4633   4649     1
   4634   8493     1
   4634   4646     1
   4634   4647     1
   4635   8493     1
   4635   4646     1
   4635   4647     1
   4636   4649     1
   4637   8470     1
   4637   4643     1
   4637   4644     1
   4638   8470     1
   4638   4643     1
   4638   4644     1
   4642   8469     1
   4643   8466     1
   4644   8466     1
   4645   8492     1
   4646   8489     1
   4647   8489     1
   4650   4664     1
   4650   4665     1
   4650   4667     1
   4650   4668     1
   4650   4661     1
   4650   4662     1
   4651   4655     1
   4651   4656     1
   4651   4658     1
   4651   4659     1
   4651   4676     1
   4651   4677     1
   4652   4654     1
   4652   4657     1
   4652   4679     1
   4652   4675     1
   4652   4664     1
   4652   4665     1
   4653   4654     1
   4653   4657     1
   4653   4679     1
   4653   4675     1
   4653   4664     1
   4653   4665     1
   4654   4658     1
   4654   4659     1
   4654   4673     1
   4654   4674     1
   4655   4657     1
   4655   4679     1
   4655   4672     1
   4655   4667     1
   4655   4668     1
   4656   4657     1
   4656   4679     1
   4656   4672     1
   4656   4667     1
   4656   4668     1
   4657   4670     1
   4657   4671     1
   4658   4679     1
   4658   4669     1
   4658   4661     1
   4658   4662     1
   4659   4679     1
   4659   4669     1
   4659   4661     1
   4659   4662     1
   4660   4679     1
   4661   4678     1
   4661   4670     1
   4661   4671     1
   4662   4678     1
   4662   4670     1
   4662   4671     1
   4663   4679     1
   4664   8539     1
   4664   4676     1
   4664   4677     1
   4665   8539     1
   4665   4676     1
   4665   4677     1
   4666   4679     1
   4667   8516     1
   4667   4673     1
   4667   4674     1
   4668   8516     1
   4668   4673     1
   4668   4674     1
   4672   8515     1
   4673   8512     1
   4674   8512     1
   4675   8538     1
   4676   8535     1
   4677   8535     1
   4680   4694     1
   4680   4695     1
   4680   4697     1
   4680   4698     1
   4680   4691     1
   4680   4692     1
   4681   4685     1
   4681   4686     1
   4681   4688     1
   4681   4689     1
   4681   4706     1
   4681   4707     1
   4682   4684     1
   4682   4687     1
   4682   4709     1
   4682   4705     1
   4682   4694     1
   4682   4695     1
   4683   4684     1
   4683   4687     1
   4683   4709     1
   4683   4705     1
   4683   4694     1
   4683   4695     1
   4684   4688     1
   4684   4689     1
   4684   4703     1
   4684   4704     1
   4685   4687     1
   4685   4709     1
   4685   4702     1
   4685   4697     1
   4685   4698     1
   4686   4687     1
   4686   4709     1
   4686   4702     1
   4686   4697     1
   4686   4698     1
   4687   4700     1
   4687   4701     1
   4688   4709     1
   4688   4699     1
   4688   4691     1
   4688   4692     1
   4689   4709     1
   4689   4699     1
   4689   4691     1
   4689   4692     1
   4690   4709     1
   4691   4708     1
   4691   4700     1
   4691   4701     1
   4692   4708     1
   4692   4700     1
   4692   4701     1
   4693   4709     1
   4694   8585     1
   4694   4706     1
   4694   4707     1
   4695   8585     1
   4695   4706     1
   4695   4707     1
   4696   4709     1
   4697   8562     1
   4697   4703     1
   4697   4704     1
   4698   8562     1
   4698   4703     1
   4698   4704     1
   4702   8561     1
   4703   8558     1
   4704   8558     1
   4705   8584     1
   4706   8581     1
   4707   8581     1
   4710   4724     1
   4710   4725     1
   4710   4727     1
   4710   4728     1
   4710   4721     1
   4710   4722     1
   4711   4715     1
   4711   4716     1
   4711   4718     1
   4711   4719     1
   4711   4736     1
   4711   4737     1
   4712   4714     1
   4712   4717     1
   4712   4739     1
   4712   4735     1
   4712   4724     1
   4712   4725     1
   4713   4714     1
   4713   4717     1
   4713   4739     1
   4713   4735     1
   4713   4724     1
   4713   4725     1
   4714   4718     1
   4714   4719     1
   4714   4733     1
   4714   4734     1
   4715   4717     1
   4715   4739     1
   4715   4732     1
   4715   4727     1
   4715   4728     1
   4716   4717     1
   4716   4739     1
   4716   4732     1
   4716   4727     1
   4716   4728     1
   4717   4730     1
   4717   4731     1
   4718   4739     1
   4718   4729     1
   4718   4721     1
   4718   4722     1
   4719   4739     1
   4719   4729     1
   4719   4721     1
   4719   4722     1
   4720   4739     1
   4721   4738     1
   4721   4730     1
   4721   4731     1
   4722   4738     1
   4722   4730     1
   4722   4731     1
   4723   4739     1
   4724   8631     1
   4724   4736     1
   4724   4737     1
   4725   8631     1
   4725   4736     1
   4725   4737     1
   4726   4739     1
   4727   8608     1
   4727   4733     1
   4727   4734     1
   4728   8608     1
   4728   4733     1
   4728   4734     1
   4732   8607     1
   4733   8604     1
   4734   8604     1
   4735   8630     1
   4736   8627     1
   4737   8627     1
   4740   4754     1
   4740   4755     1
   4740   4757     1
   4740   4758     1
   4740   4751     1
   4740   4752     1
   4741   4745     1
   4741   4746     1
   4741   4748     1
   4741   4749     1
   4741   4766     1
   4741   4767     1
   4742   4744     1
   4742   4747     1
   4742   4769     1
   4742   4765     1
   4742   4754     1
   4742   4755     1
   4743   4744     1
   4743   4747     1
   4743   4769     1
   4743   4765     1
   4743   4754     1
   4743   4755     1
   4744   4748     1
   4744   4749     1
   4744   4763     1
   4744   4764     1
   4745   4747     1
   4745   4769     1
   4745   4762     1
   4745   4757     1
   4745   4758     1
   4746   4747     1
   4746   4769     1
   4746   4762     1
   4746   4757     1
   4746   4758     1
   4747   4760     1
   4747   4761     1
   4748   4769     1
   4748   4759     1
   4748   4751     1
   4748   4752     1
   4749   4769     1
   4749   4759     1
   4749   4751     1
   4749   4752     1
   4750   4769     1
   4751   4768     1
   4751   4760     1
   4751   4761     1
   4752   4768     1
   4752   4760     1
   4752   4761     1
   4753   4769     1
   4754   8677     1
   4754   4766     1
   4754   4767     1
   4755   8677     1
   4755   4766     1
   4755   4767     1
   4756   4769     1
   4757   8654     1
   4757   4763     1
   4757   4764     1
   4758   8654     1
   4758   4763     1
   4758   4764     1
   4762   8653     1
   4763   8650     1
   4764   8650     1
   4765   8676     1
   4766   8673     1
   4767   8673     1
   4770   4784     1
   4770   4785     1
   4770   4787     1
   4770   4788     1
   4770   4781     1
   4770   4782     1
   4771   4775     1
   4771   4776     1
   4771   4778     1
   4771   4779     1
   4771   4796     1
   4771   4797     1
   4772   4774     1
   4772   4777     1
   4772   4799     1
   4772   4795     1
   4772   4784     1
   4772   4785     1
   4773   4774     1
   4773   4777     1
   4773   4799     1
   4773   4795     1
   4773   4784     1
   4773   4785     1
   4774   4778     1
   4774   4779     1
   4774   4793     1
   4774   4794     1
   4775   4777     1
   4775   4799     1
   4775   4792     1
   4775   4787     1
   4775   4788     1
   4776   4777     1
   4776   4799     1
   4776   4792     1
   4776   4787     1
   4776   4788     1
   4777   4790     1
   4777   4791     1
   4778   4799     1
   4778   4789     1
   4778   4781     1
   4778   4782     1
   4779   4799     1
   4779   4789     1
   4779   4781     1
   4779   4782     1
   4780   4799     1
   4781   4798     1
   4781   4790     1
   4781   4791     1
   4782   4798     1
   4782   4790     1
   4782   4791     1
   4783   4799     1
   4784   8723     1
   4784   4796     1
   4784   4797     1
   4785   8723     1
   4785   4796     1
   4785   4797     1
   4786   4799     1
   4787   8700     1
   4787   4793     1
   4787   4794     1
   4788   8700     1
   4788   4793     1
   4788   4794     1
   4792   8699     1
   4793   8696     1
   4794   8696     1
   4795   8722     1
   4796   8719     1
   4797   8719     1
   4800   4814     1
   4800   4815     1
   4800   4817     1
   4800   4818     1
   4800   4811     1
   4800   4812     1
   4801   4805     1
   4801   4806     1
   4801   4808     1
   4801   4809     1
   4801   4826     1
   4801   4827     1
   4802   4804     1
   4802   4807     1
   4802   4829     1
   4802   4825     1
   4802   4814     1
   4802   4815     1
   4803   4804     1
   4803   4807     1
   4803   4829     1
   4803   4825     1
   4803   4814     1
   4803   4815     1
   4804   4808     1
   4804   4809     1
   4804   4823     1
   4804   4824     1
   4805   4807     1
   4805   4829     1
   4805   4822     1
   4805   4817     1
   4805   4818     1
   4806   4807     1
   4806   4829     1
   4806   4822     1
   4806   4817     1
   4806   4818     1
   4807   4820     1
   4807   4821     1
   4808   4829     1
   4808   4819     1
   4808   4811     1
   4808   4812     1
   4809   4829     1
   4809   4819     1
   4809   4811     1
   4809   4812     1
   4810   4829     1
   4811   4828     1
   4811   4820     1
   4811   4821     1
   4812   4828     1
   4812   4820     1
   4812   4821     1
   4813   4829     1
   4814   8769     1
   4814   4826     1
   4814   4827     1
   4815   8769     1
   4815   4826     1
   4815   4827     1
   4816   4829     1
   4817   8746     1
   4817   4823     1
   4817   4824     1
   4818   8746     1
   4818   4823     1
   4818   4824     1
   4822   8745     1
   4823   8742     1
   4824   8742     1
   4825   8768     1
   4826   8765     1
   4827   8765     1
   4830   4844     1
   4830   4845     1
   4830   4847     1
   4830   4848     1
   4830   4841     1
   4830   4842     1
   4831   4835     1
   4831   4836     1
   4831   4838     1
   4831   4839     1
   4831   4856     1
   4831   4857     1
   4832   4834     1
   4832   4837     1
   4832   4859     1
   4832   4855     1
   4832   4844     1
   4832   4845     1
   4833   4834     1
   4833   4837     1
   4833   4859     1
   4833   4855     1
   4833   4844     1
   4833   4845     1
   4834   4838     1
   4834   4839     1
   4834   4853     1
   4834   4854     1
   4835   4837     1
   4835   4859     1
   4835   4852     1
   4835   4847     1
   4835   4848     1
   4836   4837     1
   4836   4859     1
   4836   4852     1
   4836   4847     1
   4836   4848     1
   4837   4850     1
   4837   4851     1
   4838   4859     1
   4838   4849     1
   4838   4841     1
   4838   4842     1
   4839   4859     1
   4839   4849     1
   4839   4841     1
   4839   4842     1
   4840   4859     1
   4841   4858     1
   4841   4850     1
   4841   4851     1
   4842   4858     1
   4842   4850     1
   4842   4851     1
   4843   4859     1
   4844   8815     1
   4844   4856     1
   4844   4857     1
   4845   8815     1
   4845   4856     1
   4845   4857     1
   4846   4859     1
   4847   8792     1
   4847   4853     1
   4847   4854     1
   4848   8792     1
   4848   4853     1
   4848   4854     1
   4852   8791     1
   4853   8788     1
   4854   8788     1
   4855   8814     1
   4856   8811     1
   4857   8811     1
   4860   4874     1
   4860   4875     1
   4860   4877     1
   4860   4878     1
   4860   4871     1
   4860   4872     1
   4861   4865     1
   4861   4866     1
   4861   4868     1
   4861   4869     1
   4861   4886     1
   4861   4887     1
   4862   4864     1
   4862   4867     1
   4862   4889     1
   4862   4885     1
   4862   4874     1
   4862   4875     1
   4863   4864     1
   4863   4867     1
   4863   4889     1
   4863   4885     1
   4863   4874     1
   4863   4875     1
   4864   4868     1
   4864   4869     1
   4864   4883     1
   4864   4884     1
   4865   4867     1
   4865   4889     1
   4865   4882     1
   4865   4877     1
   4865   4878     1
   4866   4867     1
   4866   4889     1
   4866   4882     1
   4866   4877     1
   4866   4878     1
   4867   4880     1
   4867   4881     1
   4868   4889     1
   4868   4879     1
   4868   4871     1
   4868   4872     1
   4869   4889     1
   4869   4879     1
   4869   4871     1
   4869   4872     1
   4870   4889     1
   4871   4888     1
   4871   4880     1
   4871   4881     1
   4872   4888     1
   4872   4880     1
   4872   4881     1
   4873   4889     1
   4874   8861     1
   4874   4886     1
   4874   4887     1
   4875   8861     1
   4875   4886     1
   4875   4887     1
   4876   4889     1
   4877   8838     1
   4877   4883     1
   4877   4884     1
   4878   8838     1
   4878   4883     1
   4878   4884     1
   4882   8837     1
   4883   8834     1
   4884   8834     1
   4885   8860     1
   4886   8857     1
   4887   8857     1
   4890   4904     1
   4890   4905     1
   4890   4907     1
   4890   4908     1
   4890   4901     1
   4890   4902     1
   4891   4895     1
   4891   4896     1
   4891   4898     1
   4891   4899     1
   4891   4916     1
   4891   4917     1
   4892   4894     1
   4892   4897     1
   4892   4919     1
   4892   4915     1
   4892   4904     1
   4892   4905     1
   4893   4894     1
   4893   4897     1
   4893   4919     1
   4893   4915     1
   4893   4904     1
   4893   4905     1
   4894   4898     1
   4894   4899     1
   4894   4913     1
   4894   4914     1
   4895   4897     1
   4895   4919     1
   4895   4912     1
   4895   4907     1
   4895   4908     1
   4896   4897     1
   4896   4919     1
   4896   4912     1
   4896   4907     1
   4896   4908     1
   4897   4910     1
   4897   4911     1
   4898   4919     1
   4898   4909     1
   4898   4901     1
   4898   4902     1
   4899   4919     1
   4899   4909     1
   4899   4901     1
   4899   4902     1
   4900   4919     1
   4901   4918     1
   4901   4910     1
   4901   4911     1
   4902   4918     1
   4902   4910     1
   4902   4911     1
   4903   4919     1
   4904   8907     1
   4904   4916     1
   4904   4917     1
   4905   8907     1
   4905   4916     1
   4905   4917     1
   4906   4919     1
   4907   8884     1
   4907   4913     1
   4907   4914     1
   4908   8884     1
   4908   4913     1
   4908   4914     1
   4912   8883     1
   4913   8880     1
   4914   8880     1
   4915   8906     1
   4916   8903     1
   4917   8903     1
   4920   4934     1
   4920   4935     1
   4920   4937     1
   4920   4938     1
   4920   4931     1
   4920   4932     1
   4921   4925     1
   4921   4926     1
   4921   4928     1
   4921   4929     1
   4921   4946     1
   4921   4947     1
   4922   4924     1
   4922   4927     1
   4922   4949     1
   4922   4945     1
   4922   4934     1
   4922   4935     1
   4923   4924     1
   4923   4927     1
   4923   4949     1
   4923   4945     1
   4923   4934     1
   4923   4935     1
   4924   4928     1
   4924   4929     1
   4924   4943     1
   4924   4944     1
   4925   4927     1
   4925   4949     1
   4925   4942     1
   4925   4937     1
   4925   4938     1
   4926   4927     1
   4926   4949     1
   4926   4942     1
   4926   4937     1
   4926   4938     1
   4927   4940     1
   4927   4941     1
   4928   4949     1
   4928   4939     1
   4928   4931     1
   4928   4932     1
   4929   4949     1
   4929   4939     1
   4929   4931     1
   4929   4932     1
   4930   4949     1
   4931   4948     1
   4931   4940     1
   4931   4941     1
   4932   4948     1
   4932   4940     1
   4932   4941     1
   4933   4949     1
   4934   8953     1
   4934   4946     1
   4934   4947     1
   4935   8953     1
   4935   4946     1
   4935   4947     1
   4936   4949     1
   4937   8930     1
   4937   4943     1
   4937   4944     1
   4938   8930     1
   4938   4943     1
   4938   4944     1
   4942   8929     1
   4943   8926     1
   4944   8926     1
   4945   8952     1
   4946   8949     1
   4947   8949     1
   4950   4964     1
   4950   4965     1
   4950   4967     1
   4950   4968     1
   4950   4961     1
   4950   4962     1
   4951   4955     1
   4951   4956     1
   4951   4958     1
   4951   4959     1
   4951   4976     1
   4951   4977     1
   4952   4954     1
   4952   4957     1
   4952   4979     1
   4952   4975     1
   4952   4964     1
   4952   4965     1
   4953   4954     1
   4953   4957     1
   4953   4979     1
   4953   4975     1
   4953   4964     1
   4953   4965     1
   4954   4958     1
   4954   4959     1
   4954   4973     1
   4954   4974     1
   4955   4957     1
   4955   4979     1
   4955   4972     1
   4955   4967     1
   4955   4968     1
   4956   4957     1
   4956   4979     1
   4956   4972     1
   4956   4967     1
   4956   4968     1
   4957   4970     1
   4957   4971     1
   4958   4979     1
   4958   4969     1
   4958   4961     1
   4958   4962     1
   4959   4979     1
   4959   4969     1
   4959   4961     1
   4959   4962     1
   4960   4979     1
   4961   4978     1
   4961   4970     1
   4961   4971     1
   4962   4978     1
   4962   4970     1
   4962   4971     1
   4963   4979     1
   4964   8999     1
   4964   4976     1
   4964   4977     1
   4965   8999     1
   4965   4976     1
   4965   4977     1
   4966   4979     1
   4967   8976     1
   4967   4973     1
   4967   4974     1
   4968   8976     1
   4968   4973     1
   4968   4974     1
   4972   8975     1
   4973   8972     1
   4974   8972     1
   4975   8998     1
   4976   8995     1
   4977   8995     1
   4980   4994     1
   4980   4995     1
   4980   4997     1
   4980   4998     1
   4980   4991     1
   4980   4992     1
   4981   4985     1
   4981   4986     1
   4981   4988     1
   4981   4989     1
   4981   5006     1
   4981   5007     1
   4982   4984     1
   4982   4987     1
   4982   5009     1
   4982   5005     1
   4982   4994     1
   4982   4995     1
   4983   4984     1
   4983   4987     1
   4983   5009     1
   4983   5005     1
   4983   4994     1
   4983   4995     1
   4984   4988     1
   4984   4989     1
   4984   5003     1
   4984   5004     1
   4985   4987     1
   4985   5009     1
   4985   5002     1
   4985   4997     1
   4985   4998     1
   4986   4987     1
   4986   5009     1
   4986   5002     1
   4986   4997     1
   4986   4998     1
   4987   5000     1
   4987   5001     1
   4988   5009     1
   4988   4999     1
   4988   4991     1
   4988   4992     1
   4989   5009     1
   4989   4999     1
   4989   4991     1
   4989   4992     1
   4990   5009     1
   4991   5008     1
   4991   5000     1
   4991   5001     1
   4992   5008     1
   4992   5000     1
   4992   5001     1
   4993   5009     1
   4994   9045     1
   4994   5006     1
   4994   5007     1
   4995   9045     1
   4995   5006     1
   4995   5007     1
   4996   5009     1
   4997   9022     1
   4997   5003     1
   4997   5004     1
   4998   9022     1
   4998   5003     1
   4998   5004     1
   5002   9021     1
   5003   9018     1
   5004   9018     1
   5005   9044     1
   5006   9041     1
   5007   9041     1
   5010   5024     1
   5010   5025     1
   5010   5027     1
   5010   5028     1
   5010   5021     1
   5010   5022     1
   5011   5015     1
   5011   5016     1
   5011   5018     1
   5011   5019     1
   5011   5036     1
   5011   5037     1
   5012   5014     1
   5012   5017     1
   5012   5039     1
   5012   5035     1
   5012   5024     1
   5012   5025     1
   5013   5014     1
   5013   5017     1
   5013   5039     1
   5013   5035     1
   5013   5024     1
   5013   5025     1
   5014   5018     1
   5014   5019     1
   5014   5033     1
   5014   5034     1
   5015   5017     1
   5015   5039     1
   5015   5032     1
   5015   5027     1
   5015   5028     1
   5016   5017     1
   5016   5039     1
   5016   5032     1
   5016   5027     1
   5016   5028     1
   5017   5030     1
   5017   5031     1
   5018   5039     1
   5018   5029     1
   5018   5021     1
   5018   5022     1
   5019   5039     1
   5019   5029     1
   5019   5021     1
   5019   5022     1
   5020   5039     1
   5021   5038     1
   5021   5030     1
   5021   5031     1
   5022   5038     1
   5022   5030     1
   5022   5031     1
   5023   5039     1
   5024   9091     1
   5024   5036     1
   5024   5037     1
   5025   9091     1
   5025   5036     1
   5025   5037     1
   5026   5039     1
   5027   9068     1
   5027   5033     1
   5027   5034     1
   5028   9068     1
   5028   5033     1
   5028   5034     1
   5032   9067     1
   5033   9064     1
   5034   9064     1
   5035   9090     1
   5036   9087     1
   5037   9087     1
   5040   5054     1
   5040   5055     1
   5040   5057     1
   5040   5058     1
   5040   5051     1
   5040   5052     1
   5041   5045     1
   5041   5046     1
   5041   5048     1
   5041   5049     1
   5041   5066     1
   5041   5067     1
   5042   5044     1
   5042   5047     1
   5042   5069     1
   5042   5065     1
   5042   5054     1
   5042   5055     1
   5043   5044     1
   5043   5047     1
   5043   5069     1
   5043   5065     1
   5043   5054     1
   5043   5055     1
   5044   5048     1
   5044   5049     1
   5044   5063     1
   5044   5064     1
   5045   5047     1
   5045   5069     1
   5045   5062     1
   5045   5057     1
   5045   5058     1
   5046   5047     1
   5046   5069     1
   5046   5062     1
   5046   5057     1
   5046   5058     1
   5047   5060     1
   5047   5061     1
   5048   5069     1
   5048   5059     1
   5048   5051     1
   5048   5052     1
   5049   5069     1
   5049   5059     1
   5049   5051     1
   5049   5052     1
   5050   5069     1
   5051   5068     1
   5051   5060     1
   5051   5061     1
   5052   5068     1
   5052   5060     1
   5052   5061     1
   5053   5069     1
   5054   9137     1
   5054   5066     1
   5054   5067     1
   5055   9137     1
   5055   5066     1
   5055   5067     1
   5056   5069     1
   5057   9114     1
   5057   5063     1
   5057   5064     1
   5058   9114     1
   5058   5063     1
   5058   5064     1
   5062   9113     1
   5063   9110     1
   5064   9110     1
   5065   9136     1
   5066   9133     1
   5067   9133     1
   5070   5084     1
   5070   5085     1
   5070   5087     1
   5070   5088     1
   5070   5081     1
   5070   5082     1
   5071   5075     1
   5071   5076     1
   5071   5078     1
   5071   5079     1
   5071   5096     1
   5071   5097     1
   5072   5074     1
   5072   5077     1
   5072   5099     1
   5072   5095     1
   5072   5084     1
   5072   5085     1
   5073   5074     1
   5073   5077     1
   5073   5099     1
   5073   5095     1
   5073   5084     1
   5073   5085     1
   5074   5078     1
   5074   5079     1
   5074   5093     1
   5074   5094     1
   5075   5077     1
   5075   5099     1
   5075   5092     1
   5075   5087     1
   5075   5088     1
   5076   5077     1
   5076   5099     1
   5076   5092     1
   5076   5087     1
   5076   5088     1
   5077   5090     1
   5077   5091     1
   5078   5099     1
   5078   5089     1
   5078   5081     1
   5078   5082     1
   5079   5099     1
   5079   5089     1
   5079   5081     1
   5079   5082     1
   5080   5099     1
   5081   5098     1
   5081   5090     1
   5081   5091     1
   5082   5098     1
   5082   5090     1
   5082   5091     1
   5083   5099     1
   5084   9183     1
   5084   5096     1
   5084   5097     1
   5085   9183     1
   5085   5096     1
   5085   5097     1
   5086   5099     1
   5087   9160     1
   5087   5093     1
   5087   5094     1
   5088   9160     1
   5088   5093     1
   5088   5094     1
   5092   9159     1
   5093   9156     1
   5094   9156     1
   5095   9182     1
   5096   9179     1
   5097   9179     1
   5100   5114     1
   5100   5115     1
   5100   5117     1
   5100   5118     1
   5100   5111     1
   5100   5112     1
   5101   5105     1
   5101   5106     1
   5101   5108     1
   5101   5109     1
   5101   5126     1
   5101   5127     1
   5102   5104     1
   5102   5107     1
   5102   5129     1
   5102   5125     1
   5102   5114     1
   5102   5115     1
   5103   5104     1
   5103   5107     1
   5103   5129     1
   5103   5125     1
   5103   5114     1
   5103   5115     1
   5104   5108     1
   5104   5109     1
   5104   5123     1
   5104   5124     1
   5105   5107     1
   5105   5129     1
   5105   5122     1
   5105   5117     1
   5105   5118     1
   5106   5107     1
   5106   5129     1
   5106   5122     1
   5106   5117     1
   5106   5118     1
   5107   5120     1
   5107   5121     1
   5108   5129     1
   5108   5119     1
   5108   5111     1
   5108   5112     1
   5109   5129     1
   5109   5119     1
   5109   5111     1
   5109   5112     1
   5110   5129     1
   5111   5128     1
   5111   5120     1
   5111   5121     1
   5112   5128     1
   5112   5120     1
   5112   5121     1
   5113   5129     1
   5114   9229     1
   5114   5126     1
   5114   5127     1
   5115   9229     1
   5115   5126     1
   5115   5127     1
   5116   5129     1
   5117   9206     1
   5117   5123     1
   5117   5124     1
   5118   9206     1
   5118   5123     1
   5118   5124     1
   5122   9205     1
   5123   9202     1
   5124   9202     1
   5125   9228     1
   5126   9225     1
   5127   9225     1
   5130   5144     1
   5130   5145     1
   5130   5147     1
   5130   5148     1
   5130   5141     1
   5130   5142     1
   5131   5135     1
   5131   5136     1
   5131   5138     1
   5131   5139     1
   5131   5156     1
   5131   5157     1
   5132   5134     1
   5132   5137     1
   5132   5159     1
   5132   5155     1
   5132   5144     1
   5132   5145     1
   5133   5134     1
   5133   5137     1
   5133   5159     1
   5133   5155     1
   5133   5144     1
   5133   5145     1
   5134   5138     1
   5134   5139     1
   5134   5153     1
   5134   5154     1
   5135   5137     1
   5135   5159     1
   5135   5152     1
   5135   5147     1
   5135   5148     1
   5136   5137     1
   5136   5159     1
   5136   5152     1
   5136   5147     1
   5136   5148     1
   5137   5150     1
   5137   5151     1
   5138   5159     1
   5138   5149     1
   5138   5141     1
   5138   5142     1
   5139   5159     1
   5139   5149     1
   5139   5141     1
   5139   5142     1
   5140   5159     1
   5141   5158     1
   5141   5150     1
   5141   5151     1
   5142   5158     1
   5142   5150     1
   5142   5151     1
   5143   5159     1
   5144   9275     1
   5144   5156     1
   5144   5157     1
   5145   9275     1
   5145   5156     1
   5145   5157     1
   5146   5159     1
   5147   9252     1
   5147   5153     1
   5147   5154     1
   5148   9252     1
   5148   5153     1
   5148   5154     1
   5152   9251     1
   5153   9248     1
   5154   9248     1
   5155   9274     1
   5156   9271     1
   5157   9271     1
   5160   5174     1
   5160   5175     1
   5160   5177     1
   5160   5178     1
   5160   5171     1
   5160   5172     1
   5161   5165     1
   5161   5166     1
   5161   5168     1
   5161   5169     1
   5161   5186     1
   5161   5187     1
   5162   5164     1
   5162   5167     1
   5162   5189     1
   5162   5185     1
   5162   5174     1
   5162   5175     1
   5163   5164     1
   5163   5167     1
   5163   5189     1
   5163   5185     1
   5163   5174     1
   5163   5175     1
   5164   5168     1
   5164   5169     1
   5164   5183     1
   5164   5184     1
   5165   5167     1
   5165   5189     1
   5165   5182     1
   5165   5177     1
   5165   5178     1
   5166   5167     1
   5166   5189     1
   5166   5182     1
   5166   5177     1
   5166   5178     1
   5167   5180     1
   5167   5181     1
   5168   5189     1
   5168   5179     1
   5168   5171     1
   5168   5172     1
   5169   5189     1
   5169   5179     1
   5169   5171     1
   5169   5172     1
   5170   5189     1
   5171   5188     1
   5171   5180     1
   5171   5181     1
   5172   5188     1
   5172   5180     1
   5172   5181     1
   5173   5189     1
   5174   9321     1
   5174   5186     1
   5174   5187     1
   5175   9321     1
   5175   5186     1
   5175   5187     1
   5176   5189     1
   5177   9298     1
   5177   5183     1
   5177   5184     1
   5178   9298     1
   5178   5183     1
   5178   5184     1
   5182   9297     1
   5183   9294     1
   5184   9294     1
   5185   9320     1
   5186   9317     1
   5187   9317     1
   5190   5204     1
   5190   5205     1
   5190   5207     1
   5190   5208     1
   5190   5201     1
   5190   5202     1
   5191   5195     1
   5191   5196     1
   5191   5198     1
   5191   5199     1
   5191   5216     1
   5191   5217     1
   5192   5194     1
   5192   5197     1
   5192   5219     1
   5192   5215     1
   5192   5204     1
   5192   5205     1
   5193   5194     1
   5193   5197     1
   5193   5219     1
   5193   5215     1
   5193   5204     1
   5193   5205     1
   5194   5198     1
   5194   5199     1
   5194   5213     1
   5194   5214     1
   5195   5197     1
   5195   5219     1
   5195   5212     1
   5195   5207     1
   5195   5208     1
   5196   5197     1
   5196   5219     1
   5196   5212     1
   5196   5207     1
   5196   5208     1
   5197   5210     1
   5197   5211     1
   5198   5219     1
   5198   5209     1
   5198   5201     1
   5198   5202     1
   5199   5219     1
   5199   5209     1
   5199   5201     1
   5199   5202     1
   5200   5219     1
   5201   5218     1
   5201   5210     1
   5201   5211     1
   5202   5218     1
   5202   5210     1
   5202   5211     1
   5203   5219     1
   5204   9367     1
   5204   5216     1
   5204   5217     1
   5205   9367     1
   5205   5216     1
   5205   5217     1
   5206   5219     1
   5207   9344     1
   5207   5213     1
   5207   5214     1
   5208   9344     1
   5208   5213     1
   5208   5214     1
   5212   9343     1
   5213   9340     1
   5214   9340     1
   5215   9366     1
   5216   9363     1
   5217   9363     1
   5220   5234     1
   5220   5235     1
   5220   5237     1
   5220   5238     1
   5220   5231     1
   5220   5232     1
   5221   5225     1
   5221   5226     1
   5221   5228     1
   5221   5229     1
   5221   5246     1
   5221   5247     1
   5222   5224     1
   5222   5227     1
   5222   5249     1
   5222   5245     1
   5222   5234     1
   5222   5235     1
   5223   5224     1
   5223   5227     1
   5223   5249     1
   5223   5245     1
   5223   5234     1
   5223   5235     1
   5224   5228     1
   5224   5229     1
   5224   5243     1
   5224   5244     1
   5225   5227     1
   5225   5249     1
   5225   5242     1
   5225   5237     1
   5225   5238     1
   5226   5227     1
   5226   5249     1
   5226   5242     1
   5226   5237     1
   5226   5238     1
   5227   5240     1
   5227   5241     1
   5228   5249     1
   5228   5239     1
   5228   5231     1
   5228   5232     1
   5229   5249     1
   5229   5239     1
   5229   5231     1
   5229   5232     1
   5230   5249     1
   5231   5248     1
   5231   5240     1
   5231   5241     1
   5232   5248     1
   5232   5240     1
   5232   5241     1
   5233   5249     1
   5234   9413     1
   5234   5246     1
   5234   5247     1
   5235   9413     1
   5235   5246     1
   5235   5247     1
   5236   5249     1
   5237   9390     1
   5237   5243     1
   5237   5244     1
   5238   9390     1
   5238   5243     1
   5238   5244     1
   5242   9389     1
   5243   9386     1
   5244   9386     1
   5245   9412     1
   5246   9409     1
   5247   9409     1
   5250   5264     1
   5250   5265     1
   5250   5267     1
   5250   5268     1
   5250   5261     1
   5250   5262     1
   5251   5255     1
   5251   5256     1
   5251   5258     1
   5251   5259     1
   5251   5276     1
   5251   5277     1
   5252   5254     1
   5252   5257     1
   5252   5279     1
   5252   5275     1
   5252   5264     1
   5252   5265     1
   5253   5254     1
   5253   5257     1
   5253   5279     1
   5253   5275     1
   5253   5264     1
   5253   5265     1
   5254   5258     1
   5254   5259     1
   5254   5273     1
   5254   5274     1
   5255   5257     1
   5255   5279     1
   5255   5272     1
   5255   5267     1
   5255   5268     1
   5256   5257     1
   5256   5279     1
   5256   5272     1
   5256   5267     1
   5256   5268     1
   5257   5270     1
   5257   5271     1
   5258   5279     1
   5258   5269     1
   5258   5261     1
   5258   5262     1
   5259   5279     1
   5259   5269     1
   5259   5261     1
   5259   5262     1
   5260   5279     1
   5261   5278     1
   5261   5270     1
   5261   5271     1
   5262   5278     1
   5262   5270     1
   5262   5271     1
   5263   5279     1
   5264   9459     1
   5264   5276     1
   5264   5277     1
   5265   9459     1
   5265   5276     1
   5265   5277     1
   5266   5279     1
   5267   9436     1
   5267   5273     1
   5267   5274     1
   5268   9436     1
   5268   5273     1
   5268   5274     1
   5272   9435     1
   5273   9432     1
   5274   9432     1
   5275   9458     1
   5276   9455     1
   5277   9455     1
   5280   5294     1
   5280   5295     1
   5280   5297     1
   5280   5298     1
   5280   5291     1
   5280   5292     1
   5281   5285     1
   5281   5286     1
   5281   5288     1
   5281   5289     1
   5281   5306     1
   5281   5307     1
   5282   5284     1
   5282   5287     1
   5282   5309     1
   5282   5305     1
   5282   5294     1
   5282   5295     1
   5283   5284     1
   5283   5287     1
   5283   5309     1
   5283   5305     1
   5283   5294     1
   5283   5295     1
   5284   5288     1
   5284   5289     1
   5284   5303     1
   5284   5304     1
   5285   5287     1
   5285   5309     1
   5285   5302     1
   5285   5297     1
   5285   5298     1
   5286   5287     1
   5286   5309     1
   5286   5302     1
   5286   5297     1
   5286   5298     1
   5287   5300     1
   5287   5301     1
   5288   5309     1
   5288   5299     1
   5288   5291     1
   5288   5292     1
   5289   5309     1
   5289   5299     1
   5289   5291     1
   5289   5292     1
   5290   5309     1
   5291   5308     1
   5291   5300     1
   5291   5301     1
   5292   5308     1
   5292   5300     1
   5292   5301     1
   5293   5309     1
   5294   9505     1
   5294   5306     1
   5294   5307     1
   5295   9505     1
   5295   5306     1
   5295   5307     1
   5296   5309     1
   5297   9482     1
   5297   5303     1
   5297   5304     1
   5298   9482     1
   5298   5303     1
   5298   5304     1
   5302   9481     1
   5303   9478     1
   5304   9478     1
   5305   9504     1
   5306   9501     1
   5307   9501     1
   5310   5324     1
   5310   5325     1
   5310   5327     1
   5310   5328     1
   5310   5321     1
   5310   5322     1
   5311   5315     1
   5311   5316     1
   5311   5318     1
   5311   5319     1
   5311   5336     1
   5311   5337     1
   5312   5314     1
   5312   5317     1
   5312   5339     1
   5312   5335     1
   5312   5324     1
   5312   5325     1
   5313   5314     1
   5313   5317     1
   5313   5339     1
   5313   5335     1
   5313   5324     1
   5313   5325     1
   5314   5318     1
   5314   5319     1
   5314   5333     1
   5314   5334     1
   5315   5317     1
   5315   5339     1
   5315   5332     1
   5315   5327     1
   5315   5328     1
   5316   5317     1
   5316   5339     1
   5316   5332     1
   5316   5327     1
   5316   5328     1
   5317   5330     1
   5317   5331     1
   5318   5339     1
   5318   5329     1
   5318   5321     1
   5318   5322     1
   5319   5339     1
   5319   5329     1
   5319   5321     1
   5319   5322     1
   5320   5339     1
   5321   5338     1
   5321   5330     1
   5321   5331     1
   5322   5338     1
   5322   5330     1
   5322   5331     1
   5323   5339     1
   5324   9551     1
   5324   5336     1
   5324   5337     1
   5325   9551     1
   5325   5336     1
   5325   5337     1
   5326   5339     1
   5327   9528     1
   5327   5333     1
   5327   5334     1
   5328   9528     1
   5328   5333     1
   5328   5334     1
   5332   9527     1
   5333   9524     1
   5334   9524     1
   5335   9550     1
   5336   9547     1
   5337   9547     1
   5340   5354     1
   5340   5355     1
   5340   5357     1
   5340   5358     1
   5340   5351     1
   5340   5352     1
   5341   5345     1
   5341   5346     1
   5341   5348     1
   5341   5349     1
   5341   5366     1
   5341   5367     1
   5342   5344     1
   5342   5347     1
   5342   5369     1
   5342   5365     1
   5342   5354     1
   5342   5355     1
   5343   5344     1
   5343   5347     1
   5343   5369     1
   5343   5365     1
   5343   5354     1
   5343   5355     1
   5344   5348     1
   5344   5349     1
   5344   5363     1
   5344   5364     1
   5345   5347     1
   5345   5369     1
   5345   5362     1
   5345   5357     1
   5345   5358     1
   5346   5347     1
   5346   5369     1
   5346   5362     1
   5346   5357     1
   5346   5358     1
   5347   5360     1
   5347   5361     1
   5348   5369     1
   5348   5359     1
   5348   5351     1
   5348   5352     1
   5349   5369     1
   5349   5359     1
   5349   5351     1
   5349   5352     1
   5350   5369     1
   5351   5368     1
   5351   5360     1
   5351   5361     1
   5352   5368     1
   5352   5360     1
   5352   5361     1
   5353   5369     1
   5354   9597     1
   5354   5366     1
   5354   5367     1
   5355   9597     1
   5355   5366     1
   5355   5367     1
   5356   5369     1
   5357   9574     1
   5357   5363     1
   5357   5364     1
   5358   9574     1
   5358   5363     1
   5358   5364     1
   5362   9573     1
   5363   9570     1
   5364   9570     1
   5365   9596     1
   5366   9593     1
   5367   9593     1
   5370   5384     1
   5370   5385     1
   5370   5387     1
   5370   5388     1
   5370   5381     1
   5370   5382     1
   5371   5375     1
   5371   5376     1
   5371   5378     1
   5371   5379     1
   5371   5396     1
   5371   5397     1
   5372   5374     1
   5372   5377     1
   5372   5399     1
   5372   5395     1
   5372   5384     1
   5372   5385     1
   5373   5374     1
   5373   5377     1
   5373   5399     1
   5373   5395     1
   5373   5384     1
   5373   5385     1
   5374   5378     1
   5374   5379     1
   5374   5393     1
   5374   5394     1
   5375   5377     1
   5375   5399     1
   5375   5392     1
   5375   5387     1
   5375   5388     1
   5376   5377     1
   5376   5399     1
   5376   5392     1
   5376   5387     1
   5376   5388     1
   5377   5390     1
   5377   5391     1
   5378   5399     1
   5378   5389     1
   5378   5381     1
   5378   5382     1
   5379   5399     1
   5379   5389     1
   5379   5381     1
   5379   5382     1
   5380   5399     1
   5381   5398     1
   5381   5390     1
   5381   5391     1
   5382   5398     1
   5382   5390     1
   5382   5391     1
   5383   5399     1
   5384   9643     1
   5384   5396     1
   5384   5397     1
   5385   9643     1
   5385   5396     1
   5385   5397     1
   5386   5399     1
   5387   9620     1
   5387   5393     1
   5387   5394     1
   5388   9620     1
   5388   5393     1
   5388   5394     1
   5392   9619     1
   5393   9616     1
   5394   9616     1
   5395   9642     1
   5396   9639     1
   5397   9639     1
   5400   5414     1
   5400   5415     1
   5400   5417     1
   5400   5418     1
   5400   5411     1
   5400   5412     1
   5401   5405     1
   5401   5406     1
   5401   5408     1
   5401   5409     1
   5401   5426     1
   5401   5427     1
   5402   5404     1
   5402   5407     1
   5402   5429     1
   5402   5425     1
   5402   5414     1
   5402   5415     1
   5403   5404     1
   5403   5407     1
   5403   5429     1
   5403   5425     1
   5403   5414     1
   5403   5415     1
   5404   5408     1
   5404   5409     1
   5404   5423     1
   5404   5424     1
   5405   5407     1
   5405   5429     1
   5405   5422     1
   5405   5417     1
   5405   5418     1
   5406   5407     1
   5406   5429     1
   5406   5422     1
   5406   5417     1
   5406   5418     1
   5407   5420     1
   5407   5421     1
   5408   5429     1
   5408   5419     1
   5408   5411     1
   5408   5412     1
   5409   5429     1
   5409   5419     1
   5409   5411     1
   5409   5412     1
   5410   5429     1
   5411   5428     1
   5411   5420     1
   5411   5421     1
   5412   5428     1
   5412   5420     1
   5412   5421     1
   5413   5429     1
   5414   9689     1
   5414   5426     1
   5414   5427     1
   5415   9689     1
   5415   5426     1
   5415   5427     1
   5416   5429     1
   5417   9666     1
   5417   5423     1
   5417   5424     1
   5418   9666     1
   5418   5423     1
   5418   5424     1
   5422   9665     1
   5423   9662     1
   5424   9662     1
   5425   9688     1
   5426   9685     1
   5427   9685     1
   5430   5444     1
   5430   5445     1
   5430   5447     1
   5430   5448     1
   5430   5441     1
   5430   5442     1
   5431   5435     1
   5431   5436     1
   5431   5438     1
   5431   5439     1
   5431   5456     1
   5431   5457     1
   5432   5434     1
   5432   5437     1
   5432   5459     1
   5432   5455     1
   5432   5444     1
   5432   5445     1
   5433   5434     1
   5433   5437     1
   5433   5459     1
   5433   5455     1
   5433   5444     1
   5433   5445     1
   5434   5438     1
   5434   5439     1
   5434   5453     1
   5434   5454     1
   5435   5437     1
   5435   5459     1
   5435   5452     1
   5435   5447     1
   5435   5448     1
   5436   5437     1
   5436   5459     1
   5436   5452     1
   5436   5447     1
   5436   5448     1
   5437   5450     1
   5437   5451     1
   5438   5459     1
   5438   5449     1
   5438   5441     1
   5438   5442     1
   5439   5459     1
   5439   5449     1
   5439   5441     1
   5439   5442     1
   5440   5459     1
   5441   5458     1
   5441   5450     1
   5441   5451     1
   5442   5458     1
   5442   5450     1
   5442   5451     1
   5443   5459     1
   5444   9735     1
   5444   5456     1
   5444   5457     1
   5445   9735     1
   5445   5456     1
   5445   5457     1
   5446   5459     1
   5447   9712     1
   5447   5453     1
   5447   5454     1
   5448   9712     1
   5448   5453     1
   5448   5454     1
   5452   9711     1
   5453   9708     1
   5454   9708     1
   5455   9734     1
   5456   9731     1
   5457   9731     1
   5460   5474     1
   5460   5475     1
   5460   5477     1
   5460   5478     1
   5460   5471     1
   5460   5472     1
   5461   5465     1
   5461   5466     1
   5461   5468     1
   5461   5469     1
   5461   5486     1
   5461   5487     1
   5462   5464     1
   5462   5467     1
   5462   5489     1
   5462   5485     1
   5462   5474     1
   5462   5475     1
   5463   5464     1
   5463   5467     1
   5463   5489     1
   5463   5485     1
   5463   5474     1
   5463   5475     1
   5464   5468     1
   5464   5469     1
   5464   5483     1
   5464   5484     1
   5465   5467     1
   5465   5489     1
   5465   5482     1
   5465   5477     1
   5465   5478     1
   5466   5467     1
   5466   5489     1
   5466   5482     1
   5466   5477     1
   5466   5478     1
   5467   5480     1
   5467   5481     1
   5468   5489     1
   5468   5479     1
   5468   5471     1
   5468   5472     1
   5469   5489     1
   5469   5479     1
   5469   5471     1
   5469   5472     1
   5470   5489     1
   5471   5488     1
   5471   5480     1
   5471   5481     1
   5472   5488     1
   5472   5480     1
   5472   5481     1
   5473   5489     1
   5474   9781     1
   5474   5486     1
   5474   5487     1
   5475   9781     1
   5475   5486     1
   5475   5487     1
   5476   5489     1
   5477   9758     1
   5477   5483     1
   5477   5484     1
   5478   9758     1
   5478   5483     1
   5478   5484     1
   5482   9757     1
   5483   9754     1
   5484   9754     1
   5485   9780     1
   5486   9777     1
   5487   9777     1
   5490   5504     1
   5490   5505     1
   5490   5507     1
   5490   5508     1
   5490   5501     1
   5490   5502     1
   5491   5495     1
   5491   5496     1
   5491   5498     1
   5491   5499     1
   5491   5516     1
   5491   5517     1
   5492   5494     1
   5492   5497     1
   5492   5519     1
   5492   5515     1
   5492   5504     1
   5492   5505     1
   5493   5494     1
   5493   5497     1
   5493   5519     1
   5493   5515     1
   5493   5504     1
   5493   5505     1
   5494   5498     1
   5494   5499     1
   5494   5513     1
   5494   5514     1
   5495   5497     1
   5495   5519     1
   5495   5512     1
   5495   5507     1
   5495   5508     1
   5496   5497     1
   5496   5519     1
   5496   5512     1
   5496   5507     1
   5496   5508     1
   5497   5510     1
   5497   5511     1
   5498   5519     1
   5498   5509     1
   5498   5501     1
   5498   5502     1
   5499   5519     1
   5499   5509     1
   5499   5501     1
   5499   5502     1
   5500   5519     1
   5501   5518     1
   5501   5510     1
   5501   5511     1
   5502   5518     1
   5502   5510     1
   5502   5511     1
   5503   5519     1
   5504   9827     1
   5504   5516     1
   5504   5517     1
   5505   9827     1
   5505   5516     1
   5505   5517     1
   5506   5519     1
   5507   9804     1
   5507   5513     1
   5507   5514     1
   5508   9804     1
   5508   5513     1
   5508   5514     1
   5512   9803     1
   5513   9800     1
   5514   9800     1
   5515   9826     1
   5516   9823     1
   5517   9823     1
   5520   5534     1
   5520   5535     1
   5520   5537     1
   5520   5538     1
   5520   5531     1
   5520   5532     1
   5521   5525     1
   5521   5526     1
   5521   5528     1
   5521   5529     1
   5521   5546     1
   5521   5547     1
   5522   5524     1
   5522   5527     1
   5522   5549     1
   5522   5545     1
   5522   5534     1
   5522   5535     1
   5523   5524     1
   5523   5527     1
   5523   5549     1
   5523   5545     1
   5523   5534     1
   5523   5535     1
   5524   5528     1
   5524   5529     1
   5524   5543     1
   5524   5544     1
   5525   5527     1
   5525   5549     1
   5525   5542     1
   5525   5537     1
   5525   5538     1
   5526   5527     1
   5526   5549     1
   5526   5542     1
   5526   5537     1
   5526   5538     1
   5527   5540     1
   5527   5541     1
   5528   5549     1
   5528   5539     1
   5528   5531     1
   5528   5532     1
   5529   5549     1
   5529   5539     1
   5529   5531     1
   5529   5532     1
   5530   5549     1
   5531   5548     1
   5531   5540     1
   5531   5541     1
   5532   5548     1
   5532   5540     1
   5532   5541     1
   5533   5549     1
   5534   9873     1
   5534   5546     1
   5534   5547     1
   5535   9873     1
   5535   5546     1
   5535   5547     1
   5536   5549     1
   5537   9850     1
   5537   5543     1
   5537   5544     1
   5538   9850     1
   5538   5543     1
   5538   5544     1
   5542   9849     1
   5543   9846     1
   5544   9846     1
   5545   9872     1
   5546   9869     1
   5547   9869     1
   5550   5564     1
   5550   5565     1
   5550   5567     1
   5550   5568     1
   5550   5561     1
   5550   5562     1
   5551   5555     1
   5551   5556     1
   5551   5558     1
   5551   5559     1
   5551   5576     1
   5551   5577     1
   5552   5554     1
   5552   5557     1
   5552   5579     1
   5552   5575     1
   5552   5564     1
   5552   5565     1
   5553   5554     1
   5553   5557     1
   5553   5579     1
   5553   5575     1
   5553   5564     1
   5553   5565     1
   5554   5558     1
   5554   5559     1
   5554   5573     1
   5554   5574     1
   5555   5557     1
   5555   5579     1
   5555   5572     1
   5555   5567     1
   5555   5568     1
   5556   5557     1
   5556   5579     1
   5556   5572     1
   5556   5567     1
   5556   5568     1
   5557   5570     1
   5557   5571     1
   5558   5579     1
   5558   5569     1
   5558   5561     1
   5558   5562     1
   5559   5579     1
   5559   5569     1
   5559   5561     1
   5559   5562     1
   5560   5579     1
   5561   5578     1
   5561   5570     1
   5561   5571     1
   5562   5578     1
   5562   5570     1
   5562   5571     1
   5563   5579     1
   5564   9919     1
   5564   5576     1
   5564   5577     1
   5565   9919     1
   5565   5576     1
   5565   5577     1
   5566   5579     1
   5567   9896     1
   5567   5573     1
   5567   5574     1
   5568   9896     1
   5568   5573     1
   5568   5574     1
   5572   9895     1
   5573   9892     1
   5574   9892     1
   5575   9918     1
   5576   9915     1
   5577   9915     1
   5580   5594     1
   5580   5595     1
   5580   5597     1
   5580   5598     1
   5580   5591     1
   5580   5592     1
   5581   5585     1
   5581   5586     1
   5581   5588     1
   5581   5589     1
   5581   5606     1
   5581   5607     1
   5582   5584     1
   5582   5587     1
   5582   5609     1
   5582   5605     1
   5582   5594     1
   5582   5595     1
   5583   5584     1
   5583   5587     1
   5583   5609     1
   5583   5605     1
   5583   5594     1
   5583   5595     1
   5584   5588     1
   5584   5589     1
   5584   5603     1
   5584   5604     1
   5585   5587     1
   5585   5609     1
   5585   5602     1
   5585   5597     1
   5585   5598     1
   5586   5587     1
   5586   5609     1
   5586   5602     1
   5586   5597     1
   5586   5598     1
   5587   5600     1
   5587   5601     1
   5588   5609     1
   5588   5599     1
   5588   5591     1
   5588   5592     1
   5589   5609     1
   5589   5599     1
   5589   5591     1
   5589   5592     1
   5590   5609     1
   5591   5608     1
   5591   5600     1
   5591   5601     1
   5592   5608     1
   5592   5600     1
   5592   5601     1
   5593   5609     1
   5594   9965     1
   5594   5606     1
   5594   5607     1
   5595   9965     1
   5595   5606     1
   5595   5607     1
   5596   5609     1
   5597   9942     1
   5597   5603     1
   5597   5604     1
   5598   9942     1
   5598   5603     1
   5598   5604     1
   5602   9941     1
   5603   9938     1
   5604   9938     1
   5605   9964     1
   5606   9961     1
   5607   9961     1
   5610   5624     1
   5610   5625     1
   5610   5627     1
   5610   5628     1
   5610   5621     1
   5610   5622     1
   5611   5615     1
   5611   5616     1
   5611   5618     1
   5611   5619     1
   5611   5636     1
   5611   5637     1
   5612   5614     1
   5612   5617     1
   5612   5639     1
   5612   5635     1
   5612   5624     1
   5612   5625     1
   5613   5614     1
   5613   5617     1
   5613   5639     1
   5613   5635     1
   5613   5624     1
   5613   5625     1
   5614   5618     1
   5614   5619     1
   5614   5633     1
   5614   5634     1
   5615   5617     1
   5615   5639     1
   5615   5632     1
   5615   5627     1
   5615   5628     1
   5616   5617     1
   5616   5639     1
   5616   5632     1
   5616   5627     1
   5616   5628     1
   5617   5630     1
   5617   5631     1
   5618   5639     1
   5618   5629     1
   5618   5621     1
   5618   5622     1
   5619   5639     1
   5619   5629     1
   5619   5621     1
   5619   5622     1
   5620   5639     1
   5621   5638     1
   5621   5630     1
   5621   5631     1
   5622   5638     1
   5622   5630     1
   5622   5631     1
   5623   5639     1
   5624  10011     1
   5624   5636     1
   5624   5637     1
   5625  10011     1
   5625   5636     1
   5625   5637     1
   5626   5639     1
   5627   9988     1
   5627   5633     1
   5627   5634     1
   5628   9988     1
   5628   5633     1
   5628   5634     1
   5632   9987     1
   5633   9984     1
   5634   9984     1
   5635  10010     1
   5636  10007     1
   5637  10007     1
   5640   5654     1
   5640   5655     1
   5640   5657     1
   5640   5658     1
   5640   5651     1
   5640   5652     1
   5641   5645     1
   5641   5646     1
   5641   5648     1
   5641   5649     1
   5641   5666     1
   5641   5667     1
   5642   5644     1
   5642   5647     1
   5642   5669     1
   5642   5665     1
   5642   5654     1
   5642   5655     1
   5643   5644     1
   5643   5647     1
   5643   5669     1
   5643   5665     1
   5643   5654     1
   5643   5655     1
   5644   5648     1
   5644   5649     1
   5644   5663     1
   5644   5664     1
   5645   5647     1
   5645   5669     1
   5645   5662     1
   5645   5657     1
   5645   5658     1
   5646   5647     1
   5646   5669     1
   5646   5662     1
   5646   5657     1
   5646   5658     1
   5647   5660     1
   5647   5661     1
   5648   5669     1
   5648   5659     1
   5648   5651     1
   5648   5652     1
   5649   5669     1
   5649   5659     1
   5649   5651     1
   5649   5652     1
   5650   5669     1
   5651   5668     1
   5651   5660     1
   5651   5661     1
   5652   5668     1
   5652   5660     1
   5652   5661     1
   5653   5669     1
   5654  10057     1
   5654   5666     1
   5654   5667     1
   5655  10057     1
   5655   5666     1
   5655   5667     1
   5656   5669     1
   5657  10034     1
   5657   5663     1
   5657   5664     1
   5658  10034     1
   5658   5663     1
   5658   5664     1
   5662  10033     1
   5663  10030     1
   5664  10030     1
   5665  10056     1
   5666  10053     1
   5667  10053     1
   5670   5684     1
   5670   5685     1
   5670   5687     1
   5670   5688     1
   5670   5681     1
   5670   5682     1
   5671   5675     1
   5671   5676     1
   5671   5678     1
   5671   5679     1
   5671   5696     1
   5671   5697     1
   5672   5674     1
   5672   5677     1
   5672   5699     1
   5672   5695     1
   5672   5684     1
   5672   5685     1
   5673   5674     1
   5673   5677     1
   5673   5699     1
   5673   5695     1
   5673   5684     1
   5673   5685     1
   5674   5678     1
   5674   5679     1
   5674   5693     1
   5674   5694     1
   5675   5677     1
   5675   5699     1
   5675   5692     1
   5675   5687     1
   5675   5688     1
   5676   5677     1
   5676   5699     1
   5676   5692     1
   5676   5687     1
   5676   5688     1
   5677   5690     1
   5677   5691     1
   5678   5699     1
   5678   5689     1
   5678   5681     1
   5678   5682     1
   5679   5699     1
   5679   5689     1
   5679   5681     1
   5679   5682     1
   5680   5699     1
   5681   5698     1
   5681   5690     1
   5681   5691     1
   5682   5698     1
   5682   5690     1
   5682   5691     1
   5683   5699     1
   5684  10103     1
   5684   5696     1
   5684   5697     1
   5685  10103     1
   5685   5696     1
   5685   5697     1
   5686   5699     1
   5687  10080     1
   5687   5693     1
   5687   5694     1
   5688  10080     1
   5688   5693     1
   5688   5694     1
   5692  10079     1
   5693  10076     1
   5694  10076     1
   5695  10102     1
   5696  10099     1
   5697  10099     1
   5700   5708     1
   5700   5716     1
   5700   5721     1
   5700   5709     1
   5701   5718     1
   5701   5719     1
   5701   5707     1
   5701   5715     1
   5702   5704     1
   5702   5713     1
   5702   5703     1
   5702   5720     1
   5702   5718     1
   5702   5719     1
   5702   5706     1
   5703   5714     1
   5703   5722     1
   5703   5705     1
   5703   5712     1
   5703   5708     1
   5703   5716     1
   5704   5716     1
   5704   5709     1
   5704   5717     1
   5705   5715     1
   5706   5708     1
   5706   5717     1
   5707   5712     1
   5707   5708     1
   5707   5710     1
   5707   5722     1
   5707   5709     1
   5707   5717     1
   5708   5713     1
   5708   5711     1
   5708   5715     1
   5709   5711     1
   5718   5722     1
   5718   5721     1
   5719   5722     1
   5719   5721     1
   5723   5731     1
   5723   5739     1
   5723   5744     1
   5723   5732     1
   5724   5730     1
   5724   5738     1
   5724   5741     1
   5724   5742     1
   5725   5727     1
   5725   5736     1
   5725   5726     1
   5725   5743     1
   5725   5741     1
   5725   5742     1
   5725   5729     1
   5726   5728     1
   5726   5735     1
   5726   5731     1
   5726   5739     1
   5726   5737     1
   5726   5745     1
   5727   5732     1
   5727   5740     1
   5727   5739     1
   5728   5738     1
   5729   5740     1
   5729   5731     1
   5730   5733     1
   5730   5745     1
   5730   5732     1
   5730   5740     1
   5730   5735     1
   5730   5731     1
   5731   5734     1
   5731   5738     1
   5731   5736     1
   5732   5734     1
   5741   5744     1
   5741   5745     1
   5742   5744     1
   5742   5745     1
   5746   5754     1
   5746   5762     1
   5746   5767     1
   5746   5755     1
   5747   5764     1
   5747   5765     1
   5747   5753     1
   5747   5761     1
   5748   5750     1
   5748   5759     1
   5748   5749     1
   5748   5766     1
   5748   5764     1
   5748   5765     1
   5748   5752     1
   5749   5760     1
   5749   5768     1
   5749   5751     1
   5749   5758     1
   5749   5754     1
   5749   5762     1
   5750   5762     1
   5750   5755     1
   5750   5763     1
   5751   5761     1
   5752   5754     1
   5752   5763     1
   5753   5758     1
   5753   5754     1
   5753   5756     1
   5753   5768     1
   5753   5755     1
   5753   5763     1
   5754   5759     1
   5754   5757     1
   5754   5761     1
   5755   5757     1
   5764   5768     1
   5764   5767     1
   5765   5768     1
   5765   5767     1
   5769   5777     1
   5769   5785     1
   5769   5790     1
   5769   5778     1
   5770   5776     1
   5770   5784     1
   5770   5787     1
   5770   5788     1
   5771   5773     1
   5771   5782     1
   5771   5772     1
   5771   5789     1
   5771   5787     1
   5771   5788     1
   5771   5775     1
   5772   5774     1
   5772   5781     1
   5772   5777     1
   5772   5785     1
   5772   5783     1
   5772   5791     1
   5773   5778     1
   5773   5786     1
   5773   5785     1
   5774   5784     1
   5775   5786     1
   5775   5777     1
   5776   5779     1
   5776   5791     1
   5776   5778     1
   5776   5786     1
   5776   5781     1
   5776   5777     1
   5777   5780     1
   5777   5784     1
   5777   5782     1
   5778   5780     1
   5787   5790     1
   5787   5791     1
   5788   5790     1
   5788   5791     1
   5792   5800     1
   5792   5808     1
   5792   5813     1
   5792   5801     1
   5793   5810     1
   5793   5811     1
   5793   5799     1
   5793   5807     1
   5794   5796     1
   5794   5805     1
   5794   5795     1
   5794   5812     1
   5794   5810     1
   5794   5811     1
   5794   5798     1
   5795   5806     1
   5795   5814     1
   5795   5797     1
   5795   5804     1
   5795   5800     1
   5795   5808     1
   5796   5808     1
   5796   5801     1
   5796   5809     1
   5797   5807     1
   5798   5800     1
   5798   5809     1
   5799   5804     1
   5799   5800     1
   5799   5802     1
   5799   5814     1
   5799   5801     1
   5799   5809     1
   5800   5805     1
   5800   5803     1
   5800   5807     1
   5801   5803     1
   5810   5814     1
   5810   5813     1
   5811   5814     1
   5811   5813     1
   5815   5823     1
   5815   5831     1
   5815   5836     1
   5815   5824     1
   5816   5822     1
   5816   5830     1
   5816   5833     1
   5816   5834     1
   5817   5819     1
   5817   5828     1
   5817   5818     1
   5817   5835     1
   5817   5833     1
   5817   5834     1
   5817   5821     1
   5818   5820     1
   5818   5827     1
   5818   5823     1
   5818   5831     1
   5818   5829     1
   5818   5837     1
   5819   5824     1
   5819   5832     1
   5819   5831     1
   5820   5830     1
   5821   5832     1
   5821   5823     1
   5822   5825     1
   5822   5837     1
   5822   5824     1
   5822   5832     1
   5822   5827     1
   5822   5823     1
   5823   5826     1
   5823   5830     1
   5823   5828     1
   5824   5826     1
   5833   5836     1
   5833   5837     1
   5834   5836     1
   5834   5837     1
   5838   5846     1
   5838   5854     1
   5838   5859     1
   5838   5847     1
   5839   5856     1
   5839   5857     1
   5839   5845     1
   5839   5853     1
   5840   5842     1
   5840   5851     1
   5840   5841     1
   5840   5858     1
   5840   5856     1
   5840   5857     1
   5840   5844     1
   5841   5852     1
   5841   5860     1
   5841   5843     1
   5841   5850     1
   5841   5846     1
   5841   5854     1
   5842   5854     1
   5842   5847     1
   5842   5855     1
   5843   5853     1
   5844   5846     1
   5844   5855     1
   5845   5850     1
   5845   5846     1
   5845   5848     1
   5845   5860     1
   5845   5847     1
   5845   5855     1
   5846   5851     1
   5846   5849     1
   5846   5853     1
   5847   5849     1
   5856   5860     1
   5856   5859     1
   5857   5860     1
   5857   5859     1
   5861   5869     1
   5861   5877     1
   5861   5882     1
   5861   5870     1
   5862   5868     1
   5862   5876     1
   5862   5879     1
   5862   5880     1
   5863   5865     1
   5863   5874     1
   5863   5864     1
   5863   5881     1
   5863   5879     1
   5863   5880     1
   5863   5867     1
   5864   5866     1
   5864   5873     1
   5864   5869     1
   5864   5877     1
   5864   5875     1
   5864   5883     1
   5865   5870     1
   5865   5878     1
   5865   5877     1
   5866   5876     1
   5867   5878     1
   5867   5869     1
   5868   5871     1
   5868   5883     1
   5868   5870     1
   5868   5878     1
   5868   5873     1
   5868   5869     1
   5869   5872     1
   5869   5876     1
   5869   5874     1
   5870   5872     1
   5879   5882     1
   5879   5883     1
   5880   5882     1
   5880   5883     1
   5884   5892     1
   5884   5900     1
   5884   5905     1
   5884   5893     1
   5885   5902     1
   5885   5903     1
   5885   5891     1
   5885   5899     1
   5886   5888     1
   5886   5897     1
   5886   5887     1
   5886   5904     1
   5886   5902     1
   5886   5903     1
   5886   5890     1
   5887   5898     1
   5887   5906     1
   5887   5889     1
   5887   5896     1
   5887   5892     1
   5887   5900     1
   5888   5900     1
   5888   5893     1
   5888   5901     1
   5889   5899     1
   5890   5892     1
   5890   5901     1
   5891   5896     1
   5891   5892     1
   5891   5894     1
   5891   5906     1
   5891   5893     1
   5891   5901     1
   5892   5897     1
   5892   5895     1
   5892   5899     1
   5893   5895     1
   5902   5906     1
   5902   5905     1
   5903   5906     1
   5903   5905     1
   5907   5915     1
   5907   5923     1
   5907   5928     1
   5907   5916     1
   5908   5914     1
   5908   5922     1
   5908   5925     1
   5908   5926     1
   5909   5911     1
   5909   5920     1
   5909   5910     1
   5909   5927     1
   5909   5925     1
   5909   5926     1
   5909   5913     1
   5910   5912     1
   5910   5919     1
   5910   5915     1
   5910   5923     1
   5910   5921     1
   5910   5929     1
   5911   5916     1
   5911   5924     1
   5911   5923     1
   5912   5922     1
   5913   5924     1
   5913   5915     1
   5914   5917     1
   5914   5929     1
   5914   5916     1
   5914   5924     1
   5914   5919     1
   5914   5915     1
   5915   5918     1
   5915   5922     1
   5915   5920     1
   5916   5918     1
   5925   5928     1
   5925   5929     1
   5926   5928     1
   5926   5929     1
   5930   5938     1
   5930   5946     1
   5930   5951     1
   5930   5939     1
   5931   5948     1
   5931   5949     1
   5931   5937     1
   5931   5945     1
   5932   5934     1
   5932   5943     1
   5932   5933     1
   5932   5950     1
   5932   5948     1
   5932   5949     1
   5932   5936     1
   5933   5944     1
   5933   5952     1
   5933   5935     1
   5933   5942     1
   5933   5938     1
   5933   5946     1
   5934   5946     1
   5934   5939     1
   5934   5947     1
   5935   5945     1
   5936   5938     1
   5936   5947     1
   5937   5942     1
   5937   5938     1
   5937   5940     1
   5937   5952     1
   5937   5939     1
   5937   5947     1
   5938   5943     1
   5938   5941     1
   5938   5945     1
   5939   5941     1
   5948   5952     1
   5948   5951     1
   5949   5952     1
   5949   5951     1
   5953   5961     1
   5953   5969     1
   5953   5974     1
   5953   5962     1
   5954   5960     1
   5954   5968     1
   5954   5971     1
   5954   5972     1
   5955   5957     1
   5955   5966     1
   5955   5956     1
   5955   5973     1
   5955   5971     1
   5955   5972     1
   5955   5959     1
   5956   5958     1
   5956   5965     1
   5956   5961     1
   5956   5969     1
   5956   5967     1
   5956   5975     1
   5957   5962     1
   5957   5970     1
   5957   5969     1
   5958   5968     1
   5959   5970     1
   5959   5961     1
   5960   5963     1
   5960   5975     1
   5960   5962     1
   5960   5970     1
   5960   5965     1
   5960   5961     1
   5961   5964     1
   5961   5968     1
   5961   5966     1
   5962   5964     1
   5971   5974     1
   5971   5975     1
   5972   5974     1
   5972   5975     1
   5976   5984     1
   5976   5992     1
   5976   5997     1
   5976   5985     1
   5977   5994     1
   5977   5995     1
   5977   5983     1
   5977   5991     1
   5978   5980     1
   5978   5989     1
   5978   5979     1
   5978   5996     1
   5978   5994     1
   5978   5995     1
   5978   5982     1
   5979   5990     1
   5979   5998     1
   5979   5981     1
   5979   5988     1
   5979   5984     1
   5979   5992     1
   5980   5992     1
   5980   5985     1
   5980   5993     1
   5981   5991     1
   5982   5984     1
   5982   5993     1
   5983   5988     1
   5983   5984     1
   5983   5986     1
   5983   5998     1
   5983   5985     1
   5983   5993     1
   5984   5989     1
   5984   5987     1
   5984   5991     1
   5985   5987     1
   5994   5998     1
   5994   5997     1
   5995   5998     1
   5995   5997     1
   5999   6007     1
   5999   6015     1
   5999   6020     1
   5999   6008     1
   6000   6006     1
   6000   6014     1
   6000   6017     1
   6000   6018     1
   6001   6003     1
   6001   6012     1
   6001   6002     1
   6001   6019     1
   6001   6017     1
   6001   6018     1
   6001   6005     1
   6002   6004     1
   6002   6011     1
   6002   6007     1
   6002   6015     1
   6002   6013     1
   6002   6021     1
   6003   6008     1
   6003   6016     1
   6003   6015     1
   6004   6014     1
   6005   6016     1
   6005   6007     1
   6006   6009     1
   6006   6021     1
   6006   6008     1
   6006   6016     1
   6006   6011     1
   6006   6007     1
   6007   6010     1
   6007   6014     1
   6007   6012     1
   6008   6010     1
   6017   6020     1
   6017   6021     1
   6018   6020     1
   6018   6021     1
   6022   6030     1
   6022   6038     1
   6022   6043     1
   6022   6031     1
   6023   6040     1
   6023   6041     1
   6023   6029     1
   6023   6037     1
   6024   6026     1
   6024   6035     1
   6024   6025     1
   6024   6042     1
   6024   6040     1
   6024   6041     1
   6024   6028     1
   6025   6036     1
   6025   6044     1
   6025   6027     1
   6025   6034     1
   6025   6030     1
   6025   6038     1
   6026   6038     1
   6026   6031     1
   6026   6039     1
   6027   6037     1
   6028   6030     1
   6028   6039     1
   6029   6034     1
   6029   6030     1
   6029   6032     1
   6029   6044     1
   6029   6031     1
   6029   6039     1
   6030   6035     1
   6030   6033     1
   6030   6037     1
   6031   6033     1
   6040   6044     1
   6040   6043     1
   6041   6044     1
   6041   6043     1
   6045   6053     1
   6045   6061     1
   6045   6066     1
   6045   6054     1
   6046   6052     1
   6046   6060     1
   6046   6063     1
   6046   6064     1
   6047   6049     1
   6047   6058     1
   6047   6048     1
   6047   6065     1
   6047   6063     1
   6047   6064     1
   6047   6051     1
   6048   6050     1
   6048   6057     1
   6048   6053     1
   6048   6061     1
   6048   6059     1
   6048   6067     1
   6049   6054     1
   6049   6062     1
   6049   6061     1
   6050   6060     1
   6051   6062     1
   6051   6053     1
   6052   6055     1
   6052   6067     1
   6052   6054     1
   6052   6062     1
   6052   6057     1
   6052   6053     1
   6053   6056     1
   6053   6060     1
   6053   6058     1
   6054   6056     1
   6063   6066     1
   6063   6067     1
   6064   6066     1
   6064   6067     1
   6068   6076     1
   6068   6084     1
   6068   6089     1
   6068   6077     1
   6069   6086     1
   6069   6087     1
   6069   6075     1
   6069   6083     1
   6070   6072     1
   6070   6081     1
   6070   6071     1
   6070   6088     1
   6070   6086     1
   6070   6087     1
   6070   6074     1
   6071   6082     1
   6071   6090     1
   6071   6073     1
   6071   6080     1
   6071   6076     1
   6071   6084     1
   6072   6084     1
   6072   6077     1
   6072   6085     1
   6073   6083     1
   6074   6076     1
   6074   6085     1
   6075   6080     1
   6075   6076     1
   6075   6078     1
   6075   6090     1
   6075   6077     1
   6075   6085     1
   6076   6081     1
   6076   6079     1
   6076   6083     1
   6077   6079     1
   6086   6090     1
   6086   6089     1
   6087   6090     1
   6087   6089     1
   6091   6099     1
   6091   6107     1
   6091   6112     1
   6091   6100     1
   6092   6098     1
   6092   6106     1
   6092   6109     1
   6092   6110     1
   6093   6095     1
   6093   6104     1
   6093   6094     1
   6093   6111     1
   6093   6109     1
   6093   6110     1
   6093   6097     1
   6094   6096     1
   6094   6103     1
   6094   6099     1
   6094   6107     1
   6094   6105     1
   6094   6113     1
   6095   6100     1
   6095   6108     1
   6095   6107     1
   6096   6106     1
   6097   6108     1
   6097   6099     1
   6098   6101     1
   6098   6113     1
   6098   6100     1
   6098   6108     1
   6098   6103     1
   6098   6099     1
   6099   6102     1
   6099   6106     1
   6099   6104     1
   6100   6102     1
   6109   6112     1
   6109   6113     1
   6110   6112     1
   6110   6113     1
   6114   6122     1
   6114   6130     1
   6114   6135     1
   6114   6123     1
   6115   6132     1
   6115   6133     1
   6115   6121     1
   6115   6129     1
   6116   6118     1
   6116   6127     1
   6116   6117     1
   6116   6134     1
   6116   6132     1
   6116   6133     1
   6116   6120     1
   6117   6128     1
   6117   6136     1
   6117   6119     1
   6117   6126     1
   6117   6122     1
   6117   6130     1
   6118   6130     1
   6118   6123     1
   6118   6131     1
   6119   6129     1
   6120   6122     1
   6120   6131     1
   6121   6126     1
   6121   6122     1
   6121   6124     1
   6121   6136     1
   6121   6123     1
   6121   6131     1
   6122   6127     1
   6122   6125     1
   6122   6129     1
   6123   6125     1
   6132   6136     1
   6132   6135     1
   6133   6136     1
   6133   6135     1
   6137   6145     1
   6137   6153     1
   6137   6158     1
   6137   6146     1
   6138   6144     1
   6138   6152     1
   6138   6155     1
   6138   6156     1
   6139   6141     1
   6139   6150     1
   6139   6140     1
   6139   6157     1
   6139   6155     1
   6139   6156     1
   6139   6143     1
   6140   6142     1
   6140   6149     1
   6140   6145     1
   6140   6153     1
   6140   6151     1
   6140   6159     1
   6141   6146     1
   6141   6154     1
   6141   6153     1
   6142   6152     1
   6143   6154     1
   6143   6145     1
   6144   6147     1
   6144   6159     1
   6144   6146     1
   6144   6154     1
   6144   6149     1
   6144   6145     1
   6145   6148     1
   6145   6152     1
   6145   6150     1
   6146   6148     1
   6155   6158     1
   6155   6159     1
   6156   6158     1
   6156   6159     1
   6160   6168     1
   6160   6176     1
   6160   6181     1
   6160   6169     1
   6161   6178     1
   6161   6179     1
   6161   6167     1
   6161   6175     1
   6162   6164     1
   6162   6173     1
   6162   6163     1
   6162   6180     1
   6162   6178     1
   6162   6179     1
   6162   6166     1
   6163   6174     1
   6163   6182     1
   6163   6165     1
   6163   6172     1
   6163   6168     1
   6163   6176     1
   6164   6176     1
   6164   6169     1
   6164   6177     1
   6165   6175     1
   6166   6168     1
   6166   6177     1
   6167   6172     1
   6167   6168     1
   6167   6170     1
   6167   6182     1
   6167   6169     1
   6167   6177     1
   6168   6173     1
   6168   6171     1
   6168   6175     1
   6169   6171     1
   6178   6182     1
   6178   6181     1
   6179   6182     1
   6179   6181     1
   6183   6191     1
   6183   6199     1
   6183   6204     1
   6183   6192     1
   6184   6190     1
   6184   6198     1
   6184   6201     1
   6184   6202     1
   6185   6187     1
   6185   6196     1
   6185   6186     1
   6185   6203     1
   6185   6201     1
   6185   6202     1
   6185   6189     1
   6186   6188     1
   6186   6195     1
   6186   6191     1
   6186   6199     1
   6186   6197     1
   6186   6205     1
   6187   6192     1
   6187   6200     1
   6187   6199     1
   6188   6198     1
   6189   6200     1
   6189   6191     1
   6190   6193     1
   6190   6205     1
   6190   6192     1
   6190   6200     1
   6190   6195     1
   6190   6191     1
   6191   6194     1
   6191   6198     1
   6191   6196     1
   6192   6194     1
   6201   6204     1
   6201   6205     1
   6202   6204     1
   6202   6205     1
   6206   6214     1
   6206   6222     1
   6206   6227     1
   6206   6215     1
   6207   6224     1
   6207   6225     1
   6207   6213     1
   6207   6221     1
   6208   6210     1
   6208   6219     1
   6208   6209     1
   6208   6226     1
   6208   6224     1
   6208   6225     1
   6208   6212     1
   6209   6220     1
   6209   6228     1
   6209   6211     1
   6209   6218     1
   6209   6214     1
   6209   6222     1
   6210   6222     1
   6210   6215     1
   6210   6223     1
   6211   6221     1
   6212   6214     1
   6212   6223     1
   6213   6218     1
   6213   6214     1
   6213   6216     1
   6213   6228     1
   6213   6215     1
   6213   6223     1
   6214   6219     1
   6214   6217     1
   6214   6221     1
   6215   6217     1
   6224   6228     1
   6224   6227     1
   6225   6228     1
   6225   6227     1
   6229   6237     1
   6229   6245     1
   6229   6250     1
   6229   6238     1
   6230   6236     1
   6230   6244     1
   6230   6247     1
   6230   6248     1
   6231   6233     1
   6231   6242     1
   6231   6232     1
   6231   6249     1
   6231   6247     1
   6231   6248     1
   6231   6235     1
   6232   6234     1
   6232   6241     1
   6232   6237     1
   6232   6245     1
   6232   6243     1
   6232   6251     1
   6233   6238     1
   6233   6246     1
   6233   6245     1
   6234   6244     1
   6235   6246     1
   6235   6237     1
   6236   6239     1
   6236   6251     1
   6236   6238     1
   6236   6246     1
   6236   6241     1
   6236   6237     1
   6237   6240     1
   6237   6244     1
   6237   6242     1
   6238   6240     1
   6247   6250     1
   6247   6251     1
   6248   6250     1
   6248   6251     1
   6252   6260     1
   6252   6268     1
   6252   6273     1
   6252   6261     1
   6253   6270     1
   6253   6271     1
   6253   6259     1
   6253   6267     1
   6254   6256     1
   6254   6265     1
   6254   6255     1
   6254   6272     1
   6254   6270     1
   6254   6271     1
   6254   6258     1
   6255   6266     1
   6255   6274     1
   6255   6257     1
   6255   6264     1
   6255   6260     1
   6255   6268     1
   6256   6268     1
   6256   6261     1
   6256   6269     1
   6257   6267     1
   6258   6260     1
   6258   6269     1
   6259   6264     1
   6259   6260     1
   6259   6262     1
   6259   6274     1
   6259   6261     1
   6259   6269     1
   6260   6265     1
   6260   6263     1
   6260   6267     1
   6261   6263     1
   6270   6274     1
   6270   6273     1
   6271   6274     1
   6271   6273     1
   6275   6283     1
   6275   6291     1
   6275   6296     1
   6275   6284     1
   6276   6282     1
   6276   6290     1
   6276   6293     1
   6276   6294     1
   6277   6279     1
   6277   6288     1
   6277   6278     1
   6277   6295     1
   6277   6293     1
   6277   6294     1
   6277   6281     1
   6278   6280     1
   6278   6287     1
   6278   6283     1
   6278   6291     1
   6278   6289     1
   6278   6297     1
   6279   6284     1
   6279   6292     1
   6279   6291     1
   6280   6290     1
   6281   6292     1
   6281   6283     1
   6282   6285     1
   6282   6297     1
   6282   6284     1
   6282   6292     1
   6282   6287     1
   6282   6283     1
   6283   6286     1
   6283   6290     1
   6283   6288     1
   6284   6286     1
   6293   6296     1
   6293   6297     1
   6294   6296     1
   6294   6297     1
   6298   6306     1
   6298   6314     1
   6298   6319     1
   6298   6307     1
   6299   6316     1
   6299   6317     1
   6299   6305     1
   6299   6313     1
   6300   6302     1
   6300   6311     1
   6300   6301     1
   6300   6318     1
   6300   6316     1
   6300   6317     1
   6300   6304     1
   6301   6312     1
   6301   6320     1
   6301   6303     1
   6301   6310     1
   6301   6306     1
   6301   6314     1
   6302   6314     1
   6302   6307     1
   6302   6315     1
   6303   6313     1
   6304   6306     1
   6304   6315     1
   6305   6310     1
   6305   6306     1
   6305   6308     1
   6305   6320     1
   6305   6307     1
   6305   6315     1
   6306   6311     1
   6306   6309     1
   6306   6313     1
   6307   6309     1
   6316   6320     1
   6316   6319     1
   6317   6320     1
   6317   6319     1
   6321   6329     1
   6321   6337     1
   6321   6342     1
   6321   6330     1
   6322   6328     1
   6322   6336     1
   6322   6339     1
   6322   6340     1
   6323   6325     1
   6323   6334     1
   6323   6324     1
   6323   6341     1
   6323   6339     1
   6323   6340     1
   6323   6327     1
   6324   6326     1
   6324   6333     1
   6324   6329     1
   6324   6337     1
   6324   6335     1
   6324   6343     1
   6325   6330     1
   6325   6338     1
   6325   6337     1
   6326   6336     1
   6327   6338     1
   6327   6329     1
   6328   6331     1
   6328   6343     1
   6328   6330     1
   6328   6338     1
   6328   6333     1
   6328   6329     1
   6329   6332     1
   6329   6336     1
   6329   6334     1
   6330   6332     1
   6339   6342     1
   6339   6343     1
   6340   6342     1
   6340   6343     1
   6344   6352     1
   6344   6360     1
   6344   6365     1
   6344   6353     1
   6345   6362     1
   6345   6363     1
   6345   6351     1
   6345   6359     1
   6346   6348     1
   6346   6357     1
   6346   6347     1
   6346   6364     1
   6346   6362     1
   6346   6363     1
   6346   6350     1
   6347   6358     1
   6347   6366     1
   6347   6349     1
   6347   6356     1
   6347   6352     1
   6347   6360     1
   6348   6360     1
   6348   6353     1
   6348   6361     1
   6349   6359     1
   6350   6352     1
   6350   6361     1
   6351   6356     1
   6351   6352     1
   6351   6354     1
   6351   6366     1
   6351   6353     1
   6351   6361     1
   6352   6357     1
   6352   6355     1
   6352   6359     1
   6353   6355     1
   6362   6366     1
   6362   6365     1
   6363   6366     1
   6363   6365     1
   6367   6375     1
   6367   6383     1
   6367   6388     1
   6367   6376     1
   6368   6374     1
   6368   6382     1
   6368   6385     1
   6368   6386     1
   6369   6371     1
   6369   6380     1
   6369   6370     1
   6369   6387     1
   6369   6385     1
   6369   6386     1
   6369   6373     1
   6370   6372     1
   6370   6379     1
   6370   6375     1
   6370   6383     1
   6370   6381     1
   6370   6389     1
   6371   6376     1
   6371   6384     1
   6371   6383     1
   6372   6382     1
   6373   6384     1
   6373   6375     1
   6374   6377     1
   6374   6389     1
   6374   6376     1
   6374   6384     1
   6374   6379     1
   6374   6375     1
   6375   6378     1
   6375   6382     1
   6375   6380     1
   6376   6378     1
   6385   6388     1
   6385   6389     1
   6386   6388     1
   6386   6389     1
   6390   6398     1
   6390   6406     1
   6390   6411     1
   6390   6399     1
   6391   6408     1
   6391   6409     1
   6391   6397     1
   6391   6405     1
   6392   6394     1
   6392   6403     1
   6392   6393     1
   6392   6410     1
   6392   6408     1
   6392   6409     1
   6392   6396     1
   6393   6404     1
   6393   6412     1
   6393   6395     1
   6393   6402     1
   6393   6398     1
   6393   6406     1
   6394   6406     1
   6394   6399     1
   6394   6407     1
   6395   6405     1
   6396   6398     1
   6396   6407     1
   6397   6402     1
   6397   6398     1
   6397   6400     1
   6397   6412     1
   6397   6399     1
   6397   6407     1
   6398   6403     1
   6398   6401     1
   6398   6405     1
   6399   6401     1
   6408   6412     1
   6408   6411     1
   6409   6412     1
   6409   6411     1
   6413   6421     1
   6413   6429     1
   6413   6434     1
   6413   6422     1
   6414   6420     1
   6414   6428     1
   6414   6431     1
   6414   6432     1
   6415   6417     1
   6415   6426     1
   6415   6416     1
   6415   6433     1
   6415   6431     1
   6415   6432     1
   6415   6419     1
   6416   6418     1
   6416   6425     1
   6416   6421     1
   6416   6429     1
   6416   6427     1
   6416   6435     1
   6417   6422     1
   6417   6430     1
   6417   6429     1
   6418   6428     1
   6419   6430     1
   6419   6421     1
   6420   6423     1
   6420   6435     1
   6420   6422     1
   6420   6430     1
   6420   6425     1
   6420   6421     1
   6421   6424     1
   6421   6428     1
   6421   6426     1
   6422   6424     1
   6431   6434     1
   6431   6435     1
   6432   6434     1
   6432   6435     1
   6436   6444     1
   6436   6452     1
   6436   6457     1
   6436   6445     1
   6437   6454     1
   6437   6455     1
   6437   6443     1
   6437   6451     1
   6438   6440     1
   6438   6449     1
   6438   6439     1
   6438   6456     1
   6438   6454     1
   6438   6455     1
   6438   6442     1
   6439   6450     1
   6439   6458     1
   6439   6441     1
   6439   6448     1
   6439   6444     1
   6439   6452     1
   6440   6452     1
   6440   6445     1
   6440   6453     1
   6441   6451     1
   6442   6444     1
   6442   6453     1
   6443   6448     1
   6443   6444     1
   6443   6446     1
   6443   6458     1
   6443   6445     1
   6443   6453     1
   6444   6449     1
   6444   6447     1
   6444   6451     1
   6445   6447     1
   6454   6458     1
   6454   6457     1
   6455   6458     1
   6455   6457     1
   6459   6467     1
   6459   6475     1
   6459   6480     1
   6459   6468     1
   6460   6466     1
   6460   6474     1
   6460   6477     1
   6460   6478     1
   6461   6463     1
   6461   6472     1
   6461   6462     1
   6461   6479     1
   6461   6477     1
   6461   6478     1
   6461   6465     1
   6462   6464     1
   6462   6471     1
   6462   6467     1
   6462   6475     1
   6462   6473     1
   6462   6481     1
   6463   6468     1
   6463   6476     1
   6463   6475     1
   6464   6474     1
   6465   6476     1
   6465   6467     1
   6466   6469     1
   6466   6481     1
   6466   6468     1
   6466   6476     1
   6466   6471     1
   6466   6467     1
   6467   6470     1
   6467   6474     1
   6467   6472     1
   6468   6470     1
   6477   6480     1
   6477   6481     1
   6478   6480     1
   6478   6481     1
   6482   6490     1
   6482   6498     1
   6482   6503     1
   6482   6491     1
   6483   6500     1
   6483   6501     1
   6483   6489     1
   6483   6497     1
   6484   6486     1
   6484   6495     1
   6484   6485     1
   6484   6502     1
   6484   6500     1
   6484   6501     1
   6484   6488     1
   6485   6496     1
   6485   6504     1
   6485   6487     1
   6485   6494     1
   6485   6490     1
   6485   6498     1
   6486   6498     1
   6486   6491     1
   6486   6499     1
   6487   6497     1
   6488   6490     1
   6488   6499     1
   6489   6494     1
   6489   6490     1
   6489   6492     1
   6489   6504     1
   6489   6491     1
   6489   6499     1
   6490   6495     1
   6490   6493     1
   6490   6497     1
   6491   6493     1
   6500   6504     1
   6500   6503     1
   6501   6504     1
   6501   6503     1
   6505   6513     1
   6505   6521     1
   6505   6526     1
   6505   6514     1
   6506   6512     1
   6506   6520     1
   6506   6523     1
   6506   6524     1
   6507   6509     1
   6507   6518     1
   6507   6508     1
   6507   6525     1
   6507   6523     1
   6507   6524     1
   6507   6511     1
   6508   6510     1
   6508   6517     1
   6508   6513     1
   6508   6521     1
   6508   6519     1
   6508   6527     1
   6509   6514     1
   6509   6522     1
   6509   6521     1
   6510   6520     1
   6511   6522     1
   6511   6513     1
   6512   6515     1
   6512   6527     1
   6512   6514     1
   6512   6522     1
   6512   6517     1
   6512   6513     1
   6513   6516     1
   6513   6520     1
   6513   6518     1
   6514   6516     1
   6523   6526     1
   6523   6527     1
   6524   6526     1
   6524   6527     1
   6528   6536     1
   6528   6544     1
   6528   6549     1
   6528   6537     1
   6529   6546     1
   6529   6547     1
   6529   6535     1
   6529   6543     1
   6530   6532     1
   6530   6541     1
   6530   6531     1
   6530   6548     1
   6530   6546     1
   6530   6547     1
   6530   6534     1
   6531   6542     1
   6531   6550     1
   6531   6533     1
   6531   6540     1
   6531   6536     1
   6531   6544     1
   6532   6544     1
   6532   6537     1
   6532   6545     1
   6533   6543     1
   6534   6536     1
   6534   6545     1
   6535   6540     1
   6535   6536     1
   6535   6538     1
   6535   6550     1
   6535   6537     1
   6535   6545     1
   6536   6541     1
   6536   6539     1
   6536   6543     1
   6537   6539     1
   6546   6550     1
   6546   6549     1
   6547   6550     1
   6547   6549     1
   6551   6559     1
   6551   6567     1
   6551   6572     1
   6551   6560     1
   6552   6558     1
   6552   6566     1
   6552   6569     1
   6552   6570     1
   6553   6555     1
   6553   6564     1
   6553   6554     1
   6553   6571     1
   6553   6569     1
   6553   6570     1
   6553   6557     1
   6554   6556     1
   6554   6563     1
   6554   6559     1
   6554   6567     1
   6554   6565     1
   6554   6573     1
   6555   6560     1
   6555   6568     1
   6555   6567     1
   6556   6566     1
   6557   6568     1
   6557   6559     1
   6558   6561     1
   6558   6573     1
   6558   6560     1
   6558   6568     1
   6558   6563     1
   6558   6559     1
   6559   6562     1
   6559   6566     1
   6559   6564     1
   6560   6562     1
   6569   6572     1
   6569   6573     1
   6570   6572     1
   6570   6573     1
   6574   6582     1
   6574   6590     1
   6574   6595     1
   6574   6583     1
   6575   6592     1
   6575   6593     1
   6575   6581     1
   6575   6589     1
   6576   6578     1
   6576   6587     1
   6576   6577     1
   6576   6594     1
   6576   6592     1
   6576   6593     1
   6576   6580     1
   6577   6588     1
   6577   6596     1
   6577   6579     1
   6577   6586     1
   6577   6582     1
   6577   6590     1
   6578   6590     1
   6578   6583     1
   6578   6591     1
   6579   6589     1
   6580   6582     1
   6580   6591     1
   6581   6586     1
   6581   6582     1
   6581   6584     1
   6581   6596     1
   6581   6583     1
   6581   6591     1
   6582   6587     1
   6582   6585     1
   6582   6589     1
   6583   6585     1
   6592   6596     1
   6592   6595     1
   6593   6596     1
   6593   6595     1
   6597   6605     1
   6597   6613     1
   6597   6618     1
   6597   6606     1
   6598   6604     1
   6598   6612     1
   6598   6615     1
   6598   6616     1
   6599   6601     1
   6599   6610     1
   6599   6600     1
   6599   6617     1
   6599   6615     1
   6599   6616     1
   6599   6603     1
   6600   6602     1
   6600   6609     1
   6600   6605     1
   6600   6613     1
   6600   6611     1
   6600   6619     1
   6601   6606     1
   6601   6614     1
   6601   6613     1
   6602   6612     1
   6603   6614     1
   6603   6605     1
   6604   6607     1
   6604   6619     1
   6604   6606     1
   6604   6614     1
   6604   6609     1
   6604   6605     1
   6605   6608     1
   6605   6612     1
   6605   6610     1
   6606   6608     1
   6615   6618     1
   6615   6619     1
   6616   6618     1
   6616   6619     1
   6620   6628     1
   6620   6636     1
   6620   6641     1
   6620   6629     1
   6621   6638     1
   6621   6639     1
   6621   6627     1
   6621   6635     1
   6622   6624     1
   6622   6633     1
   6622   6623     1
   6622   6640     1
   6622   6638     1
   6622   6639     1
   6622   6626     1
   6623   6634     1
   6623   6642     1
   6623   6625     1
   6623   6632     1
   6623   6628     1
   6623   6636     1
   6624   6636     1
   6624   6629     1
   6624   6637     1
   6625   6635     1
   6626   6628     1
   6626   6637     1
   6627   6632     1
   6627   6628     1
   6627   6630     1
   6627   6642     1
   6627   6629     1
   6627   6637     1
   6628   6633     1
   6628   6631     1
   6628   6635     1
   6629   6631     1
   6638   6642     1
   6638   6641     1
   6639   6642     1
   6639   6641     1
   6643   6651     1
   6643   6659     1
   6643   6664     1
   6643   6652     1
   6644   6650     1
   6644   6658     1
   6644   6661     1
   6644   6662     1
   6645   6647     1
   6645   6656     1
   6645   6646     1
   6645   6663     1
   6645   6661     1
   6645   6662     1
   6645   6649     1
   6646   6648     1
   6646   6655     1
   6646   6651     1
   6646   6659     1
   6646   6657     1
   6646   6665     1
   6647   6652     1
   6647   6660     1
   6647   6659     1
   6648   6658     1
   6649   6660     1
   6649   6651     1
   6650   6653     1
   6650   6665     1
   6650   6652     1
   6650   6660     1
   6650   6655     1
   6650   6651     1
   6651   6654     1
   6651   6658     1
   6651   6656     1
   6652   6654     1
   6661   6664     1
   6661   6665     1
   6662   6664     1
   6662   6665     1
   6666   6674     1
   6666   6682     1
   6666   6687     1
   6666   6675     1
   6667   6684     1
   6667   6685     1
   6667   6673     1
   6667   6681     1
   6668   6670     1
   6668   6679     1
   6668   6669     1
   6668   6686     1
   6668   6684     1
   6668   6685     1
   6668   6672     1
   6669   6680     1
   6669   6688     1
   6669   6671     1
   6669   6678     1
   6669   6674     1
   6669   6682     1
   6670   6682     1
   6670   6675     1
   6670   6683     1
   6671   6681     1
   6672   6674     1
   6672   6683     1
   6673   6678     1
   6673   6674     1
   6673   6676     1
   6673   6688     1
   6673   6675     1
   6673   6683     1
   6674   6679     1
   6674   6677     1
   6674   6681     1
   6675   6677     1
   6684   6688     1
   6684   6687     1
   6685   6688     1
   6685   6687     1
   6689   6697     1
   6689   6705     1
   6689   6710     1
   6689   6698     1
   6690   6696     1
   6690   6704     1
   6690   6707     1
   6690   6708     1
   6691   6693     1
   6691   6702     1
   6691   6692     1
   6691   6709     1
   6691   6707     1
   6691   6708     1
   6691   6695     1
   6692   6694     1
   6692   6701     1
   6692   6697     1
   6692   6705     1
   6692   6703     1
   6692   6711     1
   6693   6698     1
   6693   6706     1
   6693   6705     1
   6694   6704     1
   6695   6706     1
   6695   6697     1
   6696   6699     1
   6696   6711     1
   6696   6698     1
   6696   6706     1
   6696   6701     1
   6696   6697     1
   6697   6700     1
   6697   6704     1
   6697   6702     1
   6698   6700     1
   6707   6710     1
   6707   6711     1
   6708   6710     1
   6708   6711     1
   6712   6720     1
   6712   6728     1
   6712   6733     1
   6712   6721     1
   6713   6730     1
   6713   6731     1
   6713   6719     1
   6713   6727     1
   6714   6716     1
   6714   6725     1
   6714   6715     1
   6714   6732     1
   6714   6730     1
   6714   6731     1
   6714   6718     1
   6715   6726     1
   6715   6734     1
   6715   6717     1
   6715   6724     1
   6715   6720     1
   6715   6728     1
   6716   6728     1
   6716   6721     1
   6716   6729     1
   6717   6727     1
   6718   6720     1
   6718   6729     1
   6719   6724     1
   6719   6720     1
   6719   6722     1
   6719   6734     1
   6719   6721     1
   6719   6729     1
   6720   6725     1
   6720   6723     1
   6720   6727     1
   6721   6723     1
   6730   6734     1
   6730   6733     1
   6731   6734     1
   6731   6733     1
   6735   6743     1
   6735   6751     1
   6735   6756     1
   6735   6744     1
   6736   6742     1
   6736   6750     1
   6736   6753     1
   6736   6754     1
   6737   6739     1
   6737   6748     1
   6737   6738     1
   6737   6755     1
   6737   6753     1
   6737   6754     1
   6737   6741     1
   6738   6740     1
   6738   6747     1
   6738   6743     1
   6738   6751     1
   6738   6749     1
   6738   6757     1
   6739   6744     1
   6739   6752     1
   6739   6751     1
   6740   6750     1
   6741   6752     1
   6741   6743     1
   6742   6745     1
   6742   6757     1
   6742   6744     1
   6742   6752     1
   6742   6747     1
   6742   6743     1
   6743   6746     1
   6743   6750     1
   6743   6748     1
   6744   6746     1
   6753   6756     1
   6753   6757     1
   6754   6756     1
   6754   6757     1
   6758   6766     1
   6758   6774     1
   6758   6779     1
   6758   6767     1
   6759   6776     1
   6759   6777     1
   6759   6765     1
   6759   6773     1
   6760   6762     1
   6760   6771     1
   6760   6761     1
   6760   6778     1
   6760   6776     1
   6760   6777     1
   6760   6764     1
   6761   6772     1
   6761   6780     1
   6761   6763     1
   6761   6770     1
   6761   6766     1
   6761   6774     1
   6762   6774     1
   6762   6767     1
   6762   6775     1
   6763   6773     1
   6764   6766     1
   6764   6775     1
   6765   6770     1
   6765   6766     1
   6765   6768     1
   6765   6780     1
   6765   6767     1
   6765   6775     1
   6766   6771     1
   6766   6769     1
   6766   6773     1
   6767   6769     1
   6776   6780     1
   6776   6779     1
   6777   6780     1
   6777   6779     1
   6781   6789     1
   6781   6797     1
   6781   6802     1
   6781   6790     1
   6782   6788     1
   6782   6796     1
   6782   6799     1
   6782   6800     1
   6783   6785     1
   6783   6794     1
   6783   6784     1
   6783   6801     1
   6783   6799     1
   6783   6800     1
   6783   6787     1
   6784   6786     1
   6784   6793     1
   6784   6789     1
   6784   6797     1
   6784   6795     1
   6784   6803     1
   6785   6790     1
   6785   6798     1
   6785   6797     1
   6786   6796     1
   6787   6798     1
   6787   6789     1
   6788   6791     1
   6788   6803     1
   6788   6790     1
   6788   6798     1
   6788   6793     1
   6788   6789     1
   6789   6792     1
   6789   6796     1
   6789   6794     1
   6790   6792     1
   6799   6802     1
   6799   6803     1
   6800   6802     1
   6800   6803     1
   6804   6812     1
   6804   6820     1
   6804   6825     1
   6804   6813     1
   6805   6822     1
   6805   6823     1
   6805   6811     1
   6805   6819     1
   6806   6808     1
   6806   6817     1
   6806   6807     1
   6806   6824     1
   6806   6822     1
   6806   6823     1
   6806   6810     1
   6807   6818     1
   6807   6826     1
   6807   6809     1
   6807   6816     1
   6807   6812     1
   6807   6820     1
   6808   6820     1
   6808   6813     1
   6808   6821     1
   6809   6819     1
   6810   6812     1
   6810   6821     1
   6811   6816     1
   6811   6812     1
   6811   6814     1
   6811   6826     1
   6811   6813     1
   6811   6821     1
   6812   6817     1
   6812   6815     1
   6812   6819     1
   6813   6815     1
   6822   6826     1
   6822   6825     1
   6823   6826     1
   6823   6825     1
   6827   6835     1
   6827   6843     1
   6827   6848     1
   6827   6836     1
   6828   6834     1
   6828   6842     1
   6828   6845     1
   6828   6846     1
   6829   6831     1
   6829   6840     1
   6829   6830     1
   6829   6847     1
   6829   6845     1
   6829   6846     1
   6829   6833     1
   6830   6832     1
   6830   6839     1
   6830   6835     1
   6830   6843     1
   6830   6841     1
   6830   6849     1
   6831   6836     1
   6831   6844     1
   6831   6843     1
   6832   6842     1
   6833   6844     1
   6833   6835     1
   6834   6837     1
   6834   6849     1
   6834   6836     1
   6834   6844     1
   6834   6839     1
   6834   6835     1
   6835   6838     1
   6835   6842     1
   6835   6840     1
   6836   6838     1
   6845   6848     1
   6845   6849     1
   6846   6848     1
   6846   6849     1
   6850   6858     1
   6850   6866     1
   6850   6871     1
   6850   6859     1
   6851   6868     1
   6851   6869     1
   6851   6857     1
   6851   6865     1
   6852   6854     1
   6852   6863     1
   6852   6853     1
   6852   6870     1
   6852   6868     1
   6852   6869     1
   6852   6856     1
   6853   6864     1
   6853   6872     1
   6853   6855     1
   6853   6862     1
   6853   6858     1
   6853   6866     1
   6854   6866     1
   6854   6859     1
   6854   6867     1
   6855   6865     1
   6856   6858     1
   6856   6867     1
   6857   6862     1
   6857   6858     1
   6857   6860     1
   6857   6872     1
   6857   6859     1
   6857   6867     1
   6858   6863     1
   6858   6861     1
   6858   6865     1
   6859   6861     1
   6868   6872     1
   6868   6871     1
   6869   6872     1
   6869   6871     1
   6873   6881     1
   6873   6889     1
   6873   6894     1
   6873   6882     1
   6874   6880     1
   6874   6888     1
   6874   6891     1
   6874   6892     1
   6875   6877     1
   6875   6886     1
   6875   6876     1
   6875   6893     1
   6875   6891     1
   6875   6892     1
   6875   6879     1
   6876   6878     1
   6876   6885     1
   6876   6881     1
   6876   6889     1
   6876   6887     1
   6876   6895     1
   6877   6882     1
   6877   6890     1
   6877   6889     1
   6878   6888     1
   6879   6890     1
   6879   6881     1
   6880   6883     1
   6880   6895     1
   6880   6882     1
   6880   6890     1
   6880   6885     1
   6880   6881     1
   6881   6884     1
   6881   6888     1
   6881   6886     1
   6882   6884     1
   6891   6894     1
   6891   6895     1
   6892   6894     1
   6892   6895     1
   6896   6904     1
   6896   6912     1
   6896   6917     1
   6896   6905     1
   6897   6914     1
   6897   6915     1
   6897   6903     1
   6897   6911     1
   6898   6900     1
   6898   6909     1
   6898   6899     1
   6898   6916     1
   6898   6914     1
   6898   6915     1
   6898   6902     1
   6899   6910     1
   6899   6918     1
   6899   6901     1
   6899   6908     1
   6899   6904     1
   6899   6912     1
   6900   6912     1
   6900   6905     1
   6900   6913     1
   6901   6911     1
   6902   6904     1
   6902   6913     1
   6903   6908     1
   6903   6904     1
   6903   6906     1
   6903   6918     1
   6903   6905     1
   6903   6913     1
   6904   6909     1
   6904   6907     1
   6904   6911     1
   6905   6907     1
   6914   6918     1
   6914   6917     1
   6915   6918     1
   6915   6917     1
   6919   6927     1
   6919   6935     1
   6919   6940     1
   6919   6928     1
   6920   6926     1
   6920   6934     1
   6920   6937     1
   6920   6938     1
   6921   6923     1
   6921   6932     1
   6921   6922     1
   6921   6939     1
   6921   6937     1
   6921   6938     1
   6921   6925     1
   6922   6924     1
   6922   6931     1
   6922   6927     1
   6922   6935     1
   6922   6933     1
   6922   6941     1
   6923   6928     1
   6923   6936     1
   6923   6935     1
   6924   6934     1
   6925   6936     1
   6925   6927     1
   6926   6929     1
   6926   6941     1
   6926   6928     1
   6926   6936     1
   6926   6931     1
   6926   6927     1
   6927   6930     1
   6927   6934     1
   6927   6932     1
   6928   6930     1
   6937   6940     1
   6937   6941     1
   6938   6940     1
   6938   6941     1
   6942   6950     1
   6942   6958     1
   6942   6963     1
   6942   6951     1
   6943   6960     1
   6943   6961     1
   6943   6949     1
   6943   6957     1
   6944   6946     1
   6944   6955     1
   6944   6945     1
   6944   6962     1
   6944   6960     1
   6944   6961     1
   6944   6948     1
   6945   6956     1
   6945   6964     1
   6945   6947     1
   6945   6954     1
   6945   6950     1
   6945   6958     1
   6946   6958     1
   6946   6951     1
   6946   6959     1
   6947   6957     1
   6948   6950     1
   6948   6959     1
   6949   6954     1
   6949   6950     1
   6949   6952     1
   6949   6964     1
   6949   6951     1
   6949   6959     1
   6950   6955     1
   6950   6953     1
   6950   6957     1
   6951   6953     1
   6960   6964     1
   6960   6963     1
   6961   6964     1
   6961   6963     1
   6965   6973     1
   6965   6981     1
   6965   6986     1
   6965   6974     1
   6966   6972     1
   6966   6980     1
   6966   6983     1
   6966   6984     1
   6967   6969     1
   6967   6978     1
   6967   6968     1
   6967   6985     1
   6967   6983     1
   6967   6984     1
   6967   6971     1
   6968   6970     1
   6968   6977     1
   6968   6973     1
   6968   6981     1
   6968   6979     1
   6968   6987     1
   6969   6974     1
   6969   6982     1
   6969   6981     1
   6970   6980     1
   6971   6982     1
   6971   6973     1
   6972   6975     1
   6972   6987     1
   6972   6974     1
   6972   6982     1
   6972   6977     1
   6972   6973     1
   6973   6976     1
   6973   6980     1
   6973   6978     1
   6974   6976     1
   6983   6986     1
   6983   6987     1
   6984   6986     1
   6984   6987     1
   6988   6996     1
   6988   7004     1
   6988   7009     1
   6988   6997     1
   6989   7006     1
   6989   7007     1
   6989   6995     1
   6989   7003     1
   6990   6992     1
   6990   7001     1
   6990   6991     1
   6990   7008     1
   6990   7006     1
   6990   7007     1
   6990   6994     1
   6991   7002     1
   6991   7010     1
   6991   6993     1
   6991   7000     1
   6991   6996     1
   6991   7004     1
   6992   7004     1
   6992   6997     1
   6992   7005     1
   6993   7003     1
   6994   6996     1
   6994   7005     1
   6995   7000     1
   6995   6996     1
   6995   6998     1
   6995   7010     1
   6995   6997     1
   6995   7005     1
   6996   7001     1
   6996   6999     1
   6996   7003     1
   6997   6999     1
   7006   7010     1
   7006   7009     1
   7007   7010     1
   7007   7009     1
   7011   7019     1
   7011   7027     1
   7011   7032     1
   7011   7020     1
   7012   7018     1
   7012   7026     1
   7012   7029     1
   7012   7030     1
   7013   7015     1
   7013   7024     1
   7013   7014     1
   7013   7031     1
   7013   7029     1
   7013   7030     1
   7013   7017     1
   7014   7016     1
   7014   7023     1
   7014   7019     1
   7014   7027     1
   7014   7025     1
   7014   7033     1
   7015   7020     1
   7015   7028     1
   7015   7027     1
   7016   7026     1
   7017   7028     1
   7017   7019     1
   7018   7021     1
   7018   7033     1
   7018   7020     1
   7018   7028     1
   7018   7023     1
   7018   7019     1
   7019   7022     1
   7019   7026     1
   7019   7024     1
   7020   7022     1
   7029   7032     1
   7029   7033     1
   7030   7032     1
   7030   7033     1
   7034   7042     1
   7034   7050     1
   7034   7055     1
   7034   7043     1
   7035   7052     1
   7035   7053     1
   7035   7041     1
   7035   7049     1
   7036   7038     1
   7036   7047     1
   7036   7037     1
   7036   7054     1
   7036   7052     1
   7036   7053     1
   7036   7040     1
   7037   7048     1
   7037   7056     1
   7037   7039     1
   7037   7046     1
   7037   7042     1
   7037   7050     1
   7038   7050     1
   7038   7043     1
   7038   7051     1
   7039   7049     1
   7040   7042     1
   7040   7051     1
   7041   7046     1
   7041   7042     1
   7041   7044     1
   7041   7056     1
   7041   7043     1
   7041   7051     1
   7042   7047     1
   7042   7045     1
   7042   7049     1
   7043   7045     1
   7052   7056     1
   7052   7055     1
   7053   7056     1
   7053   7055     1
   7057   7065     1
   7057   7073     1
   7057   7078     1
   7057   7066     1
   7058   7064     1
   7058   7072     1
   7058   7075     1
   7058   7076     1
   7059   7061     1
   7059   7070     1
   7059   7060     1
   7059   7077     1
   7059   7075     1
   7059   7076     1
   7059   7063     1
   7060   7062     1
   7060   7069     1
   7060   7065     1
   7060   7073     1
   7060   7071     1
   7060   7079     1
   7061   7066     1
   7061   7074     1
   7061   7073     1
   7062   7072     1
   7063   7074     1
   7063   7065     1
   7064   7067     1
   7064   7079     1
   7064   7066     1
   7064   7074     1
   7064   7069     1
   7064   7065     1
   7065   7068     1
   7065   7072     1
   7065   7070     1
   7066   7068     1
   7075   7078     1
   7075   7079     1
   7076   7078     1
   7076   7079     1
   7080   7088     1
   7080   7096     1
   7080   7101     1
   7080   7089     1
   7081   7098     1
   7081   7099     1
   7081   7087     1
   7081   7095     1
   7082   7084     1
   7082   7093     1
   7082   7083     1
   7082   7100     1
   7082   7098     1
   7082   7099     1
   7082   7086     1
   7083   7094     1
   7083   7102     1
   7083   7085     1
   7083   7092     1
   7083   7088     1
   7083   7096     1
   7084   7096     1
   7084   7089     1
   7084   7097     1
   7085   7095     1
   7086   7088     1
   7086   7097     1
   7087   7092     1
   7087   7088     1
   7087   7090     1
   7087   7102     1
   7087   7089     1
   7087   7097     1
   7088   7093     1
   7088   7091     1
   7088   7095     1
   7089   7091     1
   7098   7102     1
   7098   7101     1
   7099   7102     1
   7099   7101     1
   7103   7111     1
   7103   7119     1
   7103   7124     1
   7103   7112     1
   7104   7110     1
   7104   7118     1
   7104   7121     1
   7104   7122     1
   7105   7107     1
   7105   7116     1
   7105   7106     1
   7105   7123     1
   7105   7121     1
   7105   7122     1
   7105   7109     1
   7106   7108     1
   7106   7115     1
   7106   7111     1
   7106   7119     1
   7106   7117     1
   7106   7125     1
   7107   7112     1
   7107   7120     1
   7107   7119     1
   7108   7118     1
   7109   7120     1
   7109   7111     1
   7110   7113     1
   7110   7125     1
   7110   7112     1
   7110   7120     1
   7110   7115     1
   7110   7111     1
   7111   7114     1
   7111   7118     1
   7111   7116     1
   7112   7114     1
   7121   7124     1
   7121   7125     1
   7122   7124     1
   7122   7125     1
   7126   7134     1
   7126   7142     1
   7126   7147     1
   7126   7135     1
   7127   7144     1
   7127   7145     1
   7127   7133     1
   7127   7141     1
   7128   7130     1
   7128   7139     1
   7128   7129     1
   7128   7146     1
   7128   7144     1
   7128   7145     1
   7128   7132     1
   7129   7140     1
   7129   7148     1
   7129   7131     1
   7129   7138     1
   7129   7134     1
   7129   7142     1
   7130   7142     1
   7130   7135     1
   7130   7143     1
   7131   7141     1
   7132   7134     1
   7132   7143     1
   7133   7138     1
   7133   7134     1
   7133   7136     1
   7133   7148     1
   7133   7135     1
   7133   7143     1
   7134   7139     1
   7134   7137     1
   7134   7141     1
   7135   7137     1
   7144   7148     1
   7144   7147     1
   7145   7148     1
   7145   7147     1
   7149   7157     1
   7149   7165     1
   7149   7170     1
   7149   7158     1
   7150   7156     1
   7150   7164     1
   7150   7167     1
   7150   7168     1
   7151   7153     1
   7151   7162     1
   7151   7152     1
   7151   7169     1
   7151   7167     1
   7151   7168     1
   7151   7155     1
   7152   7154     1
   7152   7161     1
   7152   7157     1
   7152   7165     1
   7152   7163     1
   7152   7171     1
   7153   7158     1
   7153   7166     1
   7153   7165     1
   7154   7164     1
   7155   7166     1
   7155   7157     1
   7156   7159     1
   7156   7171     1
   7156   7158     1
   7156   7166     1
   7156   7161     1
   7156   7157     1
   7157   7160     1
   7157   7164     1
   7157   7162     1
   7158   7160     1
   7167   7170     1
   7167   7171     1
   7168   7170     1
   7168   7171     1
   7172   7180     1
   7172   7188     1
   7172   7193     1
   7172   7181     1
   7173   7190     1
   7173   7191     1
   7173   7179     1
   7173   7187     1
   7174   7176     1
   7174   7185     1
   7174   7175     1
   7174   7192     1
   7174   7190     1
   7174   7191     1
   7174   7178     1
   7175   7186     1
   7175   7194     1
   7175   7177     1
   7175   7184     1
   7175   7180     1
   7175   7188     1
   7176   7188     1
   7176   7181     1
   7176   7189     1
   7177   7187     1
   7178   7180     1
   7178   7189     1
   7179   7184     1
   7179   7180     1
   7179   7182     1
   7179   7194     1
   7179   7181     1
   7179   7189     1
   7180   7185     1
   7180   7183     1
   7180   7187     1
   7181   7183     1
   7190   7194     1
   7190   7193     1
   7191   7194     1
   7191   7193     1
   7195   7203     1
   7195   7211     1
   7195   7216     1
   7195   7204     1
   7196   7202     1
   7196   7210     1
   7196   7213     1
   7196   7214     1
   7197   7199     1
   7197   7208     1
   7197   7198     1
   7197   7215     1
   7197   7213     1
   7197   7214     1
   7197   7201     1
   7198   7200     1
   7198   7207     1
   7198   7203     1
   7198   7211     1
   7198   7209     1
   7198   7217     1
   7199   7204     1
   7199   7212     1
   7199   7211     1
   7200   7210     1
   7201   7212     1
   7201   7203     1
   7202   7205     1
   7202   7217     1
   7202   7204     1
   7202   7212     1
   7202   7207     1
   7202   7203     1
   7203   7206     1
   7203   7210     1
   7203   7208     1
   7204   7206     1
   7213   7216     1
   7213   7217     1
   7214   7216     1
   7214   7217     1
   7218   7226     1
   7218   7234     1
   7218   7239     1
   7218   7227     1
   7219   7236     1
   7219   7237     1
   7219   7225     1
   7219   7233     1
   7220   7222     1
   7220   7231     1
   7220   7221     1
   7220   7238     1
   7220   7236     1
   7220   7237     1
   7220   7224     1
   7221   7232     1
   7221   7240     1
   7221   7223     1
   7221   7230     1
   7221   7226     1
   7221   7234     1
   7222   7234     1
   7222   7227     1
   7222   7235     1
   7223   7233     1
   7224   7226     1
   7224   7235     1
   7225   7230     1
   7225   7226     1
   7225   7228     1
   7225   7240     1
   7225   7227     1
   7225   7235     1
   7226   7231     1
   7226   7229     1
   7226   7233     1
   7227   7229     1
   7236   7240     1
   7236   7239     1
   7237   7240     1
   7237   7239     1
   7241   7249     1
   7241   7257     1
   7241   7262     1
   7241   7250     1
   7242   7248     1
   7242   7256     1
   7242   7259     1
   7242   7260     1
   7243   7245     1
   7243   7254     1
   7243   7244     1
   7243   7261     1
   7243   7259     1
   7243   7260     1
   7243   7247     1
   7244   7246     1
   7244   7253     1
   7244   7249     1
   7244   7257     1
   7244   7255     1
   7244   7263     1
   7245   7250     1
   7245   7258     1
   7245   7257     1
   7246   7256     1
   7247   7258     1
   7247   7249     1
   7248   7251     1
   7248   7263     1
   7248   7250     1
   7248   7258     1
   7248   7253     1
   7248   7249     1
   7249   7252     1
   7249   7256     1
   7249   7254     1
   7250   7252     1
   7259   7262     1
   7259   7263     1
   7260   7262     1
   7260   7263     1
   7264   7272     1
   7264   7280     1
   7264   7285     1
   7264   7273     1
   7265   7282     1
   7265   7283     1
   7265   7271     1
   7265   7279     1
   7266   7268     1
   7266   7277     1
   7266   7267     1
   7266   7284     1
   7266   7282     1
   7266   7283     1
   7266   7270     1
   7267   7278     1
   7267   7286     1
   7267   7269     1
   7267   7276     1
   7267   7272     1
   7267   7280     1
   7268   7280     1
   7268   7273     1
   7268   7281     1
   7269   7279     1
   7270   7272     1
   7270   7281     1
   7271   7276     1
   7271   7272     1
   7271   7274     1
   7271   7286     1
   7271   7273     1
   7271   7281     1
   7272   7277     1
   7272   7275     1
   7272   7279     1
   7273   7275     1
   7282   7286     1
   7282   7285     1
   7283   7286     1
   7283   7285     1
   7287   7295     1
   7287   7303     1
   7287   7308     1
   7287   7296     1
   7288   7294     1
   7288   7302     1
   7288   7305     1
   7288   7306     1
   7289   7291     1
   7289   7300     1
   7289   7290     1
   7289   7307     1
   7289   7305     1
   7289   7306     1
   7289   7293     1
   7290   7292     1
   7290   7299     1
   7290   7295     1
   7290   7303     1
   7290   7301     1
   7290   7309     1
   7291   7296     1
   7291   7304     1
   7291   7303     1
   7292   7302     1
   7293   7304     1
   7293   7295     1
   7294   7297     1
   7294   7309     1
   7294   7296     1
   7294   7304     1
   7294   7299     1
   7294   7295     1
   7295   7298     1
   7295   7302     1
   7295   7300     1
   7296   7298     1
   7305   7308     1
   7305   7309     1
   7306   7308     1
   7306   7309     1
   7310   7318     1
   7310   7326     1
   7310   7331     1
   7310   7319     1
   7311   7328     1
   7311   7329     1
   7311   7317     1
   7311   7325     1
   7312   7314     1
   7312   7323     1
   7312   7313     1
   7312   7330     1
   7312   7328     1
   7312   7329     1
   7312   7316     1
   7313   7324     1
   7313   7332     1
   7313   7315     1
   7313   7322     1
   7313   7318     1
   7313   7326     1
   7314   7326     1
   7314   7319     1
   7314   7327     1
   7315   7325     1
   7316   7318     1
   7316   7327     1
   7317   7322     1
   7317   7318     1
   7317   7320     1
   7317   7332     1
   7317   7319     1
   7317   7327     1
   7318   7323     1
   7318   7321     1
   7318   7325     1
   7319   7321     1
   7328   7332     1
   7328   7331     1
   7329   7332     1
   7329   7331     1
   7333   7341     1
   7333   7349     1
   7333   7354     1
   7333   7342     1
   7334   7340     1
   7334   7348     1
   7334   7351     1
   7334   7352     1
   7335   7337     1
   7335   7346     1
   7335   7336     1
   7335   7353     1
   7335   7351     1
   7335   7352     1
   7335   7339     1
   7336   7338     1
   7336   7345     1
   7336   7341     1
   7336   7349     1
   7336   7347     1
   7336   7355     1
   7337   7342     1
   7337   7350     1
   7337   7349     1
   7338   7348     1
   7339   7350     1
   7339   7341     1
   7340   7343     1
   7340   7355     1
   7340   7342     1
   7340   7350     1
   7340   7345     1
   7340   7341     1
   7341   7344     1
   7341   7348     1
   7341   7346     1
   7342   7344     1
   7351   7354     1
   7351   7355     1
   7352   7354     1
   7352   7355     1
   7356   7364     1
   7356   7372     1
   7356   7377     1
   7356   7365     1
   7357   7374     1
   7357   7375     1
   7357   7363     1
   7357   7371     1
   7358   7360     1
   7358   7369     1
   7358   7359     1
   7358   7376     1
   7358   7374     1
   7358   7375     1
   7358   7362     1
   7359   7370     1
   7359   7378     1
   7359   7361     1
   7359   7368     1
   7359   7364     1
   7359   7372     1
   7360   7372     1
   7360   7365     1
   7360   7373     1
   7361   7371     1
   7362   7364     1
   7362   7373     1
   7363   7368     1
   7363   7364     1
   7363   7366     1
   7363   7378     1
   7363   7365     1
   7363   7373     1
   7364   7369     1
   7364   7367     1
   7364   7371     1
   7365   7367     1
   7374   7378     1
   7374   7377     1
   7375   7378     1
   7375   7377     1
   7379   7387     1
   7379   7395     1
   7379   7400     1
   7379   7388     1
   7380   7386     1
   7380   7394     1
   7380   7397     1
   7380   7398     1
   7381   7383     1
   7381   7392     1
   7381   7382     1
   7381   7399     1
   7381   7397     1
   7381   7398     1
   7381   7385     1
   7382   7384     1
   7382   7391     1
   7382   7387     1
   7382   7395     1
   7382   7393     1
   7382   7401     1
   7383   7388     1
   7383   7396     1
   7383   7395     1
   7384   7394     1
   7385   7396     1
   7385   7387     1
   7386   7389     1
   7386   7401     1
   7386   7388     1
   7386   7396     1
   7386   7391     1
   7386   7387     1
   7387   7390     1
   7387   7394     1
   7387   7392     1
   7388   7390     1
   7397   7400     1
   7397   7401     1
   7398   7400     1
   7398   7401     1
   7402   7410     1
   7402   7418     1
   7402   7423     1
   7402   7411     1
   7403   7420     1
   7403   7421     1
   7403   7409     1
   7403   7417     1
   7404   7406     1
   7404   7415     1
   7404   7405     1
   7404   7422     1
   7404   7420     1
   7404   7421     1
   7404   7408     1
   7405   7416     1
   7405   7424     1
   7405   7407     1
   7405   7414     1
   7405   7410     1
   7405   7418     1
   7406   7418     1
   7406   7411     1
   7406   7419     1
   7407   7417     1
   7408   7410     1
   7408   7419     1
   7409   7414     1
   7409   7410     1
   7409   7412     1
   7409   7424     1
   7409   7411     1
   7409   7419     1
   7410   7415     1
   7410   7413     1
   7410   7417     1
   7411   7413     1
   7420   7424     1
   7420   7423     1
   7421   7424     1
   7421   7423     1
   7425   7433     1
   7425   7441     1
   7425   7446     1
   7425   7434     1
   7426   7432     1
   7426   7440     1
   7426   7443     1
   7426   7444     1
   7427   7429     1
   7427   7438     1
   7427   7428     1
   7427   7445     1
   7427   7443     1
   7427   7444     1
   7427   7431     1
   7428   7430     1
   7428   7437     1
   7428   7433     1
   7428   7441     1
   7428   7439     1
   7428   7447     1
   7429   7434     1
   7429   7442     1
   7429   7441     1
   7430   7440     1
   7431   7442     1
   7431   7433     1
   7432   7435     1
   7432   7447     1
   7432   7434     1
   7432   7442     1
   7432   7437     1
   7432   7433     1
   7433   7436     1
   7433   7440     1
   7433   7438     1
   7434   7436     1
   7443   7446     1
   7443   7447     1
   7444   7446     1
   7444   7447     1
   7448   7456     1
   7448   7464     1
   7448   7469     1
   7448   7457     1
   7449   7466     1
   7449   7467     1
   7449   7455     1
   7449   7463     1
   7450   7452     1
   7450   7461     1
   7450   7451     1
   7450   7468     1
   7450   7466     1
   7450   7467     1
   7450   7454     1
   7451   7462     1
   7451   7470     1
   7451   7453     1
   7451   7460     1
   7451   7456     1
   7451   7464     1
   7452   7464     1
   7452   7457     1
   7452   7465     1
   7453   7463     1
   7454   7456     1
   7454   7465     1
   7455   7460     1
   7455   7456     1
   7455   7458     1
   7455   7470     1
   7455   7457     1
   7455   7465     1
   7456   7461     1
   7456   7459     1
   7456   7463     1
   7457   7459     1
   7466   7470     1
   7466   7469     1
   7467   7470     1
   7467   7469     1
   7471   7479     1
   7471   7487     1
   7471   7492     1
   7471   7480     1
   7472   7478     1
   7472   7486     1
   7472   7489     1
   7472   7490     1
   7473   7475     1
   7473   7484     1
   7473   7474     1
   7473   7491     1
   7473   7489     1
   7473   7490     1
   7473   7477     1
   7474   7476     1
   7474   7483     1
   7474   7479     1
   7474   7487     1
   7474   7485     1
   7474   7493     1
   7475   7480     1
   7475   7488     1
   7475   7487     1
   7476   7486     1
   7477   7488     1
   7477   7479     1
   7478   7481     1
   7478   7493     1
   7478   7480     1
   7478   7488     1
   7478   7483     1
   7478   7479     1
   7479   7482     1
   7479   7486     1
   7479   7484     1
   7480   7482     1
   7489   7492     1
   7489   7493     1
   7490   7492     1
   7490   7493     1
   7494   7502     1
   7494   7510     1
   7494   7515     1
   7494   7503     1
   7495   7512     1
   7495   7513     1
   7495   7501     1
   7495   7509     1
   7496   7498     1
   7496   7507     1
   7496   7497     1
   7496   7514     1
   7496   7512     1
   7496   7513     1
   7496   7500     1
   7497   7508     1
   7497   7516     1
   7497   7499     1
   7497   7506     1
   7497   7502     1
   7497   7510     1
   7498   7510     1
   7498   7503     1
   7498   7511     1
   7499   7509     1
   7500   7502     1
   7500   7511     1
   7501   7506     1
   7501   7502     1
   7501   7504     1
   7501   7516     1
   7501   7503     1
   7501   7511     1
   7502   7507     1
   7502   7505     1
   7502   7509     1
   7503   7505     1
   7512   7516     1
   7512   7515     1
   7513   7516     1
   7513   7515     1
   7517   7525     1
   7517   7533     1
   7517   7538     1
   7517   7526     1
   7518   7524     1
   7518   7532     1
   7518   7535     1
   7518   7536     1
   7519   7521     1
   7519   7530     1
   7519   7520     1
   7519   7537     1
   7519   7535     1
   7519   7536     1
   7519   7523     1
   7520   7522     1
   7520   7529     1
   7520   7525     1
   7520   7533     1
   7520   7531     1
   7520   7539     1
   7521   7526     1
   7521   7534     1
   7521   7533     1
   7522   7532     1
   7523   7534     1
   7523   7525     1
   7524   7527     1
   7524   7539     1
   7524   7526     1
   7524   7534     1
   7524   7529     1
   7524   7525     1
   7525   7528     1
   7525   7532     1
   7525   7530     1
   7526   7528     1
   7535   7538     1
   7535   7539     1
   7536   7538     1
   7536   7539     1
   7540   7548     1
   7540   7556     1
   7540   7561     1
   7540   7549     1
   7541   7558     1
   7541   7559     1
   7541   7547     1
   7541   7555     1
   7542   7544     1
   7542   7553     1
   7542   7543     1
   7542   7560     1
   7542   7558     1
   7542   7559     1
   7542   7546     1
   7543   7554     1
   7543   7562     1
   7543   7545     1
   7543   7552     1
   7543   7548     1
   7543   7556     1
   7544   7556     1
   7544   7549     1
   7544   7557     1
   7545   7555     1
   7546   7548     1
   7546   7557     1
   7547   7552     1
   7547   7548     1
   7547   7550     1
   7547   7562     1
   7547   7549     1
   7547   7557     1
   7548   7553     1
   7548   7551     1
   7548   7555     1
   7549   7551     1
   7558   7562     1
   7558   7561     1
   7559   7562     1
   7559   7561     1
   7563   7571     1
   7563   7579     1
   7563   7584     1
   7563   7572     1
   7564   7570     1
   7564   7578     1
   7564   7581     1
   7564   7582     1
   7565   7567     1
   7565   7576     1
   7565   7566     1
   7565   7583     1
   7565   7581     1
   7565   7582     1
   7565   7569     1
   7566   7568     1
   7566   7575     1
   7566   7571     1
   7566   7579     1
   7566   7577     1
   7566   7585     1
   7567   7572     1
   7567   7580     1
   7567   7579     1
   7568   7578     1
   7569   7580     1
   7569   7571     1
   7570   7573     1
   7570   7585     1
   7570   7572     1
   7570   7580     1
   7570   7575     1
   7570   7571     1
   7571   7574     1
   7571   7578     1
   7571   7576     1
   7572   7574     1
   7581   7584     1
   7581   7585     1
   7582   7584     1
   7582   7585     1
   7586   7594     1
   7586   7602     1
   7586   7607     1
   7586   7595     1
   7587   7604     1
   7587   7605     1
   7587   7593     1
   7587   7601     1
   7588   7590     1
   7588   7599     1
   7588   7589     1
   7588   7606     1
   7588   7604     1
   7588   7605     1
   7588   7592     1
   7589   7600     1
   7589   7608     1
   7589   7591     1
   7589   7598     1
   7589   7594     1
   7589   7602     1
   7590   7602     1
   7590   7595     1
   7590   7603     1
   7591   7601     1
   7592   7594     1
   7592   7603     1
   7593   7598     1
   7593   7594     1
   7593   7596     1
   7593   7608     1
   7593   7595     1
   7593   7603     1
   7594   7599     1
   7594   7597     1
   7594   7601     1
   7595   7597     1
   7604   7608     1
   7604   7607     1
   7605   7608     1
   7605   7607     1
   7609   7617     1
   7609   7625     1
   7609   7630     1
   7609   7618     1
   7610   7616     1
   7610   7624     1
   7610   7627     1
   7610   7628     1
   7611   7613     1
   7611   7622     1
   7611   7612     1
   7611   7629     1
   7611   7627     1
   7611   7628     1
   7611   7615     1
   7612   7614     1
   7612   7621     1
   7612   7617     1
   7612   7625     1
   7612   7623     1
   7612   7631     1
   7613   7618     1
   7613   7626     1
   7613   7625     1
   7614   7624     1
   7615   7626     1
   7615   7617     1
   7616   7619     1
   7616   7631     1
   7616   7618     1
   7616   7626     1
   7616   7621     1
   7616   7617     1
   7617   7620     1
   7617   7624     1
   7617   7622     1
   7618   7620     1
   7627   7630     1
   7627   7631     1
   7628   7630     1
   7628   7631     1
   7632   7640     1
   7632   7648     1
   7632   7653     1
   7632   7641     1
   7633   7650     1
   7633   7651     1
   7633   7639     1
   7633   7647     1
   7634   7636     1
   7634   7645     1
   7634   7635     1
   7634   7652     1
   7634   7650     1
   7634   7651     1
   7634   7638     1
   7635   7646     1
   7635   7654     1
   7635   7637     1
   7635   7644     1
   7635   7640     1
   7635   7648     1
   7636   7648     1
   7636   7641     1
   7636   7649     1
   7637   7647     1
   7638   7640     1
   7638   7649     1
   7639   7644     1
   7639   7640     1
   7639   7642     1
   7639   7654     1
   7639   7641     1
   7639   7649     1
   7640   7645     1
   7640   7643     1
   7640   7647     1
   7641   7643     1
   7650   7654     1
   7650   7653     1
   7651   7654     1
   7651   7653     1
   7655   7663     1
   7655   7671     1
   7655   7676     1
   7655   7664     1
   7656   7662     1
   7656   7670     1
   7656   7673     1
   7656   7674     1
   7657   7659     1
   7657   7668     1
   7657   7658     1
   7657   7675     1
   7657   7673     1
   7657   7674     1
   7657   7661     1
   7658   7660     1
   7658   7667     1
   7658   7663     1
   7658   7671     1
   7658   7669     1
   7658   7677     1
   7659   7664     1
   7659   7672     1
   7659   7671     1
   7660   7670     1
   7661   7672     1
   7661   7663     1
   7662   7665     1
   7662   7677     1
   7662   7664     1
   7662   7672     1
   7662   7667     1
   7662   7663     1
   7663   7666     1
   7663   7670     1
   7663   7668     1
   7664   7666     1
   7673   7676     1
   7673   7677     1
   7674   7676     1
   7674   7677     1
   7678   7686     1
   7678   7694     1
   7678   7699     1
   7678   7687     1
   7679   7696     1
   7679   7697     1
   7679   7685     1
   7679   7693     1
   7680   7682     1
   7680   7691     1
   7680   7681     1
   7680   7698     1
   7680   7696     1
   7680   7697     1
   7680   7684     1
   7681   7692     1
   7681   7700     1
   7681   7683     1
   7681   7690     1
   7681   7686     1
   7681   7694     1
   7682   7694     1
   7682   7687     1
   7682   7695     1
   7683   7693     1
   7684   7686     1
   7684   7695     1
   7685   7690     1
   7685   7686     1
   7685   7688     1
   7685   7700     1
   7685   7687     1
   7685   7695     1
   7686   7691     1
   7686   7689     1
   7686   7693     1
   7687   7689     1
   7696   7700     1
   7696   7699     1
   7697   7700     1
   7697   7699     1
   7701   7709     1
   7701   7717     1
   7701   7722     1
   7701   7710     1
   7702   7708     1
   7702   7716     1
   7702   7719     1
   7702   7720     1
   7703   7705     1
   7703   7714     1
   7703   7704     1
   7703   7721     1
   7703   7719     1
   7703   7720     1
   7703   7707     1
   7704   7706     1
   7704   7713     1
   7704   7709     1
   7704   7717     1
   7704   7715     1
   7704   7723     1
   7705   7710     1
   7705   7718     1
   7705   7717     1
   7706   7716     1
   7707   7718     1
   7707   7709     1
   7708   7711     1
   7708   7723     1
   7708   7710     1
   7708   7718     1
   7708   7713     1
   7708   7709     1
   7709   7712     1
   7709   7716     1
   7709   7714     1
   7710   7712     1
   7719   7722     1
   7719   7723     1
   7720   7722     1
   7720   7723     1
   7724   7732     1
   7724   7740     1
   7724   7745     1
   7724   7733     1
   7725   7742     1
   7725   7743     1
   7725   7731     1
   7725   7739     1
   7726   7728     1
   7726   7737     1
   7726   7727     1
   7726   7744     1
   7726   7742     1
   7726   7743     1
   7726   7730     1
   7727   7738     1
   7727   7746     1
   7727   7729     1
   7727   7736     1
   7727   7732     1
   7727   7740     1
   7728   7740     1
   7728   7733     1
   7728   7741     1
   7729   7739     1
   7730   7732     1
   7730   7741     1
   7731   7736     1
   7731   7732     1
   7731   7734     1
   7731   7746     1
   7731   7733     1
   7731   7741     1
   7732   7737     1
   7732   7735     1
   7732   7739     1
   7733   7735     1
   7742   7746     1
   7742   7745     1
   7743   7746     1
   7743   7745     1
   7747   7755     1
   7747   7763     1
   7747   7768     1
   7747   7756     1
   7748   7754     1
   7748   7762     1
   7748   7765     1
   7748   7766     1
   7749   7751     1
   7749   7760     1
   7749   7750     1
   7749   7767     1
   7749   7765     1
   7749   7766     1
   7749   7753     1
   7750   7752     1
   7750   7759     1
   7750   7755     1
   7750   7763     1
   7750   7761     1
   7750   7769     1
   7751   7756     1
   7751   7764     1
   7751   7763     1
   7752   7762     1
   7753   7764     1
   7753   7755     1
   7754   7757     1
   7754   7769     1
   7754   7756     1
   7754   7764     1
   7754   7759     1
   7754   7755     1
   7755   7758     1
   7755   7762     1
   7755   7760     1
   7756   7758     1
   7765   7768     1
   7765   7769     1
   7766   7768     1
   7766   7769     1
   7770   7778     1
   7770   7786     1
   7770   7791     1
   7770   7779     1
   7771   7788     1
   7771   7789     1
   7771   7777     1
   7771   7785     1
   7772   7774     1
   7772   7783     1
   7772   7773     1
   7772   7790     1
   7772   7788     1
   7772   7789     1
   7772   7776     1
   7773   7784     1
   7773   7792     1
   7773   7775     1
   7773   7782     1
   7773   7778     1
   7773   7786     1
   7774   7786     1
   7774   7779     1
   7774   7787     1
   7775   7785     1
   7776   7778     1
   7776   7787     1
   7777   7782     1
   7777   7778     1
   7777   7780     1
   7777   7792     1
   7777   7779     1
   7777   7787     1
   7778   7783     1
   7778   7781     1
   7778   7785     1
   7779   7781     1
   7788   7792     1
   7788   7791     1
   7789   7792     1
   7789   7791     1
   7793   7801     1
   7793   7809     1
   7793   7814     1
   7793   7802     1
   7794   7800     1
   7794   7808     1
   7794   7811     1
   7794   7812     1
   7795   7797     1
   7795   7806     1
   7795   7796     1
   7795   7813     1
   7795   7811     1
   7795   7812     1
   7795   7799     1
   7796   7798     1
   7796   7805     1
   7796   7801     1
   7796   7809     1
   7796   7807     1
   7796   7815     1
   7797   7802     1
   7797   7810     1
   7797   7809     1
   7798   7808     1
   7799   7810     1
   7799   7801     1
   7800   7803     1
   7800   7815     1
   7800   7802     1
   7800   7810     1
   7800   7805     1
   7800   7801     1
   7801   7804     1
   7801   7808     1
   7801   7806     1
   7802   7804     1
   7811   7814     1
   7811   7815     1
   7812   7814     1
   7812   7815     1
   7816   7824     1
   7816   7832     1
   7816   7837     1
   7816   7825     1
   7817   7834     1
   7817   7835     1
   7817   7823     1
   7817   7831     1
   7818   7820     1
   7818   7829     1
   7818   7819     1
   7818   7836     1
   7818   7834     1
   7818   7835     1
   7818   7822     1
   7819   7830     1
   7819   7838     1
   7819   7821     1
   7819   7828     1
   7819   7824     1
   7819   7832     1
   7820   7832     1
   7820   7825     1
   7820   7833     1
   7821   7831     1
   7822   7824     1
   7822   7833     1
   7823   7828     1
   7823   7824     1
   7823   7826     1
   7823   7838     1
   7823   7825     1
   7823   7833     1
   7824   7829     1
   7824   7827     1
   7824   7831     1
   7825   7827     1
   7834   7838     1
   7834   7837     1
   7835   7838     1
   7835   7837     1
   7839   7847     1
   7839   7855     1
   7839   7860     1
   7839   7848     1
   7840   7846     1
   7840   7854     1
   7840   7857     1
   7840   7858     1
   7841   7843     1
   7841   7852     1
   7841   7842     1
   7841   7859     1
   7841   7857     1
   7841   7858     1
   7841   7845     1
   7842   7844     1
   7842   7851     1
   7842   7847     1
   7842   7855     1
   7842   7853     1
   7842   7861     1
   7843   7848     1
   7843   7856     1
   7843   7855     1
   7844   7854     1
   7845   7856     1
   7845   7847     1
   7846   7849     1
   7846   7861     1
   7846   7848     1
   7846   7856     1
   7846   7851     1
   7846   7847     1
   7847   7850     1
   7847   7854     1
   7847   7852     1
   7848   7850     1
   7857   7860     1
   7857   7861     1
   7858   7860     1
   7858   7861     1
   7862   7870     1
   7862   7878     1
   7862   7883     1
   7862   7871     1
   7863   7880     1
   7863   7881     1
   7863   7869     1
   7863   7877     1
   7864   7866     1
   7864   7875     1
   7864   7865     1
   7864   7882     1
   7864   7880     1
   7864   7881     1
   7864   7868     1
   7865   7876     1
   7865   7884     1
   7865   7867     1
   7865   7874     1
   7865   7870     1
   7865   7878     1
   7866   7878     1
   7866   7871     1
   7866   7879     1
   7867   7877     1
   7868   7870     1
   7868   7879     1
   7869   7874     1
   7869   7870     1
   7869   7872     1
   7869   7884     1
   7869   7871     1
   7869   7879     1
   7870   7875     1
   7870   7873     1
   7870   7877     1
   7871   7873     1
   7880   7884     1
   7880   7883     1
   7881   7884     1
   7881   7883     1
   7885   7893     1
   7885   7901     1
   7885   7906     1
   7885   7894     1
   7886   7892     1
   7886   7900     1
   7886   7903     1
   7886   7904     1
   7887   7889     1
   7887   7898     1
   7887   7888     1
   7887   7905     1
   7887   7903     1
   7887   7904     1
   7887   7891     1
   7888   7890     1
   7888   7897     1
   7888   7893     1
   7888   7901     1
   7888   7899     1
   7888   7907     1
   7889   7894     1
   7889   7902     1
   7889   7901     1
   7890   7900     1
   7891   7902     1
   7891   7893     1
   7892   7895     1
   7892   7907     1
   7892   7894     1
   7892   7902     1
   7892   7897     1
   7892   7893     1
   7893   7896     1
   7893   7900     1
   7893   7898     1
   7894   7896     1
   7903   7906     1
   7903   7907     1
   7904   7906     1
   7904   7907     1
   7908   7916     1
   7908   7924     1
   7908   7929     1
   7908   7917     1
   7909   7926     1
   7909   7927     1
   7909   7915     1
   7909   7923     1
   7910   7912     1
   7910   7921     1
   7910   7911     1
   7910   7928     1
   7910   7926     1
   7910   7927     1
   7910   7914     1
   7911   7922     1
   7911   7930     1
   7911   7913     1
   7911   7920     1
   7911   7916     1
   7911   7924     1
   7912   7924     1
   7912   7917     1
   7912   7925     1
   7913   7923     1
   7914   7916     1
   7914   7925     1
   7915   7920     1
   7915   7916     1
   7915   7918     1
   7915   7930     1
   7915   7917     1
   7915   7925     1
   7916   7921     1
   7916   7919     1
   7916   7923     1
   7917   7919     1
   7926   7930     1
   7926   7929     1
   7927   7930     1
   7927   7929     1
   7931   7939     1
   7931   7947     1
   7931   7952     1
   7931   7940     1
   7932   7938     1
   7932   7946     1
   7932   7949     1
   7932   7950     1
   7933   7935     1
   7933   7944     1
   7933   7934     1
   7933   7951     1
   7933   7949     1
   7933   7950     1
   7933   7937     1
   7934   7936     1
   7934   7943     1
   7934   7939     1
   7934   7947     1
   7934   7945     1
   7934   7953     1
   7935   7940     1
   7935   7948     1
   7935   7947     1
   7936   7946     1
   7937   7948     1
   7937   7939     1
   7938   7941     1
   7938   7953     1
   7938   7940     1
   7938   7948     1
   7938   7943     1
   7938   7939     1
   7939   7942     1
   7939   7946     1
   7939   7944     1
   7940   7942     1
   7949   7952     1
   7949   7953     1
   7950   7952     1
   7950   7953     1
   7954   7962     1
   7954   7970     1
   7954   7975     1
   7954   7963     1
   7955   7972     1
   7955   7973     1
   7955   7961     1
   7955   7969     1
   7956   7958     1
   7956   7967     1
   7956   7957     1
   7956   7974     1
   7956   7972     1
   7956   7973     1
   7956   7960     1
   7957   7968     1
   7957   7976     1
   7957   7959     1
   7957   7966     1
   7957   7962     1
   7957   7970     1
   7958   7970     1
   7958   7963     1
   7958   7971     1
   7959   7969     1
   7960   7962     1
   7960   7971     1
   7961   7966     1
   7961   7962     1
   7961   7964     1
   7961   7976     1
   7961   7963     1
   7961   7971     1
   7962   7967     1
   7962   7965     1
   7962   7969     1
   7963   7965     1
   7972   7976     1
   7972   7975     1
   7973   7976     1
   7973   7975     1
   7977   7985     1
   7977   7993     1
   7977   7998     1
   7977   7986     1
   7978   7984     1
   7978   7992     1
   7978   7995     1
   7978   7996     1
   7979   7981     1
   7979   7990     1
   7979   7980     1
   7979   7997     1
   7979   7995     1
   7979   7996     1
   7979   7983     1
   7980   7982     1
   7980   7989     1
   7980   7985     1
   7980   7993     1
   7980   7991     1
   7980   7999     1
   7981   7986     1
   7981   7994     1
   7981   7993     1
   7982   7992     1
   7983   7994     1
   7983   7985     1
   7984   7987     1
   7984   7999     1
   7984   7986     1
   7984   7994     1
   7984   7989     1
   7984   7985     1
   7985   7988     1
   7985   7992     1
   7985   7990     1
   7986   7988     1
   7995   7998     1
   7995   7999     1
   7996   7998     1
   7996   7999     1
   8000   8008     1
   8000   8016     1
   8000   8021     1
   8000   8009     1
   8001   8018     1
   8001   8019     1
   8001   8007     1
   8001   8015     1
   8002   8004     1
   8002   8013     1
   8002   8003     1
   8002   8020     1
   8002   8018     1
   8002   8019     1
   8002   8006     1
   8003   8014     1
   8003   8022     1
   8003   8005     1
   8003   8012     1
   8003   8008     1
   8003   8016     1
   8004   8016     1
   8004   8009     1
   8004   8017     1
   8005   8015     1
   8006   8008     1
   8006   8017     1
   8007   8012     1
   8007   8008     1
   8007   8010     1
   8007   8022     1
   8007   8009     1
   8007   8017     1
   8008   8013     1
   8008   8011     1
   8008   8015     1
   8009   8011     1
   8018   8022     1
   8018   8021     1
   8019   8022     1
   8019   8021     1
   8023   8031     1
   8023   8039     1
   8023   8044     1
   8023   8032     1
   8024   8030     1
   8024   8038     1
   8024   8041     1
   8024   8042     1
   8025   8027     1
   8025   8036     1
   8025   8026     1
   8025   8043     1
   8025   8041     1
   8025   8042     1
   8025   8029     1
   8026   8028     1
   8026   8035     1
   8026   8031     1
   8026   8039     1
   8026   8037     1
   8026   8045     1
   8027   8032     1
   8027   8040     1
   8027   8039     1
   8028   8038     1
   8029   8040     1
   8029   8031     1
   8030   8033     1
   8030   8045     1
   8030   8032     1
   8030   8040     1
   8030   8035     1
   8030   8031     1
   8031   8034     1
   8031   8038     1
   8031   8036     1
   8032   8034     1
   8041   8044     1
   8041   8045     1
   8042   8044     1
   8042   8045     1
   8046   8054     1
   8046   8062     1
   8046   8067     1
   8046   8055     1
   8047   8064     1
   8047   8065     1
   8047   8053     1
   8047   8061     1
   8048   8050     1
   8048   8059     1
   8048   8049     1
   8048   8066     1
   8048   8064     1
   8048   8065     1
   8048   8052     1
   8049   8060     1
   8049   8068     1
   8049   8051     1
   8049   8058     1
   8049   8054     1
   8049   8062     1
   8050   8062     1
   8050   8055     1
   8050   8063     1
   8051   8061     1
   8052   8054     1
   8052   8063     1
   8053   8058     1
   8053   8054     1
   8053   8056     1
   8053   8068     1
   8053   8055     1
   8053   8063     1
   8054   8059     1
   8054   8057     1
   8054   8061     1
   8055   8057     1
   8064   8068     1
   8064   8067     1
   8065   8068     1
   8065   8067     1
   8069   8077     1
   8069   8085     1
   8069   8090     1
   8069   8078     1
   8070   8076     1
   8070   8084     1
   8070   8087     1
   8070   8088     1
   8071   8073     1
   8071   8082     1
   8071   8072     1
   8071   8089     1
   8071   8087     1
   8071   8088     1
   8071   8075     1
   8072   8074     1
   8072   8081     1
   8072   8077     1
   8072   8085     1
   8072   8083     1
   8072   8091     1
   8073   8078     1
   8073   8086     1
   8073   8085     1
   8074   8084     1
   8075   8086     1
   8075   8077     1
   8076   8079     1
   8076   8091     1
   8076   8078     1
   8076   8086     1
   8076   8081     1
   8076   8077     1
   8077   8080     1
   8077   8084     1
   8077   8082     1
   8078   8080     1
   8087   8090     1
   8087   8091     1
   8088   8090     1
   8088   8091     1
   8092   8100     1
   8092   8108     1
   8092   8113     1
   8092   8101     1
   8093   8110     1
   8093   8111     1
   8093   8099     1
   8093   8107     1
   8094   8096     1
   8094   8105     1
   8094   8095     1
   8094   8112     1
   8094   8110     1
   8094   8111     1
   8094   8098     1
   8095   8106     1
   8095   8114     1
   8095   8097     1
   8095   8104     1
   8095   8100     1
   8095   8108     1
   8096   8108     1
   8096   8101     1
   8096   8109     1
   8097   8107     1
   8098   8100     1
   8098   8109     1
   8099   8104     1
   8099   8100     1
   8099   8102     1
   8099   8114     1
   8099   8101     1
   8099   8109     1
   8100   8105     1
   8100   8103     1
   8100   8107     1
   8101   8103     1
   8110   8114     1
   8110   8113     1
   8111   8114     1
   8111   8113     1
   8115   8123     1
   8115   8131     1
   8115   8136     1
   8115   8124     1
   8116   8122     1
   8116   8130     1
   8116   8133     1
   8116   8134     1
   8117   8119     1
   8117   8128     1
   8117   8118     1
   8117   8135     1
   8117   8133     1
   8117   8134     1
   8117   8121     1
   8118   8120     1
   8118   8127     1
   8118   8123     1
   8118   8131     1
   8118   8129     1
   8118   8137     1
   8119   8124     1
   8119   8132     1
   8119   8131     1
   8120   8130     1
   8121   8132     1
   8121   8123     1
   8122   8125     1
   8122   8137     1
   8122   8124     1
   8122   8132     1
   8122   8127     1
   8122   8123     1
   8123   8126     1
   8123   8130     1
   8123   8128     1
   8124   8126     1
   8133   8136     1
   8133   8137     1
   8134   8136     1
   8134   8137     1
   8138   8146     1
   8138   8154     1
   8138   8159     1
   8138   8147     1
   8139   8156     1
   8139   8157     1
   8139   8145     1
   8139   8153     1
   8140   8142     1
   8140   8151     1
   8140   8141     1
   8140   8158     1
   8140   8156     1
   8140   8157     1
   8140   8144     1
   8141   8152     1
   8141   8160     1
   8141   8143     1
   8141   8150     1
   8141   8146     1
   8141   8154     1
   8142   8154     1
   8142   8147     1
   8142   8155     1
   8143   8153     1
   8144   8146     1
   8144   8155     1
   8145   8150     1
   8145   8146     1
   8145   8148     1
   8145   8160     1
   8145   8147     1
   8145   8155     1
   8146   8151     1
   8146   8149     1
   8146   8153     1
   8147   8149     1
   8156   8160     1
   8156   8159     1
   8157   8160     1
   8157   8159     1
   8161   8169     1
   8161   8177     1
   8161   8182     1
   8161   8170     1
   8162   8168     1
   8162   8176     1
   8162   8179     1
   8162   8180     1
   8163   8165     1
   8163   8174     1
   8163   8164     1
   8163   8181     1
   8163   8179     1
   8163   8180     1
   8163   8167     1
   8164   8166     1
   8164   8173     1
   8164   8169     1
   8164   8177     1
   8164   8175     1
   8164   8183     1
   8165   8170     1
   8165   8178     1
   8165   8177     1
   8166   8176     1
   8167   8178     1
   8167   8169     1
   8168   8171     1
   8168   8183     1
   8168   8170     1
   8168   8178     1
   8168   8173     1
   8168   8169     1
   8169   8172     1
   8169   8176     1
   8169   8174     1
   8170   8172     1
   8179   8182     1
   8179   8183     1
   8180   8182     1
   8180   8183     1
   8184   8192     1
   8184   8200     1
   8184   8205     1
   8184   8193     1
   8185   8202     1
   8185   8203     1
   8185   8191     1
   8185   8199     1
   8186   8188     1
   8186   8197     1
   8186   8187     1
   8186   8204     1
   8186   8202     1
   8186   8203     1
   8186   8190     1
   8187   8198     1
   8187   8206     1
   8187   8189     1
   8187   8196     1
   8187   8192     1
   8187   8200     1
   8188   8200     1
   8188   8193     1
   8188   8201     1
   8189   8199     1
   8190   8192     1
   8190   8201     1
   8191   8196     1
   8191   8192     1
   8191   8194     1
   8191   8206     1
   8191   8193     1
   8191   8201     1
   8192   8197     1
   8192   8195     1
   8192   8199     1
   8193   8195     1
   8202   8206     1
   8202   8205     1
   8203   8206     1
   8203   8205     1
   8207   8215     1
   8207   8223     1
   8207   8228     1
   8207   8216     1
   8208   8214     1
   8208   8222     1
   8208   8225     1
   8208   8226     1
   8209   8211     1
   8209   8220     1
   8209   8210     1
   8209   8227     1
   8209   8225     1
   8209   8226     1
   8209   8213     1
   8210   8212     1
   8210   8219     1
   8210   8215     1
   8210   8223     1
   8210   8221     1
   8210   8229     1
   8211   8216     1
   8211   8224     1
   8211   8223     1
   8212   8222     1
   8213   8224     1
   8213   8215     1
   8214   8217     1
   8214   8229     1
   8214   8216     1
   8214   8224     1
   8214   8219     1
   8214   8215     1
   8215   8218     1
   8215   8222     1
   8215   8220     1
   8216   8218     1
   8225   8228     1
   8225   8229     1
   8226   8228     1
   8226   8229     1
   8230   8238     1
   8230   8246     1
   8230   8251     1
   8230   8239     1
   8231   8248     1
   8231   8249     1
   8231   8237     1
   8231   8245     1
   8232   8234     1
   8232   8243     1
   8232   8233     1
   8232   8250     1
   8232   8248     1
   8232   8249     1
   8232   8236     1
   8233   8244     1
   8233   8252     1
   8233   8235     1
   8233   8242     1
   8233   8238     1
   8233   8246     1
   8234   8246     1
   8234   8239     1
   8234   8247     1
   8235   8245     1
   8236   8238     1
   8236   8247     1
   8237   8242     1
   8237   8238     1
   8237   8240     1
   8237   8252     1
   8237   8239     1
   8237   8247     1
   8238   8243     1
   8238   8241     1
   8238   8245     1
   8239   8241     1
   8248   8252     1
   8248   8251     1
   8249   8252     1
   8249   8251     1
   8253   8261     1
   8253   8269     1
   8253   8274     1
   8253   8262     1
   8254   8260     1
   8254   8268     1
   8254   8271     1
   8254   8272     1
   8255   8257     1
   8255   8266     1
   8255   8256     1
   8255   8273     1
   8255   8271     1
   8255   8272     1
   8255   8259     1
   8256   8258     1
   8256   8265     1
   8256   8261     1
   8256   8269     1
   8256   8267     1
   8256   8275     1
   8257   8262     1
   8257   8270     1
   8257   8269     1
   8258   8268     1
   8259   8270     1
   8259   8261     1
   8260   8263     1
   8260   8275     1
   8260   8262     1
   8260   8270     1
   8260   8265     1
   8260   8261     1
   8261   8264     1
   8261   8268     1
   8261   8266     1
   8262   8264     1
   8271   8274     1
   8271   8275     1
   8272   8274     1
   8272   8275     1
   8276   8284     1
   8276   8292     1
   8276   8297     1
   8276   8285     1
   8277   8294     1
   8277   8295     1
   8277   8283     1
   8277   8291     1
   8278   8280     1
   8278   8289     1
   8278   8279     1
   8278   8296     1
   8278   8294     1
   8278   8295     1
   8278   8282     1
   8279   8290     1
   8279   8298     1
   8279   8281     1
   8279   8288     1
   8279   8284     1
   8279   8292     1
   8280   8292     1
   8280   8285     1
   8280   8293     1
   8281   8291     1
   8282   8284     1
   8282   8293     1
   8283   8288     1
   8283   8284     1
   8283   8286     1
   8283   8298     1
   8283   8285     1
   8283   8293     1
   8284   8289     1
   8284   8287     1
   8284   8291     1
   8285   8287     1
   8294   8298     1
   8294   8297     1
   8295   8298     1
   8295   8297     1
   8299   8307     1
   8299   8315     1
   8299   8320     1
   8299   8308     1
   8300   8306     1
   8300   8314     1
   8300   8317     1
   8300   8318     1
   8301   8303     1
   8301   8312     1
   8301   8302     1
   8301   8319     1
   8301   8317     1
   8301   8318     1
   8301   8305     1
   8302   8304     1
   8302   8311     1
   8302   8307     1
   8302   8315     1
   8302   8313     1
   8302   8321     1
   8303   8308     1
   8303   8316     1
   8303   8315     1
   8304   8314     1
   8305   8316     1
   8305   8307     1
   8306   8309     1
   8306   8321     1
   8306   8308     1
   8306   8316     1
   8306   8311     1
   8306   8307     1
   8307   8310     1
   8307   8314     1
   8307   8312     1
   8308   8310     1
   8317   8320     1
   8317   8321     1
   8318   8320     1
   8318   8321     1
   8322   8330     1
   8322   8338     1
   8322   8343     1
   8322   8331     1
   8323   8340     1
   8323   8341     1
   8323   8329     1
   8323   8337     1
   8324   8326     1
   8324   8335     1
   8324   8325     1
   8324   8342     1
   8324   8340     1
   8324   8341     1
   8324   8328     1
   8325   8336     1
   8325   8344     1
   8325   8327     1
   8325   8334     1
   8325   8330     1
   8325   8338     1
   8326   8338     1
   8326   8331     1
   8326   8339     1
   8327   8337     1
   8328   8330     1
   8328   8339     1
   8329   8334     1
   8329   8330     1
   8329   8332     1
   8329   8344     1
   8329   8331     1
   8329   8339     1
   8330   8335     1
   8330   8333     1
   8330   8337     1
   8331   8333     1
   8340   8344     1
   8340   8343     1
   8341   8344     1
   8341   8343     1
   8345   8353     1
   8345   8361     1
   8345   8366     1
   8345   8354     1
   8346   8352     1
   8346   8360     1
   8346   8363     1
   8346   8364     1
   8347   8349     1
   8347   8358     1
   8347   8348     1
   8347   8365     1
   8347   8363     1
   8347   8364     1
   8347   8351     1
   8348   8350     1
   8348   8357     1
   8348   8353     1
   8348   8361     1
   8348   8359     1
   8348   8367     1
   8349   8354     1
   8349   8362     1
   8349   8361     1
   8350   8360     1
   8351   8362     1
   8351   8353     1
   8352   8355     1
   8352   8367     1
   8352   8354     1
   8352   8362     1
   8352   8357     1
   8352   8353     1
   8353   8356     1
   8353   8360     1
   8353   8358     1
   8354   8356     1
   8363   8366     1
   8363   8367     1
   8364   8366     1
   8364   8367     1
   8368   8376     1
   8368   8384     1
   8368   8389     1
   8368   8377     1
   8369   8386     1
   8369   8387     1
   8369   8375     1
   8369   8383     1
   8370   8372     1
   8370   8381     1
   8370   8371     1
   8370   8388     1
   8370   8386     1
   8370   8387     1
   8370   8374     1
   8371   8382     1
   8371   8390     1
   8371   8373     1
   8371   8380     1
   8371   8376     1
   8371   8384     1
   8372   8384     1
   8372   8377     1
   8372   8385     1
   8373   8383     1
   8374   8376     1
   8374   8385     1
   8375   8380     1
   8375   8376     1
   8375   8378     1
   8375   8390     1
   8375   8377     1
   8375   8385     1
   8376   8381     1
   8376   8379     1
   8376   8383     1
   8377   8379     1
   8386   8390     1
   8386   8389     1
   8387   8390     1
   8387   8389     1
   8391   8399     1
   8391   8407     1
   8391   8412     1
   8391   8400     1
   8392   8398     1
   8392   8406     1
   8392   8409     1
   8392   8410     1
   8393   8395     1
   8393   8404     1
   8393   8394     1
   8393   8411     1
   8393   8409     1
   8393   8410     1
   8393   8397     1
   8394   8396     1
   8394   8403     1
   8394   8399     1
   8394   8407     1
   8394   8405     1
   8394   8413     1
   8395   8400     1
   8395   8408     1
   8395   8407     1
   8396   8406     1
   8397   8408     1
   8397   8399     1
   8398   8401     1
   8398   8413     1
   8398   8400     1
   8398   8408     1
   8398   8403     1
   8398   8399     1
   8399   8402     1
   8399   8406     1
   8399   8404     1
   8400   8402     1
   8409   8412     1
   8409   8413     1
   8410   8412     1
   8410   8413     1
   8414   8422     1
   8414   8430     1
   8414   8435     1
   8414   8423     1
   8415   8432     1
   8415   8433     1
   8415   8421     1
   8415   8429     1
   8416   8418     1
   8416   8427     1
   8416   8417     1
   8416   8434     1
   8416   8432     1
   8416   8433     1
   8416   8420     1
   8417   8428     1
   8417   8436     1
   8417   8419     1
   8417   8426     1
   8417   8422     1
   8417   8430     1
   8418   8430     1
   8418   8423     1
   8418   8431     1
   8419   8429     1
   8420   8422     1
   8420   8431     1
   8421   8426     1
   8421   8422     1
   8421   8424     1
   8421   8436     1
   8421   8423     1
   8421   8431     1
   8422   8427     1
   8422   8425     1
   8422   8429     1
   8423   8425     1
   8432   8436     1
   8432   8435     1
   8433   8436     1
   8433   8435     1
   8437   8445     1
   8437   8453     1
   8437   8458     1
   8437   8446     1
   8438   8444     1
   8438   8452     1
   8438   8455     1
   8438   8456     1
   8439   8441     1
   8439   8450     1
   8439   8440     1
   8439   8457     1
   8439   8455     1
   8439   8456     1
   8439   8443     1
   8440   8442     1
   8440   8449     1
   8440   8445     1
   8440   8453     1
   8440   8451     1
   8440   8459     1
   8441   8446     1
   8441   8454     1
   8441   8453     1
   8442   8452     1
   8443   8454     1
   8443   8445     1
   8444   8447     1
   8444   8459     1
   8444   8446     1
   8444   8454     1
   8444   8449     1
   8444   8445     1
   8445   8448     1
   8445   8452     1
   8445   8450     1
   8446   8448     1
   8455   8458     1
   8455   8459     1
   8456   8458     1
   8456   8459     1
   8460   8468     1
   8460   8476     1
   8460   8481     1
   8460   8469     1
   8461   8478     1
   8461   8479     1
   8461   8467     1
   8461   8475     1
   8462   8464     1
   8462   8473     1
   8462   8463     1
   8462   8480     1
   8462   8478     1
   8462   8479     1
   8462   8466     1
   8463   8474     1
   8463   8482     1
   8463   8465     1
   8463   8472     1
   8463   8468     1
   8463   8476     1
   8464   8476     1
   8464   8469     1
   8464   8477     1
   8465   8475     1
   8466   8468     1
   8466   8477     1
   8467   8472     1
   8467   8468     1
   8467   8470     1
   8467   8482     1
   8467   8469     1
   8467   8477     1
   8468   8473     1
   8468   8471     1
   8468   8475     1
   8469   8471     1
   8478   8482     1
   8478   8481     1
   8479   8482     1
   8479   8481     1
   8483   8491     1
   8483   8499     1
   8483   8504     1
   8483   8492     1
   8484   8490     1
   8484   8498     1
   8484   8501     1
   8484   8502     1
   8485   8487     1
   8485   8496     1
   8485   8486     1
   8485   8503     1
   8485   8501     1
   8485   8502     1
   8485   8489     1
   8486   8488     1
   8486   8495     1
   8486   8491     1
   8486   8499     1
   8486   8497     1
   8486   8505     1
   8487   8492     1
   8487   8500     1
   8487   8499     1
   8488   8498     1
   8489   8500     1
   8489   8491     1
   8490   8493     1
   8490   8505     1
   8490   8492     1
   8490   8500     1
   8490   8495     1
   8490   8491     1
   8491   8494     1
   8491   8498     1
   8491   8496     1
   8492   8494     1
   8501   8504     1
   8501   8505     1
   8502   8504     1
   8502   8505     1
   8506   8514     1
   8506   8522     1
   8506   8527     1
   8506   8515     1
   8507   8524     1
   8507   8525     1
   8507   8513     1
   8507   8521     1
   8508   8510     1
   8508   8519     1
   8508   8509     1
   8508   8526     1
   8508   8524     1
   8508   8525     1
   8508   8512     1
   8509   8520     1
   8509   8528     1
   8509   8511     1
   8509   8518     1
   8509   8514     1
   8509   8522     1
   8510   8522     1
   8510   8515     1
   8510   8523     1
   8511   8521     1
   8512   8514     1
   8512   8523     1
   8513   8518     1
   8513   8514     1
   8513   8516     1
   8513   8528     1
   8513   8515     1
   8513   8523     1
   8514   8519     1
   8514   8517     1
   8514   8521     1
   8515   8517     1
   8524   8528     1
   8524   8527     1
   8525   8528     1
   8525   8527     1
   8529   8537     1
   8529   8545     1
   8529   8550     1
   8529   8538     1
   8530   8536     1
   8530   8544     1
   8530   8547     1
   8530   8548     1
   8531   8533     1
   8531   8542     1
   8531   8532     1
   8531   8549     1
   8531   8547     1
   8531   8548     1
   8531   8535     1
   8532   8534     1
   8532   8541     1
   8532   8537     1
   8532   8545     1
   8532   8543     1
   8532   8551     1
   8533   8538     1
   8533   8546     1
   8533   8545     1
   8534   8544     1
   8535   8546     1
   8535   8537     1
   8536   8539     1
   8536   8551     1
   8536   8538     1
   8536   8546     1
   8536   8541     1
   8536   8537     1
   8537   8540     1
   8537   8544     1
   8537   8542     1
   8538   8540     1
   8547   8550     1
   8547   8551     1
   8548   8550     1
   8548   8551     1
   8552   8560     1
   8552   8568     1
   8552   8573     1
   8552   8561     1
   8553   8570     1
   8553   8571     1
   8553   8559     1
   8553   8567     1
   8554   8556     1
   8554   8565     1
   8554   8555     1
   8554   8572     1
   8554   8570     1
   8554   8571     1
   8554   8558     1
   8555   8566     1
   8555   8574     1
   8555   8557     1
   8555   8564     1
   8555   8560     1
   8555   8568     1
   8556   8568     1
   8556   8561     1
   8556   8569     1
   8557   8567     1
   8558   8560     1
   8558   8569     1
   8559   8564     1
   8559   8560     1
   8559   8562     1
   8559   8574     1
   8559   8561     1
   8559   8569     1
   8560   8565     1
   8560   8563     1
   8560   8567     1
   8561   8563     1
   8570   8574     1
   8570   8573     1
   8571   8574     1
   8571   8573     1
   8575   8583     1
   8575   8591     1
   8575   8596     1
   8575   8584     1
   8576   8582     1
   8576   8590     1
   8576   8593     1
   8576   8594     1
   8577   8579     1
   8577   8588     1
   8577   8578     1
   8577   8595     1
   8577   8593     1
   8577   8594     1
   8577   8581     1
   8578   8580     1
   8578   8587     1
   8578   8583     1
   8578   8591     1
   8578   8589     1
   8578   8597     1
   8579   8584     1
   8579   8592     1
   8579   8591     1
   8580   8590     1
   8581   8592     1
   8581   8583     1
   8582   8585     1
   8582   8597     1
   8582   8584     1
   8582   8592     1
   8582   8587     1
   8582   8583     1
   8583   8586     1
   8583   8590     1
   8583   8588     1
   8584   8586     1
   8593   8596     1
   8593   8597     1
   8594   8596     1
   8594   8597     1
   8598   8606     1
   8598   8614     1
   8598   8619     1
   8598   8607     1
   8599   8616     1
   8599   8617     1
   8599   8605     1
   8599   8613     1
   8600   8602     1
   8600   8611     1
   8600   8601     1
   8600   8618     1
   8600   8616     1
   8600   8617     1
   8600   8604     1
   8601   8612     1
   8601   8620     1
   8601   8603     1
   8601   8610     1
   8601   8606     1
   8601   8614     1
   8602   8614     1
   8602   8607     1
   8602   8615     1
   8603   8613     1
   8604   8606     1
   8604   8615     1
   8605   8610     1
   8605   8606     1
   8605   8608     1
   8605   8620     1
   8605   8607     1
   8605   8615     1
   8606   8611     1
   8606   8609     1
   8606   8613     1
   8607   8609     1
   8616   8620     1
   8616   8619     1
   8617   8620     1
   8617   8619     1
   8621   8629     1
   8621   8637     1
   8621   8642     1
   8621   8630     1
   8622   8628     1
   8622   8636     1
   8622   8639     1
   8622   8640     1
   8623   8625     1
   8623   8634     1
   8623   8624     1
   8623   8641     1
   8623   8639     1
   8623   8640     1
   8623   8627     1
   8624   8626     1
   8624   8633     1
   8624   8629     1
   8624   8637     1
   8624   8635     1
   8624   8643     1
   8625   8630     1
   8625   8638     1
   8625   8637     1
   8626   8636     1
   8627   8638     1
   8627   8629     1
   8628   8631     1
   8628   8643     1
   8628   8630     1
   8628   8638     1
   8628   8633     1
   8628   8629     1
   8629   8632     1
   8629   8636     1
   8629   8634     1
   8630   8632     1
   8639   8642     1
   8639   8643     1
   8640   8642     1
   8640   8643     1
   8644   8652     1
   8644   8660     1
   8644   8665     1
   8644   8653     1
   8645   8662     1
   8645   8663     1
   8645   8651     1
   8645   8659     1
   8646   8648     1
   8646   8657     1
   8646   8647     1
   8646   8664     1
   8646   8662     1
   8646   8663     1
   8646   8650     1
   8647   8658     1
   8647   8666     1
   8647   8649     1
   8647   8656     1
   8647   8652     1
   8647   8660     1
   8648   8660     1
   8648   8653     1
   8648   8661     1
   8649   8659     1
   8650   8652     1
   8650   8661     1
   8651   8656     1
   8651   8652     1
   8651   8654     1
   8651   8666     1
   8651   8653     1
   8651   8661     1
   8652   8657     1
   8652   8655     1
   8652   8659     1
   8653   8655     1
   8662   8666     1
   8662   8665     1
   8663   8666     1
   8663   8665     1
   8667   8675     1
   8667   8683     1
   8667   8688     1
   8667   8676     1
   8668   8674     1
   8668   8682     1
   8668   8685     1
   8668   8686     1
   8669   8671     1
   8669   8680     1
   8669   8670     1
   8669   8687     1
   8669   8685     1
   8669   8686     1
   8669   8673     1
   8670   8672     1
   8670   8679     1
   8670   8675     1
   8670   8683     1
   8670   8681     1
   8670   8689     1
   8671   8676     1
   8671   8684     1
   8671   8683     1
   8672   8682     1
   8673   8684     1
   8673   8675     1
   8674   8677     1
   8674   8689     1
   8674   8676     1
   8674   8684     1
   8674   8679     1
   8674   8675     1
   8675   8678     1
   8675   8682     1
   8675   8680     1
   8676   8678     1
   8685   8688     1
   8685   8689     1
   8686   8688     1
   8686   8689     1
   8690   8698     1
   8690   8706     1
   8690   8711     1
   8690   8699     1
   8691   8708     1
   8691   8709     1
   8691   8697     1
   8691   8705     1
   8692   8694     1
   8692   8703     1
   8692   8693     1
   8692   8710     1
   8692   8708     1
   8692   8709     1
   8692   8696     1
   8693   8704     1
   8693   8712     1
   8693   8695     1
   8693   8702     1
   8693   8698     1
   8693   8706     1
   8694   8706     1
   8694   8699     1
   8694   8707     1
   8695   8705     1
   8696   8698     1
   8696   8707     1
   8697   8702     1
   8697   8698     1
   8697   8700     1
   8697   8712     1
   8697   8699     1
   8697   8707     1
   8698   8703     1
   8698   8701     1
   8698   8705     1
   8699   8701     1
   8708   8712     1
   8708   8711     1
   8709   8712     1
   8709   8711     1
   8713   8721     1
   8713   8729     1
   8713   8734     1
   8713   8722     1
   8714   8720     1
   8714   8728     1
   8714   8731     1
   8714   8732     1
   8715   8717     1
   8715   8726     1
   8715   8716     1
   8715   8733     1
   8715   8731     1
   8715   8732     1
   8715   8719     1
   8716   8718     1
   8716   8725     1
   8716   8721     1
   8716   8729     1
   8716   8727     1
   8716   8735     1
   8717   8722     1
   8717   8730     1
   8717   8729     1
   8718   8728     1
   8719   8730     1
   8719   8721     1
   8720   8723     1
   8720   8735     1
   8720   8722     1
   8720   8730     1
   8720   8725     1
   8720   8721     1
   8721   8724     1
   8721   8728     1
   8721   8726     1
   8722   8724     1
   8731   8734     1
   8731   8735     1
   8732   8734     1
   8732   8735     1
   8736   8744     1
   8736   8752     1
   8736   8757     1
   8736   8745     1
   8737   8754     1
   8737   8755     1
   8737   8743     1
   8737   8751     1
   8738   8740     1
   8738   8749     1
   8738   8739     1
   8738   8756     1
   8738   8754     1
   8738   8755     1
   8738   8742     1
   8739   8750     1
   8739   8758     1
   8739   8741     1
   8739   8748     1
   8739   8744     1
   8739   8752     1
   8740   8752     1
   8740   8745     1
   8740   8753     1
   8741   8751     1
   8742   8744     1
   8742   8753     1
   8743   8748     1
   8743   8744     1
   8743   8746     1
   8743   8758     1
   8743   8745     1
   8743   8753     1
   8744   8749     1
   8744   8747     1
   8744   8751     1
   8745   8747     1
   8754   8758     1
   8754   8757     1
   8755   8758     1
   8755   8757     1
   8759   8767     1
   8759   8775     1
   8759   8780     1
   8759   8768     1
   8760   8766     1
   8760   8774     1
   8760   8777     1
   8760   8778     1
   8761   8763     1
   8761   8772     1
   8761   8762     1
   8761   8779     1
   8761   8777     1
   8761   8778     1
   8761   8765     1
   8762   8764     1
   8762   8771     1
   8762   8767     1
   8762   8775     1
   8762   8773     1
   8762   8781     1
   8763   8768     1
   8763   8776     1
   8763   8775     1
   8764   8774     1
   8765   8776     1
   8765   8767     1
   8766   8769     1
   8766   8781     1
   8766   8768     1
   8766   8776     1
   8766   8771     1
   8766   8767     1
   8767   8770     1
   8767   8774     1
   8767   8772     1
   8768   8770     1
   8777   8780     1
   8777   8781     1
   8778   8780     1
   8778   8781     1
   8782   8790     1
   8782   8798     1
   8782   8803     1
   8782   8791     1
   8783   8800     1
   8783   8801     1
   8783   8789     1
   8783   8797     1
   8784   8786     1
   8784   8795     1
   8784   8785     1
   8784   8802     1
   8784   8800     1
   8784   8801     1
   8784   8788     1
   8785   8796     1
   8785   8804     1
   8785   8787     1
   8785   8794     1
   8785   8790     1
   8785   8798     1
   8786   8798     1
   8786   8791     1
   8786   8799     1
   8787   8797     1
   8788   8790     1
   8788   8799     1
   8789   8794     1
   8789   8790     1
   8789   8792     1
   8789   8804     1
   8789   8791     1
   8789   8799     1
   8790   8795     1
   8790   8793     1
   8790   8797     1
   8791   8793     1
   8800   8804     1
   8800   8803     1
   8801   8804     1
   8801   8803     1
   8805   8813     1
   8805   8821     1
   8805   8826     1
   8805   8814     1
   8806   8812     1
   8806   8820     1
   8806   8823     1
   8806   8824     1
   8807   8809     1
   8807   8818     1
   8807   8808     1
   8807   8825     1
   8807   8823     1
   8807   8824     1
   8807   8811     1
   8808   8810     1
   8808   8817     1
   8808   8813     1
   8808   8821     1
   8808   8819     1
   8808   8827     1
   8809   8814     1
   8809   8822     1
   8809   8821     1
   8810   8820     1
   8811   8822     1
   8811   8813     1
   8812   8815     1
   8812   8827     1
   8812   8814     1
   8812   8822     1
   8812   8817     1
   8812   8813     1
   8813   8816     1
   8813   8820     1
   8813   8818     1
   8814   8816     1
   8823   8826     1
   8823   8827     1
   8824   8826     1
   8824   8827     1
   8828   8836     1
   8828   8844     1
   8828   8849     1
   8828   8837     1
   8829   8846     1
   8829   8847     1
   8829   8835     1
   8829   8843     1
   8830   8832     1
   8830   8841     1
   8830   8831     1
   8830   8848     1
   8830   8846     1
   8830   8847     1
   8830   8834     1
   8831   8842     1
   8831   8850     1
   8831   8833     1
   8831   8840     1
   8831   8836     1
   8831   8844     1
   8832   8844     1
   8832   8837     1
   8832   8845     1
   8833   8843     1
   8834   8836     1
   8834   8845     1
   8835   8840     1
   8835   8836     1
   8835   8838     1
   8835   8850     1
   8835   8837     1
   8835   8845     1
   8836   8841     1
   8836   8839     1
   8836   8843     1
   8837   8839     1
   8846   8850     1
   8846   8849     1
   8847   8850     1
   8847   8849     1
   8851   8859     1
   8851   8867     1
   8851   8872     1
   8851   8860     1
   8852   8858     1
   8852   8866     1
   8852   8869     1
   8852   8870     1
   8853   8855     1
   8853   8864     1
   8853   8854     1
   8853   8871     1
   8853   8869     1
   8853   8870     1
   8853   8857     1
   8854   8856     1
   8854   8863     1
   8854   8859     1
   8854   8867     1
   8854   8865     1
   8854   8873     1
   8855   8860     1
   8855   8868     1
   8855   8867     1
   8856   8866     1
   8857   8868     1
   8857   8859     1
   8858   8861     1
   8858   8873     1
   8858   8860     1
   8858   8868     1
   8858   8863     1
   8858   8859     1
   8859   8862     1
   8859   8866     1
   8859   8864     1
   8860   8862     1
   8869   8872     1
   8869   8873     1
   8870   8872     1
   8870   8873     1
   8874   8882     1
   8874   8890     1
   8874   8895     1
   8874   8883     1
   8875   8892     1
   8875   8893     1
   8875   8881     1
   8875   8889     1
   8876   8878     1
   8876   8887     1
   8876   8877     1
   8876   8894     1
   8876   8892     1
   8876   8893     1
   8876   8880     1
   8877   8888     1
   8877   8896     1
   8877   8879     1
   8877   8886     1
   8877   8882     1
   8877   8890     1
   8878   8890     1
   8878   8883     1
   8878   8891     1
   8879   8889     1
   8880   8882     1
   8880   8891     1
   8881   8886     1
   8881   8882     1
   8881   8884     1
   8881   8896     1
   8881   8883     1
   8881   8891     1
   8882   8887     1
   8882   8885     1
   8882   8889     1
   8883   8885     1
   8892   8896     1
   8892   8895     1
   8893   8896     1
   8893   8895     1
   8897   8905     1
   8897   8913     1
   8897   8918     1
   8897   8906     1
   8898   8904     1
   8898   8912     1
   8898   8915     1
   8898   8916     1
   8899   8901     1
   8899   8910     1
   8899   8900     1
   8899   8917     1
   8899   8915     1
   8899   8916     1
   8899   8903     1
   8900   8902     1
   8900   8909     1
   8900   8905     1
   8900   8913     1
   8900   8911     1
   8900   8919     1
   8901   8906     1
   8901   8914     1
   8901   8913     1
   8902   8912     1
   8903   8914     1
   8903   8905     1
   8904   8907     1
   8904   8919     1
   8904   8906     1
   8904   8914     1
   8904   8909     1
   8904   8905     1
   8905   8908     1
   8905   8912     1
   8905   8910     1
   8906   8908     1
   8915   8918     1
   8915   8919     1
   8916   8918     1
   8916   8919     1
   8920   8928     1
   8920   8936     1
   8920   8941     1
   8920   8929     1
   8921   8938     1
   8921   8939     1
   8921   8927     1
   8921   8935     1
   8922   8924     1
   8922   8933     1
   8922   8923     1
   8922   8940     1
   8922   8938     1
   8922   8939     1
   8922   8926     1
   8923   8934     1
   8923   8942     1
   8923   8925     1
   8923   8932     1
   8923   8928     1
   8923   8936     1
   8924   8936     1
   8924   8929     1
   8924   8937     1
   8925   8935     1
   8926   8928     1
   8926   8937     1
   8927   8932     1
   8927   8928     1
   8927   8930     1
   8927   8942     1
   8927   8929     1
   8927   8937     1
   8928   8933     1
   8928   8931     1
   8928   8935     1
   8929   8931     1
   8938   8942     1
   8938   8941     1
   8939   8942     1
   8939   8941     1
   8943   8951     1
   8943   8959     1
   8943   8964     1
   8943   8952     1
   8944   8950     1
   8944   8958     1
   8944   8961     1
   8944   8962     1
   8945   8947     1
   8945   8956     1
   8945   8946     1
   8945   8963     1
   8945   8961     1
   8945   8962     1
   8945   8949     1
   8946   8948     1
   8946   8955     1
   8946   8951     1
   8946   8959     1
   8946   8957     1
   8946   8965     1
   8947   8952     1
   8947   8960     1
   8947   8959     1
   8948   8958     1
   8949   8960     1
   8949   8951     1
   8950   8953     1
   8950   8965     1
   8950   8952     1
   8950   8960     1
   8950   8955     1
   8950   8951     1
   8951   8954     1
   8951   8958     1
   8951   8956     1
   8952   8954     1
   8961   8964     1
   8961   8965     1
   8962   8964     1
   8962   8965     1
   8966   8974     1
   8966   8982     1
   8966   8987     1
   8966   8975     1
   8967   8984     1
   8967   8985     1
   8967   8973     1
   8967   8981     1
   8968   8970     1
   8968   8979     1
   8968   8969     1
   8968   8986     1
   8968   8984     1
   8968   8985     1
   8968   8972     1
   8969   8980     1
   8969   8988     1
   8969   8971     1
   8969   8978     1
   8969   8974     1
   8969   8982     1
   8970   8982     1
   8970   8975     1
   8970   8983     1
   8971   8981     1
   8972   8974     1
   8972   8983     1
   8973   8978     1
   8973   8974     1
   8973   8976     1
   8973   8988     1
   8973   8975     1
   8973   8983     1
   8974   8979     1
   8974   8977     1
   8974   8981     1
   8975   8977     1
   8984   8988     1
   8984   8987     1
   8985   8988     1
   8985   8987     1
   8989   8997     1
   8989   9005     1
   8989   9010     1
   8989   8998     1
   8990   8996     1
   8990   9004     1
   8990   9007     1
   8990   9008     1
   8991   8993     1
   8991   9002     1
   8991   8992     1
   8991   9009     1
   8991   9007     1
   8991   9008     1
   8991   8995     1
   8992   8994     1
   8992   9001     1
   8992   8997     1
   8992   9005     1
   8992   9003     1
   8992   9011     1
   8993   8998     1
   8993   9006     1
   8993   9005     1
   8994   9004     1
   8995   9006     1
   8995   8997     1
   8996   8999     1
   8996   9011     1
   8996   8998     1
   8996   9006     1
   8996   9001     1
   8996   8997     1
   8997   9000     1
   8997   9004     1
   8997   9002     1
   8998   9000     1
   9007   9010     1
   9007   9011     1
   9008   9010     1
   9008   9011     1
   9012   9020     1
   9012   9028     1
   9012   9033     1
   9012   9021     1
   9013   9030     1
   9013   9031     1
   9013   9019     1
   9013   9027     1
   9014   9016     1
   9014   9025     1
   9014   9015     1
   9014   9032     1
   9014   9030     1
   9014   9031     1
   9014   9018     1
   9015   9026     1
   9015   9034     1
   9015   9017     1
   9015   9024     1
   9015   9020     1
   9015   9028     1
   9016   9028     1
   9016   9021     1
   9016   9029     1
   9017   9027     1
   9018   9020     1
   9018   9029     1
   9019   9024     1
   9019   9020     1
   9019   9022     1
   9019   9034     1
   9019   9021     1
   9019   9029     1
   9020   9025     1
   9020   9023     1
   9020   9027     1
   9021   9023     1
   9030   9034     1
   9030   9033     1
   9031   9034     1
   9031   9033     1
   9035   9043     1
   9035   9051     1
   9035   9056     1
   9035   9044     1
   9036   9042     1
   9036   9050     1
   9036   9053     1
   9036   9054     1
   9037   9039     1
   9037   9048     1
   9037   9038     1
   9037   9055     1
   9037   9053     1
   9037   9054     1
   9037   9041     1
   9038   9040     1
   9038   9047     1
   9038   9043     1
   9038   9051     1
   9038   9049     1
   9038   9057     1
   9039   9044     1
   9039   9052     1
   9039   9051     1
   9040   9050     1
   9041   9052     1
   9041   9043     1
   9042   9045     1
   9042   9057     1
   9042   9044     1
   9042   9052     1
   9042   9047     1
   9042   9043     1
   9043   9046     1
   9043   9050     1
   9043   9048     1
   9044   9046     1
   9053   9056     1
   9053   9057     1
   9054   9056     1
   9054   9057     1
   9058   9066     1
   9058   9074     1
   9058   9079     1
   9058   9067     1
   9059   9076     1
   9059   9077     1
   9059   9065     1
   9059   9073     1
   9060   9062     1
   9060   9071     1
   9060   9061     1
   9060   9078     1
   9060   9076     1
   9060   9077     1
   9060   9064     1
   9061   9072     1
   9061   9080     1
   9061   9063     1
   9061   9070     1
   9061   9066     1
   9061   9074     1
   9062   9074     1
   9062   9067     1
   9062   9075     1
   9063   9073     1
   9064   9066     1
   9064   9075     1
   9065   9070     1
   9065   9066     1
   9065   9068     1
   9065   9080     1
   9065   9067     1
   9065   9075     1
   9066   9071     1
   9066   9069     1
   9066   9073     1
   9067   9069     1
   9076   9080     1
   9076   9079     1
   9077   9080     1
   9077   9079     1
   9081   9089     1
   9081   9097     1
   9081   9102     1
   9081   9090     1
   9082   9088     1
   9082   9096     1
   9082   9099     1
   9082   9100     1
   9083   9085     1
   9083   9094     1
   9083   9084     1
   9083   9101     1
   9083   9099     1
   9083   9100     1
   9083   9087     1
   9084   9086     1
   9084   9093     1
   9084   9089     1
   9084   9097     1
   9084   9095     1
   9084   9103     1
   9085   9090     1
   9085   9098     1
   9085   9097     1
   9086   9096     1
   9087   9098     1
   9087   9089     1
   9088   9091     1
   9088   9103     1
   9088   9090     1
   9088   9098     1
   9088   9093     1
   9088   9089     1
   9089   9092     1
   9089   9096     1
   9089   9094     1
   9090   9092     1
   9099   9102     1
   9099   9103     1
   9100   9102     1
   9100   9103     1
   9104   9112     1
   9104   9120     1
   9104   9125     1
   9104   9113     1
   9105   9122     1
   9105   9123     1
   9105   9111     1
   9105   9119     1
   9106   9108     1
   9106   9117     1
   9106   9107     1
   9106   9124     1
   9106   9122     1
   9106   9123     1
   9106   9110     1
   9107   9118     1
   9107   9126     1
   9107   9109     1
   9107   9116     1
   9107   9112     1
   9107   9120     1
   9108   9120     1
   9108   9113     1
   9108   9121     1
   9109   9119     1
   9110   9112     1
   9110   9121     1
   9111   9116     1
   9111   9112     1
   9111   9114     1
   9111   9126     1
   9111   9113     1
   9111   9121     1
   9112   9117     1
   9112   9115     1
   9112   9119     1
   9113   9115     1
   9122   9126     1
   9122   9125     1
   9123   9126     1
   9123   9125     1
   9127   9135     1
   9127   9143     1
   9127   9148     1
   9127   9136     1
   9128   9134     1
   9128   9142     1
   9128   9145     1
   9128   9146     1
   9129   9131     1
   9129   9140     1
   9129   9130     1
   9129   9147     1
   9129   9145     1
   9129   9146     1
   9129   9133     1
   9130   9132     1
   9130   9139     1
   9130   9135     1
   9130   9143     1
   9130   9141     1
   9130   9149     1
   9131   9136     1
   9131   9144     1
   9131   9143     1
   9132   9142     1
   9133   9144     1
   9133   9135     1
   9134   9137     1
   9134   9149     1
   9134   9136     1
   9134   9144     1
   9134   9139     1
   9134   9135     1
   9135   9138     1
   9135   9142     1
   9135   9140     1
   9136   9138     1
   9145   9148     1
   9145   9149     1
   9146   9148     1
   9146   9149     1
   9150   9158     1
   9150   9166     1
   9150   9171     1
   9150   9159     1
   9151   9168     1
   9151   9169     1
   9151   9157     1
   9151   9165     1
   9152   9154     1
   9152   9163     1
   9152   9153     1
   9152   9170     1
   9152   9168     1
   9152   9169     1
   9152   9156     1
   9153   9164     1
   9153   9172     1
   9153   9155     1
   9153   9162     1
   9153   9158     1
   9153   9166     1
   9154   9166     1
   9154   9159     1
   9154   9167     1
   9155   9165     1
   9156   9158     1
   9156   9167     1
   9157   9162     1
   9157   9158     1
   9157   9160     1
   9157   9172     1
   9157   9159     1
   9157   9167     1
   9158   9163     1
   9158   9161     1
   9158   9165     1
   9159   9161     1
   9168   9172     1
   9168   9171     1
   9169   9172     1
   9169   9171     1
   9173   9181     1
   9173   9189     1
   9173   9194     1
   9173   9182     1
   9174   9180     1
   9174   9188     1
   9174   9191     1
   9174   9192     1
   9175   9177     1
   9175   9186     1
   9175   9176     1
   9175   9193     1
   9175   9191     1
   9175   9192     1
   9175   9179     1
   9176   9178     1
   9176   9185     1
   9176   9181     1
   9176   9189     1
   9176   9187     1
   9176   9195     1
   9177   9182     1
   9177   9190     1
   9177   9189     1
   9178   9188     1
   9179   9190     1
   9179   9181     1
   9180   9183     1
   9180   9195     1
   9180   9182     1
   9180   9190     1
   9180   9185     1
   9180   9181     1
   9181   9184     1
   9181   9188     1
   9181   9186     1
   9182   9184     1
   9191   9194     1
   9191   9195     1
   9192   9194     1
   9192   9195     1
   9196   9204     1
   9196   9212     1
   9196   9217     1
   9196   9205     1
   9197   9214     1
   9197   9215     1
   9197   9203     1
   9197   9211     1
   9198   9200     1
   9198   9209     1
   9198   9199     1
   9198   9216     1
   9198   9214     1
   9198   9215     1
   9198   9202     1
   9199   9210     1
   9199   9218     1
   9199   9201     1
   9199   9208     1
   9199   9204     1
   9199   9212     1
   9200   9212     1
   9200   9205     1
   9200   9213     1
   9201   9211     1
   9202   9204     1
   9202   9213     1
   9203   9208     1
   9203   9204     1
   9203   9206     1
   9203   9218     1
   9203   9205     1
   9203   9213     1
   9204   9209     1
   9204   9207     1
   9204   9211     1
   9205   9207     1
   9214   9218     1
   9214   9217     1
   9215   9218     1
   9215   9217     1
   9219   9227     1
   9219   9235     1
   9219   9240     1
   9219   9228     1
   9220   9226     1
   9220   9234     1
   9220   9237     1
   9220   9238     1
   9221   9223     1
   9221   9232     1
   9221   9222     1
   9221   9239     1
   9221   9237     1
   9221   9238     1
   9221   9225     1
   9222   9224     1
   9222   9231     1
   9222   9227     1
   9222   9235     1
   9222   9233     1
   9222   9241     1
   9223   9228     1
   9223   9236     1
   9223   9235     1
   9224   9234     1
   9225   9236     1
   9225   9227     1
   9226   9229     1
   9226   9241     1
   9226   9228     1
   9226   9236     1
   9226   9231     1
   9226   9227     1
   9227   9230     1
   9227   9234     1
   9227   9232     1
   9228   9230     1
   9237   9240     1
   9237   9241     1
   9238   9240     1
   9238   9241     1
   9242   9250     1
   9242   9258     1
   9242   9263     1
   9242   9251     1
   9243   9260     1
   9243   9261     1
   9243   9249     1
   9243   9257     1
   9244   9246     1
   9244   9255     1
   9244   9245     1
   9244   9262     1
   9244   9260     1
   9244   9261     1
   9244   9248     1
   9245   9256     1
   9245   9264     1
   9245   9247     1
   9245   9254     1
   9245   9250     1
   9245   9258     1
   9246   9258     1
   9246   9251     1
   9246   9259     1
   9247   9257     1
   9248   9250     1
   9248   9259     1
   9249   9254     1
   9249   9250     1
   9249   9252     1
   9249   9264     1
   9249   9251     1
   9249   9259     1
   9250   9255     1
   9250   9253     1
   9250   9257     1
   9251   9253     1
   9260   9264     1
   9260   9263     1
   9261   9264     1
   9261   9263     1
   9265   9273     1
   9265   9281     1
   9265   9286     1
   9265   9274     1
   9266   9272     1
   9266   9280     1
   9266   9283     1
   9266   9284     1
   9267   9269     1
   9267   9278     1
   9267   9268     1
   9267   9285     1
   9267   9283     1
   9267   9284     1
   9267   9271     1
   9268   9270     1
   9268   9277     1
   9268   9273     1
   9268   9281     1
   9268   9279     1
   9268   9287     1
   9269   9274     1
   9269   9282     1
   9269   9281     1
   9270   9280     1
   9271   9282     1
   9271   9273     1
   9272   9275     1
   9272   9287     1
   9272   9274     1
   9272   9282     1
   9272   9277     1
   9272   9273     1
   9273   9276     1
   9273   9280     1
   9273   9278     1
   9274   9276     1
   9283   9286     1
   9283   9287     1
   9284   9286     1
   9284   9287     1
   9288   9296     1
   9288   9304     1
   9288   9309     1
   9288   9297     1
   9289   9306     1
   9289   9307     1
   9289   9295     1
   9289   9303     1
   9290   9292     1
   9290   9301     1
   9290   9291     1
   9290   9308     1
   9290   9306     1
   9290   9307     1
   9290   9294     1
   9291   9302     1
   9291   9310     1
   9291   9293     1
   9291   9300     1
   9291   9296     1
   9291   9304     1
   9292   9304     1
   9292   9297     1
   9292   9305     1
   9293   9303     1
   9294   9296     1
   9294   9305     1
   9295   9300     1
   9295   9296     1
   9295   9298     1
   9295   9310     1
   9295   9297     1
   9295   9305     1
   9296   9301     1
   9296   9299     1
   9296   9303     1
   9297   9299     1
   9306   9310     1
   9306   9309     1
   9307   9310     1
   9307   9309     1
   9311   9319     1
   9311   9327     1
   9311   9332     1
   9311   9320     1
   9312   9318     1
   9312   9326     1
   9312   9329     1
   9312   9330     1
   9313   9315     1
   9313   9324     1
   9313   9314     1
   9313   9331     1
   9313   9329     1
   9313   9330     1
   9313   9317     1
   9314   9316     1
   9314   9323     1
   9314   9319     1
   9314   9327     1
   9314   9325     1
   9314   9333     1
   9315   9320     1
   9315   9328     1
   9315   9327     1
   9316   9326     1
   9317   9328     1
   9317   9319     1
   9318   9321     1
   9318   9333     1
   9318   9320     1
   9318   9328     1
   9318   9323     1
   9318   9319     1
   9319   9322     1
   9319   9326     1
   9319   9324     1
   9320   9322     1
   9329   9332     1
   9329   9333     1
   9330   9332     1
   9330   9333     1
   9334   9342     1
   9334   9350     1
   9334   9355     1
   9334   9343     1
   9335   9352     1
   9335   9353     1
   9335   9341     1
   9335   9349     1
   9336   9338     1
   9336   9347     1
   9336   9337     1
   9336   9354     1
   9336   9352     1
   9336   9353     1
   9336   9340     1
   9337   9348     1
   9337   9356     1
   9337   9339     1
   9337   9346     1
   9337   9342     1
   9337   9350     1
   9338   9350     1
   9338   9343     1
   9338   9351     1
   9339   9349     1
   9340   9342     1
   9340   9351     1
   9341   9346     1
   9341   9342     1
   9341   9344     1
   9341   9356     1
   9341   9343     1
   9341   9351     1
   9342   9347     1
   9342   9345     1
   9342   9349     1
   9343   9345     1
   9352   9356     1
   9352   9355     1
   9353   9356     1
   9353   9355     1
   9357   9365     1
   9357   9373     1
   9357   9378     1
   9357   9366     1
   9358   9364     1
   9358   9372     1
   9358   9375     1
   9358   9376     1
   9359   9361     1
   9359   9370     1
   9359   9360     1
   9359   9377     1
   9359   9375     1
   9359   9376     1
   9359   9363     1
   9360   9362     1
   9360   9369     1
   9360   9365     1
   9360   9373     1
   9360   9371     1
   9360   9379     1
   9361   9366     1
   9361   9374     1
   9361   9373     1
   9362   9372     1
   9363   9374     1
   9363   9365     1
   9364   9367     1
   9364   9379     1
   9364   9366     1
   9364   9374     1
   9364   9369     1
   9364   9365     1
   9365   9368     1
   9365   9372     1
   9365   9370     1
   9366   9368     1
   9375   9378     1
   9375   9379     1
   9376   9378     1
   9376   9379     1
   9380   9388     1
   9380   9396     1
   9380   9401     1
   9380   9389     1
   9381   9398     1
   9381   9399     1
   9381   9387     1
   9381   9395     1
   9382   9384     1
   9382   9393     1
   9382   9383     1
   9382   9400     1
   9382   9398     1
   9382   9399     1
   9382   9386     1
   9383   9394     1
   9383   9402     1
   9383   9385     1
   9383   9392     1
   9383   9388     1
   9383   9396     1
   9384   9396     1
   9384   9389     1
   9384   9397     1
   9385   9395     1
   9386   9388     1
   9386   9397     1
   9387   9392     1
   9387   9388     1
   9387   9390     1
   9387   9402     1
   9387   9389     1
   9387   9397     1
   9388   9393     1
   9388   9391     1
   9388   9395     1
   9389   9391     1
   9398   9402     1
   9398   9401     1
   9399   9402     1
   9399   9401     1
   9403   9411     1
   9403   9419     1
   9403   9424     1
   9403   9412     1
   9404   9410     1
   9404   9418     1
   9404   9421     1
   9404   9422     1
   9405   9407     1
   9405   9416     1
   9405   9406     1
   9405   9423     1
   9405   9421     1
   9405   9422     1
   9405   9409     1
   9406   9408     1
   9406   9415     1
   9406   9411     1
   9406   9419     1
   9406   9417     1
   9406   9425     1
   9407   9412     1
   9407   9420     1
   9407   9419     1
   9408   9418     1
   9409   9420     1
   9409   9411     1
   9410   9413     1
   9410   9425     1
   9410   9412     1
   9410   9420     1
   9410   9415     1
   9410   9411     1
   9411   9414     1
   9411   9418     1
   9411   9416     1
   9412   9414     1
   9421   9424     1
   9421   9425     1
   9422   9424     1
   9422   9425     1
   9426   9434     1
   9426   9442     1
   9426   9447     1
   9426   9435     1
   9427   9444     1
   9427   9445     1
   9427   9433     1
   9427   9441     1
   9428   9430     1
   9428   9439     1
   9428   9429     1
   9428   9446     1
   9428   9444     1
   9428   9445     1
   9428   9432     1
   9429   9440     1
   9429   9448     1
   9429   9431     1
   9429   9438     1
   9429   9434     1
   9429   9442     1
   9430   9442     1
   9430   9435     1
   9430   9443     1
   9431   9441     1
   9432   9434     1
   9432   9443     1
   9433   9438     1
   9433   9434     1
   9433   9436     1
   9433   9448     1
   9433   9435     1
   9433   9443     1
   9434   9439     1
   9434   9437     1
   9434   9441     1
   9435   9437     1
   9444   9448     1
   9444   9447     1
   9445   9448     1
   9445   9447     1
   9449   9457     1
   9449   9465     1
   9449   9470     1
   9449   9458     1
   9450   9456     1
   9450   9464     1
   9450   9467     1
   9450   9468     1
   9451   9453     1
   9451   9462     1
   9451   9452     1
   9451   9469     1
   9451   9467     1
   9451   9468     1
   9451   9455     1
   9452   9454     1
   9452   9461     1
   9452   9457     1
   9452   9465     1
   9452   9463     1
   9452   9471     1
   9453   9458     1
   9453   9466     1
   9453   9465     1
   9454   9464     1
   9455   9466     1
   9455   9457     1
   9456   9459     1
   9456   9471     1
   9456   9458     1
   9456   9466     1
   9456   9461     1
   9456   9457     1
   9457   9460     1
   9457   9464     1
   9457   9462     1
   9458   9460     1
   9467   9470     1
   9467   9471     1
   9468   9470     1
   9468   9471     1
   9472   9480     1
   9472   9488     1
   9472   9493     1
   9472   9481     1
   9473   9490     1
   9473   9491     1
   9473   9479     1
   9473   9487     1
   9474   9476     1
   9474   9485     1
   9474   9475     1
   9474   9492     1
   9474   9490     1
   9474   9491     1
   9474   9478     1
   9475   9486     1
   9475   9494     1
   9475   9477     1
   9475   9484     1
   9475   9480     1
   9475   9488     1
   9476   9488     1
   9476   9481     1
   9476   9489     1
   9477   9487     1
   9478   9480     1
   9478   9489     1
   9479   9484     1
   9479   9480     1
   9479   9482     1
   9479   9494     1
   9479   9481     1
   9479   9489     1
   9480   9485     1
   9480   9483     1
   9480   9487     1
   9481   9483     1
   9490   9494     1
   9490   9493     1
   9491   9494     1
   9491   9493     1
   9495   9503     1
   9495   9511     1
   9495   9516     1
   9495   9504     1
   9496   9502     1
   9496   9510     1
   9496   9513     1
   9496   9514     1
   9497   9499     1
   9497   9508     1
   9497   9498     1
   9497   9515     1
   9497   9513     1
   9497   9514     1
   9497   9501     1
   9498   9500     1
   9498   9507     1
   9498   9503     1
   9498   9511     1
   9498   9509     1
   9498   9517     1
   9499   9504     1
   9499   9512     1
   9499   9511     1
   9500   9510     1
   9501   9512     1
   9501   9503     1
   9502   9505     1
   9502   9517     1
   9502   9504     1
   9502   9512     1
   9502   9507     1
   9502   9503     1
   9503   9506     1
   9503   9510     1
   9503   9508     1
   9504   9506     1
   9513   9516     1
   9513   9517     1
   9514   9516     1
   9514   9517     1
   9518   9526     1
   9518   9534     1
   9518   9539     1
   9518   9527     1
   9519   9536     1
   9519   9537     1
   9519   9525     1
   9519   9533     1
   9520   9522     1
   9520   9531     1
   9520   9521     1
   9520   9538     1
   9520   9536     1
   9520   9537     1
   9520   9524     1
   9521   9532     1
   9521   9540     1
   9521   9523     1
   9521   9530     1
   9521   9526     1
   9521   9534     1
   9522   9534     1
   9522   9527     1
   9522   9535     1
   9523   9533     1
   9524   9526     1
   9524   9535     1
   9525   9530     1
   9525   9526     1
   9525   9528     1
   9525   9540     1
   9525   9527     1
   9525   9535     1
   9526   9531     1
   9526   9529     1
   9526   9533     1
   9527   9529     1
   9536   9540     1
   9536   9539     1
   9537   9540     1
   9537   9539     1
   9541   9549     1
   9541   9557     1
   9541   9562     1
   9541   9550     1
   9542   9548     1
   9542   9556     1
   9542   9559     1
   9542   9560     1
   9543   9545     1
   9543   9554     1
   9543   9544     1
   9543   9561     1
   9543   9559     1
   9543   9560     1
   9543   9547     1
   9544   9546     1
   9544   9553     1
   9544   9549     1
   9544   9557     1
   9544   9555     1
   9544   9563     1
   9545   9550     1
   9545   9558     1
   9545   9557     1
   9546   9556     1
   9547   9558     1
   9547   9549     1
   9548   9551     1
   9548   9563     1
   9548   9550     1
   9548   9558     1
   9548   9553     1
   9548   9549     1
   9549   9552     1
   9549   9556     1
   9549   9554     1
   9550   9552     1
   9559   9562     1
   9559   9563     1
   9560   9562     1
   9560   9563     1
   9564   9572     1
   9564   9580     1
   9564   9585     1
   9564   9573     1
   9565   9582     1
   9565   9583     1
   9565   9571     1
   9565   9579     1
   9566   9568     1
   9566   9577     1
   9566   9567     1
   9566   9584     1
   9566   9582     1
   9566   9583     1
   9566   9570     1
   9567   9578     1
   9567   9586     1
   9567   9569     1
   9567   9576     1
   9567   9572     1
   9567   9580     1
   9568   9580     1
   9568   9573     1
   9568   9581     1
   9569   9579     1
   9570   9572     1
   9570   9581     1
   9571   9576     1
   9571   9572     1
   9571   9574     1
   9571   9586     1
   9571   9573     1
   9571   9581     1
   9572   9577     1
   9572   9575     1
   9572   9579     1
   9573   9575     1
   9582   9586     1
   9582   9585     1
   9583   9586     1
   9583   9585     1
   9587   9595     1
   9587   9603     1
   9587   9608     1
   9587   9596     1
   9588   9594     1
   9588   9602     1
   9588   9605     1
   9588   9606     1
   9589   9591     1
   9589   9600     1
   9589   9590     1
   9589   9607     1
   9589   9605     1
   9589   9606     1
   9589   9593     1
   9590   9592     1
   9590   9599     1
   9590   9595     1
   9590   9603     1
   9590   9601     1
   9590   9609     1
   9591   9596     1
   9591   9604     1
   9591   9603     1
   9592   9602     1
   9593   9604     1
   9593   9595     1
   9594   9597     1
   9594   9609     1
   9594   9596     1
   9594   9604     1
   9594   9599     1
   9594   9595     1
   9595   9598     1
   9595   9602     1
   9595   9600     1
   9596   9598     1
   9605   9608     1
   9605   9609     1
   9606   9608     1
   9606   9609     1
   9610   9618     1
   9610   9626     1
   9610   9631     1
   9610   9619     1
   9611   9628     1
   9611   9629     1
   9611   9617     1
   9611   9625     1
   9612   9614     1
   9612   9623     1
   9612   9613     1
   9612   9630     1
   9612   9628     1
   9612   9629     1
   9612   9616     1
   9613   9624     1
   9613   9632     1
   9613   9615     1
   9613   9622     1
   9613   9618     1
   9613   9626     1
   9614   9626     1
   9614   9619     1
   9614   9627     1
   9615   9625     1
   9616   9618     1
   9616   9627     1
   9617   9622     1
   9617   9618     1
   9617   9620     1
   9617   9632     1
   9617   9619     1
   9617   9627     1
   9618   9623     1
   9618   9621     1
   9618   9625     1
   9619   9621     1
   9628   9632     1
   9628   9631     1
   9629   9632     1
   9629   9631     1
   9633   9641     1
   9633   9649     1
   9633   9654     1
   9633   9642     1
   9634   9640     1
   9634   9648     1
   9634   9651     1
   9634   9652     1
   9635   9637     1
   9635   9646     1
   9635   9636     1
   9635   9653     1
   9635   9651     1
   9635   9652     1
   9635   9639     1
   9636   9638     1
   9636   9645     1
   9636   9641     1
   9636   9649     1
   9636   9647     1
   9636   9655     1
   9637   9642     1
   9637   9650     1
   9637   9649     1
   9638   9648     1
   9639   9650     1
   9639   9641     1
   9640   9643     1
   9640   9655     1
   9640   9642     1
   9640   9650     1
   9640   9645     1
   9640   9641     1
   9641   9644     1
   9641   9648     1
   9641   9646     1
   9642   9644     1
   9651   9654     1
   9651   9655     1
   9652   9654     1
   9652   9655     1
   9656   9664     1
   9656   9672     1
   9656   9677     1
   9656   9665     1
   9657   9674     1
   9657   9675     1
   9657   9663     1
   9657   9671     1
   9658   9660     1
   9658   9669     1
   9658   9659     1
   9658   9676     1
   9658   9674     1
   9658   9675     1
   9658   9662     1
   9659   9670     1
   9659   9678     1
   9659   9661     1
   9659   9668     1
   9659   9664     1
   9659   9672     1
   9660   9672     1
   9660   9665     1
   9660   9673     1
   9661   9671     1
   9662   9664     1
   9662   9673     1
   9663   9668     1
   9663   9664     1
   9663   9666     1
   9663   9678     1
   9663   9665     1
   9663   9673     1
   9664   9669     1
   9664   9667     1
   9664   9671     1
   9665   9667     1
   9674   9678     1
   9674   9677     1
   9675   9678     1
   9675   9677     1
   9679   9687     1
   9679   9695     1
   9679   9700     1
   9679   9688     1
   9680   9686     1
   9680   9694     1
   9680   9697     1
   9680   9698     1
   9681   9683     1
   9681   9692     1
   9681   9682     1
   9681   9699     1
   9681   9697     1
   9681   9698     1
   9681   9685     1
   9682   9684     1
   9682   9691     1
   9682   9687     1
   9682   9695     1
   9682   9693     1
   9682   9701     1
   9683   9688     1
   9683   9696     1
   9683   9695     1
   9684   9694     1
   9685   9696     1
   9685   9687     1
   9686   9689     1
   9686   9701     1
   9686   9688     1
   9686   9696     1
   9686   9691     1
   9686   9687     1
   9687   9690     1
   9687   9694     1
   9687   9692     1
   9688   9690     1
   9697   9700     1
   9697   9701     1
   9698   9700     1
   9698   9701     1
   9702   9710     1
   9702   9718     1
   9702   9723     1
   9702   9711     1
   9703   9720     1
   9703   9721     1
   9703   9709     1
   9703   9717     1
   9704   9706     1
   9704   9715     1
   9704   9705     1
   9704   9722     1
   9704   9720     1
   9704   9721     1
   9704   9708     1
   9705   9716     1
   9705   9724     1
   9705   9707     1
   9705   9714     1
   9705   9710     1
   9705   9718     1
   9706   9718     1
   9706   9711     1
   9706   9719     1
   9707   9717     1
   9708   9710     1
   9708   9719     1
   9709   9714     1
   9709   9710     1
   9709   9712     1
   9709   9724     1
   9709   9711     1
   9709   9719     1
   9710   9715     1
   9710   9713     1
   9710   9717     1
   9711   9713     1
   9720   9724     1
   9720   9723     1
   9721   9724     1
   9721   9723     1
   9725   9733     1
   9725   9741     1
   9725   9746     1
   9725   9734     1
   9726   9732     1
   9726   9740     1
   9726   9743     1
   9726   9744     1
   9727   9729     1
   9727   9738     1
   9727   9728     1
   9727   9745     1
   9727   9743     1
   9727   9744     1
   9727   9731     1
   9728   9730     1
   9728   9737     1
   9728   9733     1
   9728   9741     1
   9728   9739     1
   9728   9747     1
   9729   9734     1
   9729   9742     1
   9729   9741     1
   9730   9740     1
   9731   9742     1
   9731   9733     1
   9732   9735     1
   9732   9747     1
   9732   9734     1
   9732   9742     1
   9732   9737     1
   9732   9733     1
   9733   9736     1
   9733   9740     1
   9733   9738     1
   9734   9736     1
   9743   9746     1
   9743   9747     1
   9744   9746     1
   9744   9747     1
   9748   9756     1
   9748   9764     1
   9748   9769     1
   9748   9757     1
   9749   9766     1
   9749   9767     1
   9749   9755     1
   9749   9763     1
   9750   9752     1
   9750   9761     1
   9750   9751     1
   9750   9768     1
   9750   9766     1
   9750   9767     1
   9750   9754     1
   9751   9762     1
   9751   9770     1
   9751   9753     1
   9751   9760     1
   9751   9756     1
   9751   9764     1
   9752   9764     1
   9752   9757     1
   9752   9765     1
   9753   9763     1
   9754   9756     1
   9754   9765     1
   9755   9760     1
   9755   9756     1
   9755   9758     1
   9755   9770     1
   9755   9757     1
   9755   9765     1
   9756   9761     1
   9756   9759     1
   9756   9763     1
   9757   9759     1
   9766   9770     1
   9766   9769     1
   9767   9770     1
   9767   9769     1
   9771   9779     1
   9771   9787     1
   9771   9792     1
   9771   9780     1
   9772   9778     1
   9772   9786     1
   9772   9789     1
   9772   9790     1
   9773   9775     1
   9773   9784     1
   9773   9774     1
   9773   9791     1
   9773   9789     1
   9773   9790     1
   9773   9777     1
   9774   9776     1
   9774   9783     1
   9774   9779     1
   9774   9787     1
   9774   9785     1
   9774   9793     1
   9775   9780     1
   9775   9788     1
   9775   9787     1
   9776   9786     1
   9777   9788     1
   9777   9779     1
   9778   9781     1
   9778   9793     1
   9778   9780     1
   9778   9788     1
   9778   9783     1
   9778   9779     1
   9779   9782     1
   9779   9786     1
   9779   9784     1
   9780   9782     1
   9789   9792     1
   9789   9793     1
   9790   9792     1
   9790   9793     1
   9794   9802     1
   9794   9810     1
   9794   9815     1
   9794   9803     1
   9795   9812     1
   9795   9813     1
   9795   9801     1
   9795   9809     1
   9796   9798     1
   9796   9807     1
   9796   9797     1
   9796   9814     1
   9796   9812     1
   9796   9813     1
   9796   9800     1
   9797   9808     1
   9797   9816     1
   9797   9799     1
   9797   9806     1
   9797   9802     1
   9797   9810     1
   9798   9810     1
   9798   9803     1
   9798   9811     1
   9799   9809     1
   9800   9802     1
   9800   9811     1
   9801   9806     1
   9801   9802     1
   9801   9804     1
   9801   9816     1
   9801   9803     1
   9801   9811     1
   9802   9807     1
   9802   9805     1
   9802   9809     1
   9803   9805     1
   9812   9816     1
   9812   9815     1
   9813   9816     1
   9813   9815     1
   9817   9825     1
   9817   9833     1
   9817   9838     1
   9817   9826     1
   9818   9824     1
   9818   9832     1
   9818   9835     1
   9818   9836     1
   9819   9821     1
   9819   9830     1
   9819   9820     1
   9819   9837     1
   9819   9835     1
   9819   9836     1
   9819   9823     1
   9820   9822     1
   9820   9829     1
   9820   9825     1
   9820   9833     1
   9820   9831     1
   9820   9839     1
   9821   9826     1
   9821   9834     1
   9821   9833     1
   9822   9832     1
   9823   9834     1
   9823   9825     1
   9824   9827     1
   9824   9839     1
   9824   9826     1
   9824   9834     1
   9824   9829     1
   9824   9825     1
   9825   9828     1
   9825   9832     1
   9825   9830     1
   9826   9828     1
   9835   9838     1
   9835   9839     1
   9836   9838     1
   9836   9839     1
   9840   9848     1
   9840   9856     1
   9840   9861     1
   9840   9849     1
   9841   9858     1
   9841   9859     1
   9841   9847     1
   9841   9855     1
   9842   9844     1
   9842   9853     1
   9842   9843     1
   9842   9860     1
   9842   9858     1
   9842   9859     1
   9842   9846     1
   9843   9854     1
   9843   9862     1
   9843   9845     1
   9843   9852     1
   9843   9848     1
   9843   9856     1
   9844   9856     1
   9844   9849     1
   9844   9857     1
   9845   9855     1
   9846   9848     1
   9846   9857     1
   9847   9852     1
   9847   9848     1
   9847   9850     1
   9847   9862     1
   9847   9849     1
   9847   9857     1
   9848   9853     1
   9848   9851     1
   9848   9855     1
   9849   9851     1
   9858   9862     1
   9858   9861     1
   9859   9862     1
   9859   9861     1
   9863   9871     1
   9863   9879     1
   9863   9884     1
   9863   9872     1
   9864   9870     1
   9864   9878     1
   9864   9881     1
   9864   9882     1
   9865   9867     1
   9865   9876     1
   9865   9866     1
   9865   9883     1
   9865   9881     1
   9865   9882     1
   9865   9869     1
   9866   9868     1
   9866   9875     1
   9866   9871     1
   9866   9879     1
   9866   9877     1
   9866   9885     1
   9867   9872     1
   9867   9880     1
   9867   9879     1
   9868   9878     1
   9869   9880     1
   9869   9871     1
   9870   9873     1
   9870   9885     1
   9870   9872     1
   9870   9880     1
   9870   9875     1
   9870   9871     1
   9871   9874     1
   9871   9878     1
   9871   9876     1
   9872   9874     1
   9881   9884     1
   9881   9885     1
   9882   9884     1
   9882   9885     1
   9886   9894     1
   9886   9902     1
   9886   9907     1
   9886   9895     1
   9887   9904     1
   9887   9905     1
   9887   9893     1
   9887   9901     1
   9888   9890     1
   9888   9899     1
   9888   9889     1
   9888   9906     1
   9888   9904     1
   9888   9905     1
   9888   9892     1
   9889   9900     1
   9889   9908     1
   9889   9891     1
   9889   9898     1
   9889   9894     1
   9889   9902     1
   9890   9902     1
   9890   9895     1
   9890   9903     1
   9891   9901     1
   9892   9894     1
   9892   9903     1
   9893   9898     1
   9893   9894     1
   9893   9896     1
   9893   9908     1
   9893   9895     1
   9893   9903     1
   9894   9899     1
   9894   9897     1
   9894   9901     1
   9895   9897     1
   9904   9908     1
   9904   9907     1
   9905   9908     1
   9905   9907     1
   9909   9917     1
   9909   9925     1
   9909   9930     1
   9909   9918     1
   9910   9916     1
   9910   9924     1
   9910   9927     1
   9910   9928     1
   9911   9913     1
   9911   9922     1
   9911   9912     1
   9911   9929     1
   9911   9927     1
   9911   9928     1
   9911   9915     1
   9912   9914     1
   9912   9921     1
   9912   9917     1
   9912   9925     1
   9912   9923     1
   9912   9931     1
   9913   9918     1
   9913   9926     1
   9913   9925     1
   9914   9924     1
   9915   9926     1
   9915   9917     1
   9916   9919     1
   9916   9931     1
   9916   9918     1
   9916   9926     1
   9916   9921     1
   9916   9917     1
   9917   9920     1
   9917   9924     1
   9917   9922     1
   9918   9920     1
   9927   9930     1
   9927   9931     1
   9928   9930     1
   9928   9931     1
   9932   9940     1
   9932   9948     1
   9932   9953     1
   9932   9941     1
   9933   9950     1
   9933   9951     1
   9933   9939     1
   9933   9947     1
   9934   9936     1
   9934   9945     1
   9934   9935     1
   9934   9952     1
   9934   9950     1
   9934   9951     1
   9934   9938     1
   9935   9946     1
   9935   9954     1
   9935   9937     1
   9935   9944     1
   9935   9940     1
   9935   9948     1
   9936   9948     1
   9936   9941     1
   9936   9949     1
   9937   9947     1
   9938   9940     1
   9938   9949     1
   9939   9944     1
   9939   9940     1
   9939   9942     1
   9939   9954     1
   9939   9941     1
   9939   9949     1
   9940   9945     1
   9940   9943     1
   9940   9947     1
   9941   9943     1
   9950   9954     1
   9950   9953     1
   9951   9954     1
   9951   9953     1
   9955   9963     1
   9955   9971     1
   9955   9976     1
   9955   9964     1
   9956   9962     1
   9956   9970     1
   9956   9973     1
   9956   9974     1
   9957   9959     1
   9957   9968     1
   9957   9958     1
   9957   9975     1
   9957   9973     1
   9957   9974     1
   9957   9961     1
   9958   9960     1
   9958   9967     1
   9958   9963     1
   9958   9971     1
   9958   9969     1
   9958   9977     1
   9959   9964     1
   9959   9972     1
   9959   9971     1
   9960   9970     1
   9961   9972     1
   9961   9963     1
   9962   9965     1
   9962   9977     1
   9962   9964     1
   9962   9972     1
   9962   9967     1
   9962   9963     1
   9963   9966     1
   9963   9970     1
   9963   9968     1
   9964   9966     1
   9973   9976     1
   9973   9977     1
   9974   9976     1
   9974   9977     1
   9978   9986     1
   9978   9994     1
   9978   9999     1
   9978   9987     1
   9979   9996     1
   9979   9997     1
   9979   9985     1
   9979   9993     1
   9980   9982     1
   9980   9991     1
   9980   9981     1
   9980   9998     1
   9980   9996     1
   9980   9997     1
   9980   9984     1
   9981   9992     1
   9981  10000     1
   9981   9983     1
   9981   9990     1
   9981   9986     1
   9981   9994     1
   9982   9994     1
   9982   9987     1
   9982   9995     1
   9983   9993     1
   9984   9986     1
   9984   9995     1
   9985   9990     1
   9985   9986     1
   9985   9988     1
   9985  10000     1
   9985   9987     1
   9985   9995     1
   9986   9991     1
   9986   9989     1
   9986   9993     1
   9987   9989     1
   9996  10000     1
   9996   9999     1
   9997  10000     1
   9997   9999     1
  10001  10009     1
  10001  10017     1
  10001  10022     1
  10001  10010     1
  10002  10008     1
  10002  10016     1
  10002  10019     1
  10002  10020     1
  10003  10005     1
  10003  10014     1
  10003  10004     1
  10003  10021     1
  10003  10019     1
  10003  10020     1
  10003  10007     1
  10004  10006     1
  10004  10013     1
  10004  10009     1
  10004  10017     1
  10004  10015     1
  10004  10023     1
  10005  10010     1
  10005  10018     1
  10005  10017     1
  10006  10016     1
  10007  10018     1
  10007  10009     1
  10008  10011     1
  10008  10023     1
  10008  10010     1
  10008  10018     1
  10008  10013     1
  10008  10009     1
  10009  10012     1
  10009  10016     1
  10009  10014     1
  10010  10012     1
  10019  10022     1
  10019  10023     1
  10020  10022     1
  10020  10023     1
  10024  10032     1
  10024  10040     1
  10024  10045     1
  10024  10033     1
  10025  10042     1
  10025  10043     1
  10025  10031     1
  10025  10039     1
  10026  10028     1
  10026  10037     1
  10026  10027     1
  10026  10044     1
  10026  10042     1
  10026  10043     1
  10026  10030     1
  10027  10038     1
  10027  10046     1
  10027  10029     1
  10027  10036     1
  10027  10032     1
  10027  10040     1
  10028  10040     1
  10028  10033     1
  10028  10041     1
  10029  10039     1
  10030  10032     1
  10030  10041     1
  10031  10036     1
  10031  10032     1
  10031  10034     1
  10031  10046     1
  10031  10033     1
  10031  10041     1
  10032  10037     1
  10032  10035     1
  10032  10039     1
  10033  10035     1
  10042  10046     1
  10042  10045     1
  10043  10046     1
  10043  10045     1
  10047  10055     1
  10047  10063     1
  10047  10068     1
  10047  10056     1
  10048  10054     1
  10048  10062     1
  10048  10065     1
  10048  10066     1
  10049  10051     1
  10049  10060     1
  10049  10050     1
  10049  10067     1
  10049  10065     1
  10049  10066     1
  10049  10053     1
  10050  10052     1
  10050  10059     1
  10050  10055     1
  10050  10063     1
  10050  10061     1
  10050  10069     1
  10051  10056     1
  10051  10064     1
  10051  10063     1
  10052  10062     1
  10053  10064     1
  10053  10055     1
  10054  10057     1
  10054  10069     1
  10054  10056     1
  10054  10064     1
  10054  10059     1
  10054  10055     1
  10055  10058     1
  10055  10062     1
  10055  10060     1
  10056  10058     1
  10065  10068     1
  10065  10069     1
  10066  10068     1
  10066  10069     1
  10070  10078     1
  10070  10086     1
  10070  10091     1
  10070  10079     1
  10071  10088     1
  10071  10089     1
  10071  10077     1
  10071  10085     1
  10072  10074     1
  10072  10083     1
  10072  10073     1
  10072  10090     1
  10072  10088     1
  10072  10089     1
  10072  10076     1
  10073  10084     1
  10073  10092     1
  10073  10075     1
  10073  10082     1
  10073  10078     1
  10073  10086     1
  10074  10086     1
  10074  10079     1
  10074  10087     1
  10075  10085     1
  10076  10078     1
  10076  10087     1
  10077  10082     1
  10077  10078     1
  10077  10080     1
  10077  10092     1
  10077  10079     1
  10077  10087     1
  10078  10083     1
  10078  10081     1
  10078  10085     1
  10079  10081     1
  10088  10092     1
  10088  10091     1
  10089  10092     1
  10089  10091     1
  10093  10101     1
  10093  10109     1
  10093  10114     1
  10093  10102     1
  10094  10100     1
  10094  10108     1
  10094  10111     1
  10094  10112     1
  10095  10097     1
  10095  10106     1
  10095  10096     1
  10095  10113     1
  10095  10111     1
  10095  10112     1
  10095  10099     1
  10096  10098     1
  10096  10105     1
  10096  10101     1
  10096  10109     1
  10096  10107     1
  10096  10115     1
  10097  10102     1
  10097  10110     1
  10097  10109     1
  10098  10108     1
  10099  10110     1
  10099  10101     1
  10100  10103     1
  10100  10115     1
  10100  10102     1
  10100  10110     1
  10100  10105     1
  10100  10101     1
  10101  10104     1
  10101  10108     1
  10101  10106     1
  10102  10104     1
  10111  10114     1
  10111  10115     1
  10112  10114     1
  10112  10115     1

[ angles ]
;    ai     aj     ak funct         c0         c1         c2         c3
      1      2     14     1   114.2100488 537.225600
      1      5     17     1   114.2100488 537.225600
      1      8     11     1   114.2100488 537.225600
      2      1      5     1   109.6600471 523.836800
      2      1      8     1   109.6600471 523.836800
      2     14     26     1   111.5100476 526.347200
      5      1      8     1   109.6600471 523.836800
      5     17     20     1   111.5100476 526.347200
      8     11     23     1   111.5100476 526.347200
     11     23     88     1   107.9700462 569.024000
     14     26    118     1   107.9700462 569.024000
     17     20     58     1   107.9700462 569.024000
     20     58     49     1   112.4800480 524.673600
     23     88     79     1   112.4800480 524.673600
     26    118    109     1   112.4800480 524.673600
     30     31     43     1   114.2100488 537.225600
     30     34     46     1   114.2100488 537.225600
     30     37     40     1   114.2100488 537.225600
     31     30     34     1   109.6600471 523.836800
     31     30     37     1   109.6600471 523.836800
     31     43     55     1   111.5100476 526.347200
     34     30     37     1   109.6600471 523.836800
     34     46     52     1   111.5100476 526.347200
     37     40     49     1   111.5100476 526.347200
     40     49     58     1   107.9700462 569.024000
     43     55    178     1   107.9700462 569.024000
     46     52    148     1   107.9700462 569.024000
     52    148    139     1   112.4800480 524.673600
     55    178    169     1   112.4800480 524.673600
     60     61     73     1   114.2100488 537.225600
     60     64     76     1   114.2100488 537.225600
     60     67     70     1   114.2100488 537.225600
     61     60     64     1   109.6600471 523.836800
     61     60     67     1   109.6600471 523.836800
     61     73     85     1   111.5100476 526.347200
     64     60     67     1   109.6600471 523.836800
     64     76     82     1   111.5100476 526.347200
     67     70     79     1   111.5100476 526.347200
     70     79     88     1   107.9700462 569.024000
     73     85    238     1   107.9700462 569.024000
     76     82    208     1   107.9700462 569.024000
     82    208    199     1   112.4800480 524.673600
     85    238    229     1   112.4800480 524.673600
     90     91    103     1   114.2100488 537.225600
     90     94    106     1   114.2100488 537.225600
     90     97    100     1   114.2100488 537.225600
     91     90     94     1   109.6600471 523.836800
     91     90     97     1   109.6600471 523.836800
     91    103    115     1   111.5100476 526.347200
     94     90     97     1   109.6600471 523.836800
     94    106    112     1   111.5100476 526.347200
     97    100    109     1   111.5100476 526.347200
    100    109    118     1   107.9700462 569.024000
    103    115    298     1   107.9700462 569.024000
    106    112    268     1   107.9700462 569.024000
    112    268    259     1   112.4800480 524.673600
    115    298    289     1   112.4800480 524.673600
    120    121    133     1   114.2100488 537.225600
    120    124    136     1   114.2100488 537.225600
    120    127    130     1   114.2100488 537.225600
    121    120    124     1   109.6600471 523.836800
    121    120    127     1   109.6600471 523.836800
    121    133    145     1   111.5100476 526.347200
    124    120    127     1   109.6600471 523.836800
    124    136    142     1   111.5100476 526.347200
    127    130    139     1   111.5100476 526.347200
    130    139    148     1   107.9700462 569.024000
    133    145    358     1   107.9700462 569.024000
    136    142    328     1   107.9700462 569.024000
    142    328    319     1   112.4800480 524.673600
    145    358    349     1   112.4800480 524.673600
    150    151    163     1   114.2100488 537.225600
    150    154    166     1   114.2100488 537.225600
    150    157    160     1   114.2100488 537.225600
    151    150    154     1   109.6600471 523.836800
    151    150    157     1   109.6600471 523.836800
    151    163    175     1   111.5100476 526.347200
    154    150    157     1   109.6600471 523.836800
    154    166    172     1   111.5100476 526.347200
    157    160    169     1   111.5100476 526.347200
    160    169    178     1   107.9700462 569.024000
    163    175    418     1   107.9700462 569.024000
    166    172    388     1   107.9700462 569.024000
    172    388    379     1   112.4800480 524.673600
    175    418    409     1   112.4800480 524.673600
    180    181    193     1   114.2100488 537.225600
    180    184    196     1   114.2100488 537.225600
    180    187    190     1   114.2100488 537.225600
    181    180    184     1   109.6600471 523.836800
    181    180    187     1   109.6600471 523.836800
    181    193    205     1   111.5100476 526.347200
    184    180    187     1   109.6600471 523.836800
    184    196    202     1   111.5100476 526.347200
    187    190    199     1   111.5100476 526.347200
    190    199    208     1   107.9700462 569.024000
    193    205    478     1   107.9700462 569.024000
    196    202    448     1   107.9700462 569.024000
    202    448    439     1   112.4800480 524.673600
    205    478    469     1   112.4800480 524.673600
    210    211    223     1   114.2100488 537.225600
    210    214    226     1   114.2100488 537.225600
    210    217    220     1   114.2100488 537.225600
    211    210    214     1   109.6600471 523.836800
    211    210    217     1   109.6600471 523.836800
    211    223    235     1   111.5100476 526.347200
    214    210    217     1   109.6600471 523.836800
    214    226    232     1   111.5100476 526.347200
    217    220    229     1   111.5100476 526.347200
    220    229    238     1   107.9700462 569.024000
    223    235    538     1   107.9700462 569.024000
    226    232    508     1   107.9700462 569.024000
    232    508    499     1   112.4800480 524.673600
    235    538    529     1   112.4800480 524.673600
    240    241    253     1   114.2100488 537.225600
    240    244    256     1   114.2100488 537.225600
    240    247    250     1   114.2100488 537.225600
    241    240    244     1   109.6600471 523.836800
    241    240    247     1   109.6600471 523.836800
    241    253    265     1   111.5100476 526.347200
    244    240    247     1   109.6600471 523.836800
    244    256    262     1   111.5100476 526.347200
    247    250    259     1   111.5100476 526.347200
    250    259    268     1   107.9700462 569.024000
    253    265    598     1   107.9700462 569.024000
    256    262    568     1   107.9700462 569.024000
    262    568    559     1   112.4800480 524.673600
    265    598    589     1   112.4800480 524.673600
    270    271    283     1   114.2100488 537.225600
    270    274    286     1   114.2100488 537.225600
    270    277    280     1   114.2100488 537.225600
    271    270    274     1   109.6600471 523.836800
    271    270    277     1   109.6600471 523.836800
    271    283    295     1   111.5100476 526.347200
    274    270    277     1   109.6600471 523.836800
    274    286    292     1   111.5100476 526.347200
    277    280    289     1   111.5100476 526.347200
    280    289    298     1   107.9700462 569.024000
    283    295    658     1   107.9700462 569.024000
    286    292    628     1   107.9700462 569.024000
    292    628    619     1   112.4800480 524.673600
    295    658    649     1   112.4800480 524.673600
    300    301    313     1   114.2100488 537.225600
    300    304    316     1   114.2100488 537.225600
    300    307    310     1   114.2100488 537.225600
    301    300    304     1   109.6600471 523.836800
    301    300    307     1   109.6600471 523.836800
    301    313    325     1   111.5100476 526.347200
    304    300    307     1   109.6600471 523.836800
    304    316    322     1   111.5100476 526.347200
    307    310    319     1   111.5100476 526.347200
    310    319    328     1   107.9700462 569.024000
    313    325    718     1   107.9700462 569.024000
    316    322    688     1   107.9700462 569.024000
    322    688    679     1   112.4800480 524.673600
    325    718    709     1   112.4800480 524.673600
    330    331    343     1   114.2100488 537.225600
    330    334    346     1   114.2100488 537.225600
    330    337    340     1   114.2100488 537.225600
    331    330    334     1   109.6600471 523.836800
    331    330    337     1   109.6600471 523.836800
    331    343    355     1   111.5100476 526.347200
    334    330    337     1   109.6600471 523.836800
    334    346    352     1   111.5100476 526.347200
    337    340    349     1   111.5100476 526.347200
    340    349    358     1   107.9700462 569.024000
    343    355    778     1   107.9700462 569.024000
    346    352    748     1   107.9700462 569.024000
    352    748    739     1   112.4800480 524.673600
    355    778    769     1   112.4800480 524.673600
    360    361    373     1   114.2100488 537.225600
    360    364    376     1   114.2100488 537.225600
    360    367    370     1   114.2100488 537.225600
    361    360    364     1   109.6600471 523.836800
    361    360    367     1   109.6600471 523.836800
    361    373    385     1   111.5100476 526.347200
    364    360    367     1   109.6600471 523.836800
    364    376    382     1   111.5100476 526.347200
    367    370    379     1   111.5100476 526.347200
    370    379    388     1   107.9700462 569.024000
    373    385    838     1   107.9700462 569.024000
    376    382    808     1   107.9700462 569.024000
    382    808    799     1   112.4800480 524.673600
    385    838    829     1   112.4800480 524.673600
    390    391    403     1   114.2100488 537.225600
    390    394    406     1   114.2100488 537.225600
    390    397    400     1   114.2100488 537.225600
    391    390    394     1   109.6600471 523.836800
    391    390    397     1   109.6600471 523.836800
    391    403    415     1   111.5100476 526.347200
    394    390    397     1   109.6600471 523.836800
    394    406    412     1   111.5100476 526.347200
    397    400    409     1   111.5100476 526.347200
    400    409    418     1   107.9700462 569.024000
    403    415    898     1   107.9700462 569.024000
    406    412    868     1   107.9700462 569.024000
    412    868    859     1   112.4800480 524.673600
    415    898    889     1   112.4800480 524.673600
    420    421    433     1   114.2100488 537.225600
    420    424    436     1   114.2100488 537.225600
    420    427    430     1   114.2100488 537.225600
    421    420    424     1   109.6600471 523.836800
    421    420    427     1   109.6600471 523.836800
    421    433    445     1   111.5100476 526.347200
    424    420    427     1   109.6600471 523.836800
    424    436    442     1   111.5100476 526.347200
    427    430    439     1   111.5100476 526.347200
    430    439    448     1   107.9700462 569.024000
    433    445    958     1   107.9700462 569.024000
    436    442    928     1   107.9700462 569.024000
    442    928    919     1   112.4800480 524.673600
    445    958    949     1   112.4800480 524.673600
    450    451    463     1   114.2100488 537.225600
    450    454    466     1   114.2100488 537.225600
    450    457    460     1   114.2100488 537.225600
    451    450    454     1   109.6600471 523.836800
    451    450    457     1   109.6600471 523.836800
    451    463    475     1   111.5100476 526.347200
    454    450    457     1   109.6600471 523.836800
    454    466    472     1   111.5100476 526.347200
    457    460    469     1   111.5100476 526.347200
    460    469    478     1   107.9700462 569.024000
    463    475   1018     1   107.9700462 569.024000
    466    472    988     1   107.9700462 569.024000
    472    988    979     1   112.4800480 524.673600
    475   1018   1009     1   112.4800480 524.673600
    480    481    493     1   114.2100488 537.225600
    480    484    496     1   114.2100488 537.225600
    480    487    490     1   114.2100488 537.225600
    481    480    484     1   109.6600471 523.836800
    481    480    487     1   109.6600471 523.836800
    481    493    505     1   111.5100476 526.347200
    484    480    487     1   109.6600471 523.836800
    484    496    502     1   111.5100476 526.347200
    487    490    499     1   111.5100476 526.347200
    490    499    508     1   107.9700462 569.024000
    493    505   1078     1   107.9700462 569.024000
    496    502   1048     1   107.9700462 569.024000
    502   1048   1039     1   112.4800480 524.673600
    505   1078   1069     1   112.4800480 524.673600
    510    511    523     1   114.2100488 537.225600
    510    514    526     1   114.2100488 537.225600
    510    517    520     1   114.2100488 537.225600
    511    510    514     1   109.6600471 523.836800
    511    510    517     1   109.6600471 523.836800
    511    523    535     1   111.5100476 526.347200
    514    510    517     1   109.6600471 523.836800
    514    526    532     1   111.5100476 526.347200
    517    520    529     1   111.5100476 526.347200
    520    529    538     1   107.9700462 569.024000
    523    535   1138     1   107.9700462 569.024000
    526    532   1108     1   107.9700462 569.024000
    532   1108   1099     1   112.4800480 524.673600
    535   1138   1129     1   112.4800480 524.673600
    540    541    553     1   114.2100488 537.225600
    540    544    556     1   114.2100488 537.225600
    540    547    550     1   114.2100488 537.225600
    541    540    544     1   109.6600471 523.836800
    541    540    547     1   109.6600471 523.836800
    541    553    565     1   111.5100476 526.347200
    544    540    547     1   109.6600471 523.836800
    544    556    562     1   111.5100476 526.347200
    547    550    559     1   111.5100476 526.347200
    550    559    568     1   107.9700462 569.024000
    553    565   1198     1   107.9700462 569.024000
    556    562   1168     1   107.9700462 569.024000
    562   1168   1159     1   112.4800480 524.673600
    565   1198   1189     1   112.4800480 524.673600
    570    571    583     1   114.2100488 537.225600
    570    574    586     1   114.2100488 537.225600
    570    577    580     1   114.2100488 537.225600
    571    570    574     1   109.6600471 523.836800
    571    570    577     1   109.6600471 523.836800
    571    583    595     1   111.5100476 526.347200
    574    570    577     1   109.6600471 523.836800
    574    586    592     1   111.5100476 526.347200
    577    580    589     1   111.5100476 526.347200
    580    589    598     1   107.9700462 569.024000
    583    595   1258     1   107.9700462 569.024000
    586    592   1228     1   107.9700462 569.024000
    592   1228   1219     1   112.4800480 524.673600
    595   1258   1249     1   112.4800480 524.673600
    600    601    613     1   114.2100488 537.225600
    600    604    616     1   114.2100488 537.225600
    600    607    610     1   114.2100488 537.225600
    601    600    604     1   109.6600471 523.836800
    601    600    607     1   109.6600471 523.836800
    601    613    625     1   111.5100476 526.347200
    604    600    607     1   109.6600471 523.836800
    604    616    622     1   111.5100476 526.347200
    607    610    619     1   111.5100476 526.347200
    610    619    628     1   107.9700462 569.024000
    613    625   1318     1   107.9700462 569.024000
    616    622   1288     1   107.9700462 569.024000
    622   1288   1279     1   112.4800480 524.673600
    625   1318   1309     1   112.4800480 524.673600
    630    631    643     1   114.2100488 537.225600
    630    634    646     1   114.2100488 537.225600
    630    637    640     1   114.2100488 537.225600
    631    630    634     1   109.6600471 523.836800
    631    630    637     1   109.6600471 523.836800
    631    643    655     1   111.5100476 526.347200
    634    630    637     1   109.6600471 523.836800
    634    646    652     1   111.5100476 526.347200
    637    640    649     1   111.5100476 526.347200
    640    649    658     1   107.9700462 569.024000
    643    655   1378     1   107.9700462 569.024000
    646    652   1348     1   107.9700462 569.024000
    652   1348   1339     1   112.4800480 524.673600
    655   1378   1369     1   112.4800480 524.673600
    660    661    673     1   114.2100488 537.225600
    660    664    676     1   114.2100488 537.225600
    660    667    670     1   114.2100488 537.225600
    661    660    664     1   109.6600471 523.836800
    661    660    667     1   109.6600471 523.836800
    661    673    685     1   111.5100476 526.347200
    664    660    667     1   109.6600471 523.836800
    664    676    682     1   111.5100476 526.347200
    667    670    679     1   111.5100476 526.347200
    670    679    688     1   107.9700462 569.024000
    673    685   1438     1   107.9700462 569.024000
    676    682   1408     1   107.9700462 569.024000
    682   1408   1399     1   112.4800480 524.673600
    685   1438   1429     1   112.4800480 524.673600
    690    691    703     1   114.2100488 537.225600
    690    694    706     1   114.2100488 537.225600
    690    697    700     1   114.2100488 537.225600
    691    690    694     1   109.6600471 523.836800
    691    690    697     1   109.6600471 523.836800
    691    703    715     1   111.5100476 526.347200
    694    690    697     1   109.6600471 523.836800
    694    706    712     1   111.5100476 526.347200
    697    700    709     1   111.5100476 526.347200
    700    709    718     1   107.9700462 569.024000
    703    715   1498     1   107.9700462 569.024000
    706    712   1468     1   107.9700462 569.024000
    712   1468   1459     1   112.4800480 524.673600
    715   1498   1489     1   112.4800480 524.673600
    720    721    733     1   114.2100488 537.225600
    720    724    736     1   114.2100488 537.225600
    720    727    730     1   114.2100488 537.225600
    721    720    724     1   109.6600471 523.836800
    721    720    727     1   109.6600471 523.836800
    721    733    745     1   111.5100476 526.347200
    724    720    727     1   109.6600471 523.836800
    724    736    742     1   111.5100476 526.347200
    727    730    739     1   111.5100476 526.347200
    730    739    748     1   107.9700462 569.024000
    733    745   1558     1   107.9700462 569.024000
    736    742   1528     1   107.9700462 569.024000
    742   1528   1519     1   112.4800480 524.673600
    745   1558   1549     1   112.4800480 524.673600
    750    751    763     1   114.2100488 537.225600
    750    754    766     1   114.2100488 537.225600
    750    757    760     1   114.2100488 537.225600
    751    750    754     1   109.6600471 523.836800
    751    750    757     1   109.6600471 523.836800
    751    763    775     1   111.5100476 526.347200
    754    750    757     1   109.6600471 523.836800
    754    766    772     1   111.5100476 526.347200
    757    760    769     1   111.5100476 526.347200
    760    769    778     1   107.9700462 569.024000
    763    775   1618     1   107.9700462 569.024000
    766    772   1588     1   107.9700462 569.024000
    772   1588   1579     1   112.4800480 524.673600
    775   1618   1609     1   112.4800480 524.673600
    780    781    793     1   114.2100488 537.225600
    780    784    796     1   114.2100488 537.225600
    780    787    790     1   114.2100488 537.225600
    781    780    784     1   109.6600471 523.836800
    781    780    787     1   109.6600471 523.836800
    781    793    805     1   111.5100476 526.347200
    784    780    787     1   109.6600471 523.836800
    784    796    802     1   111.5100476 526.347200
    787    790    799     1   111.5100476 526.347200
    790    799    808     1   107.9700462 569.024000
    793    805   1678     1   107.9700462 569.024000
    796    802   1648     1   107.9700462 569.024000
    802   1648   1639     1   112.4800480 524.673600
    805   1678   1669     1   112.4800480 524.673600
    810    811    823     1   114.2100488 537.225600
    810    814    826     1   114.2100488 537.225600
    810    817    820     1   114.2100488 537.225600
    811    810    814     1   109.6600471 523.836800
    811    810    817     1   109.6600471 523.836800
    811    823    835     1   111.5100476 526.347200
    814    810    817     1   109.6600471 523.836800
    814    826    832     1   111.5100476 526.347200
    817    820    829     1   111.5100476 526.347200
    820    829    838     1   107.9700462 569.024000
    823    835   1738     1   107.9700462 569.024000
    826    832   1708     1   107.9700462 569.024000
    832   1708   1699     1   112.4800480 524.673600
    835   1738   1729     1   112.4800480 524.673600
    840    841    853     1   114.2100488 537.225600
    840    844    856     1   114.2100488 537.225600
    840    847    850     1   114.2100488 537.225600
    841    840    844     1   109.6600471 523.836800
    841    840    847     1   109.6600471 523.836800
    841    853    865     1   111.5100476 526.347200
    844    840    847     1   109.6600471 523.836800
    844    856    862     1   111.5100476 526.347200
    847    850    859     1   111.5100476 526.347200
    850    859    868     1   107.9700462 569.024000
    853    865   1798     1   107.9700462 569.024000
    856    862   1768     1   107.9700462 569.024000
    862   1768   1759     1   112.4800480 524.673600
    865   1798   1789     1   112.4800480 524.673600
    870    871    883     1   114.2100488 537.225600
    870    874    886     1   114.2100488 537.225600
    870    877    880     1   114.2100488 537.225600
    871    870    874     1   109.6600471 523.836800
    871    870    877     1   109.6600471 523.836800
    871    883    895     1   111.5100476 526.347200
    874    870    877     1   109.6600471 523.836800
    874    886    892     1   111.5100476 526.347200
    877    880    889     1   111.5100476 526.347200
    880    889    898     1   107.9700462 569.024000
    883    895   1858     1   107.9700462 569.024000
    886    892   1828     1   107.9700462 569.024000
    892   1828   1819     1   112.4800480 524.673600
    895   1858   1849     1   112.4800480 524.673600
    900    901    913     1   114.2100488 537.225600
    900    904    916     1   114.2100488 537.225600
    900    907    910     1   114.2100488 537.225600
    901    900    904     1   109.6600471 523.836800
    901    900    907     1   109.6600471 523.836800
    901    913    925     1   111.5100476 526.347200
    904    900    907     1   109.6600471 523.836800
    904    916    922     1   111.5100476 526.347200
    907    910    919     1   111.5100476 526.347200
    910    919    928     1   107.9700462 569.024000
    913    925   1918     1   107.9700462 569.024000
    916    922   1888     1   107.9700462 569.024000
    922   1888   1879     1   112.4800480 524.673600
    925   1918   1909     1   112.4800480 524.673600
    930    931    943     1   114.2100488 537.225600
    930    934    946     1   114.2100488 537.225600
    930    937    940     1   114.2100488 537.225600
    931    930    934     1   109.6600471 523.836800
    931    930    937     1   109.6600471 523.836800
    931    943    955     1   111.5100476 526.347200
    934    930    937     1   109.6600471 523.836800
    934    946    952     1   111.5100476 526.347200
    937    940    949     1   111.5100476 526.347200
    940    949    958     1   107.9700462 569.024000
    943    955   1978     1   107.9700462 569.024000
    946    952   1948     1   107.9700462 569.024000
    952   1948   1939     1   112.4800480 524.673600
    955   1978   1969     1   112.4800480 524.673600
    960    961    973     1   114.2100488 537.225600
    960    964    976     1   114.2100488 537.225600
    960    967    970     1   114.2100488 537.225600
    961    960    964     1   109.6600471 523.836800
    961    960    967     1   109.6600471 523.836800
    961    973    985     1   111.5100476 526.347200
    964    960    967     1   109.6600471 523.836800
    964    976    982     1   111.5100476 526.347200
    967    970    979     1   111.5100476 526.347200
    970    979    988     1   107.9700462 569.024000
    973    985   2038     1   107.9700462 569.024000
    976    982   2008     1   107.9700462 569.024000
    982   2008   1999     1   112.4800480 524.673600
    985   2038   2029     1   112.4800480 524.673600
    990    991   1003     1   114.2100488 537.225600
    990    994   1006     1   114.2100488 537.225600
    990    997   1000     1   114.2100488 537.225600
    991    990    994     1   109.6600471 523.836800
    991    990    997     1   109.6600471 523.836800
    991   1003   1015     1   111.5100476 526.347200
    994    990    997     1   109.6600471 523.836800
    994   1006   1012     1   111.5100476 526.347200
    997   1000   1009     1   111.5100476 526.347200
   1000   1009   1018     1   107.9700462 569.024000
   1003   1015   2098     1   107.9700462 569.024000
   1006   1012   2068     1   107.9700462 569.024000
   1012   2068   2059     1   112.4800480 524.673600
   1015   2098   2089     1   112.4800480 524.673600
   1020   1021   1033     1   114.2100488 537.225600
   1020   1024   1036     1   114.2100488 537.225600
   1020   1027   1030     1   114.2100488 537.225600
   1021   1020   1024     1   109.6600471 523.836800
   1021   1020   1027     1   109.6600471 523.836800
   1021   1033   1045     1   111.5100476 526.347200
   1024   1020   1027     1   109.6600471 523.836800
   1024   1036   1042     1   111.5100476 526.347200
   1027   1030   1039     1   111.5100476 526.347200
   1030   1039   1048     1   107.9700462 569.024000
   1033   1045   2158     1   107.9700462 569.024000
   1036   1042   2128     1   107.9700462 569.024000
   1042   2128   2119     1   112.4800480 524.673600
   1045   2158   2149     1   112.4800480 524.673600
   1050   1051   1063     1   114.2100488 537.225600
   1050   1054   1066     1   114.2100488 537.225600
   1050   1057   1060     1   114.2100488 537.225600
   1051   1050   1054     1   109.6600471 523.836800
   1051   1050   1057     1   109.6600471 523.836800
   1051   1063   1075     1   111.5100476 526.347200
   1054   1050   1057     1   109.6600471 523.836800
   1054   1066   1072     1   111.5100476 526.347200
   1057   1060   1069     1   111.5100476 526.347200
   1060   1069   1078     1   107.9700462 569.024000
   1063   1075   2218     1   107.9700462 569.024000
   1066   1072   2188     1   107.9700462 569.024000
   1072   2188   2179     1   112.4800480 524.673600
   1075   2218   2209     1   112.4800480 524.673600
   1080   1081   1093     1   114.2100488 537.225600
   1080   1084   1096     1   114.2100488 537.225600
   1080   1087   1090     1   114.2100488 537.225600
   1081   1080   1084     1   109.6600471 523.836800
   1081   1080   1087     1   109.6600471 523.836800
   1081   1093   1105     1   111.5100476 526.347200
   1084   1080   1087     1   109.6600471 523.836800
   1084   1096   1102     1   111.5100476 526.347200
   1087   1090   1099     1   111.5100476 526.347200
   1090   1099   1108     1   107.9700462 569.024000
   1093   1105   2278     1   107.9700462 569.024000
   1096   1102   2248     1   107.9700462 569.024000
   1102   2248   2239     1   112.4800480 524.673600
   1105   2278   2269     1   112.4800480 524.673600
   1110   1111   1123     1   114.2100488 537.225600
   1110   1114   1126     1   114.2100488 537.225600
   1110   1117   1120     1   114.2100488 537.225600
   1111   1110   1114     1   109.6600471 523.836800
   1111   1110   1117     1   109.6600471 523.836800
   1111   1123   1135     1   111.5100476 526.347200
   1114   1110   1117     1   109.6600471 523.836800
   1114   1126   1132     1   111.5100476 526.347200
   1117   1120   1129     1   111.5100476 526.347200
   1120   1129   1138     1   107.9700462 569.024000
   1123   1135   2338     1   107.9700462 569.024000
   1126   1132   2308     1   107.9700462 569.024000
   1132   2308   2299     1   112.4800480 524.673600
   1135   2338   2329     1   112.4800480 524.673600
   1140   1141   1153     1   114.2100488 537.225600
   1140   1144   1156     1   114.2100488 537.225600
   1140   1147   1150     1   114.2100488 537.225600
   1141   1140   1144     1   109.6600471 523.836800
   1141   1140   1147     1   109.6600471 523.836800
   1141   1153   1165     1   111.5100476 526.347200
   1144   1140   1147     1   109.6600471 523.836800
   1144   1156   1162     1   111.5100476 526.347200
   1147   1150   1159     1   111.5100476 526.347200
   1150   1159   1168     1   107.9700462 569.024000
   1153   1165   2398     1   107.9700462 569.024000
   1156   1162   2368     1   107.9700462 569.024000
   1162   2368   2359     1   112.4800480 524.673600
   1165   2398   2389     1   112.4800480 524.673600
   1170   1171   1183     1   114.2100488 537.225600
   1170   1174   1186     1   114.2100488 537.225600
   1170   1177   1180     1   114.2100488 537.225600
   1171   1170   1174     1   109.6600471 523.836800
   1171   1170   1177     1   109.6600471 523.836800
   1171   1183   1195     1   111.5100476 526.347200
   1174   1170   1177     1   109.6600471 523.836800
   1174   1186   1192     1   111.5100476 526.347200
   1177   1180   1189     1   111.5100476 526.347200
   1180   1189   1198     1   107.9700462 569.024000
   1183   1195   2458     1   107.9700462 569.024000
   1186   1192   2428     1   107.9700462 569.024000
   1192   2428   2419     1   112.4800480 524.673600
   1195   2458   2449     1   112.4800480 524.673600
   1200   1201   1213     1   114.2100488 537.225600
   1200   1204   1216     1   114.2100488 537.225600
   1200   1207   1210     1   114.2100488 537.225600
   1201   1200   1204     1   109.6600471 523.836800
   1201   1200   1207     1   109.6600471 523.836800
   1201   1213   1225     1   111.5100476 526.347200
   1204   1200   1207     1   109.6600471 523.836800
   1204   1216   1222     1   111.5100476 526.347200
   1207   1210   1219     1   111.5100476 526.347200
   1210   1219   1228     1   107.9700462 569.024000
   1213   1225   2518     1   107.9700462 569.024000
   1216   1222   2488     1   107.9700462 569.024000
   1222   2488   2479     1   112.4800480 524.673600
   1225   2518   2509     1   112.4800480 524.673600
   1230   1231   1243     1   114.2100488 537.225600
   1230   1234   1246     1   114.2100488 537.225600
   1230   1237   1240     1   114.2100488 537.225600
   1231   1230   1234     1   109.6600471 523.836800
   1231   1230   1237     1   109.6600471 523.836800
   1231   1243   1255     1   111.5100476 526.347200
   1234   1230   1237     1   109.6600471 523.836800
   1234   1246   1252     1   111.5100476 526.347200
   1237   1240   1249     1   111.5100476 526.347200
   1240   1249   1258     1   107.9700462 569.024000
   1243   1255   2578     1   107.9700462 569.024000
   1246   1252   2548     1   107.9700462 569.024000
   1252   2548   2539     1   112.4800480 524.673600
   1255   2578   2569     1   112.4800480 524.673600
   1260   1261   1273     1   114.2100488 537.225600
   1260   1264   1276     1   114.2100488 537.225600
   1260   1267   1270     1   114.2100488 537.225600
   1261   1260   1264     1   109.6600471 523.836800
   1261   1260   1267     1   109.6600471 523.836800
   1261   1273   1285     1   111.5100476 526.347200
   1264   1260   1267     1   109.6600471 523.836800
   1264   1276   1282     1   111.5100476 526.347200
   1267   1270   1279     1   111.5100476 526.347200
   1270   1279   1288     1   107.9700462 569.024000
   1273   1285   2638     1   107.9700462 569.024000
   1276   1282   2608     1   107.9700462 569.024000
   1282   2608   2599     1   112.4800480 524.673600
   1285   2638   2629     1   112.4800480 524.673600
   1290   1291   1303     1   114.2100488 537.225600
   1290   1294   1306     1   114.2100488 537.225600
   1290   1297   1300     1   114.2100488 537.225600
   1291   1290   1294     1   109.6600471 523.836800
   1291   1290   1297     1   109.6600471 523.836800
   1291   1303   1315     1   111.5100476 526.347200
   1294   1290   1297     1   109.6600471 523.836800
   1294   1306   1312     1   111.5100476 526.347200
   1297   1300   1309     1   111.5100476 526.347200
   1300   1309   1318     1   107.9700462 569.024000
   1303   1315   2698     1   107.9700462 569.024000
   1306   1312   2668     1   107.9700462 569.024000
   1312   2668   2659     1   112.4800480 524.673600
   1315   2698   2689     1   112.4800480 524.673600
   1320   1321   1333     1   114.2100488 537.225600
   1320   1324   1336     1   114.2100488 537.225600
   1320   1327   1330     1   114.2100488 537.225600
   1321   1320   1324     1   109.6600471 523.836800
   1321   1320   1327     1   109.6600471 523.836800
   1321   1333   1345     1   111.5100476 526.347200
   1324   1320   1327     1   109.6600471 523.836800
   1324   1336   1342     1   111.5100476 526.347200
   1327   1330   1339     1   111.5100476 526.347200
   1330   1339   1348     1   107.9700462 569.024000
   1333   1345   2758     1   107.9700462 569.024000
   1336   1342   2728     1   107.9700462 569.024000
   1342   2728   2719     1   112.4800480 524.673600
   1345   2758   2749     1   112.4800480 524.673600
   1350   1351   1363     1   114.2100488 537.225600
   1350   1354   1366     1   114.2100488 537.225600
   1350   1357   1360     1   114.2100488 537.225600
   1351   1350   1354     1   109.6600471 523.836800
   1351   1350   1357     1   109.6600471 523.836800
   1351   1363   1375     1   111.5100476 526.347200
   1354   1350   1357     1   109.6600471 523.836800
   1354   1366   1372     1   111.5100476 526.347200
   1357   1360   1369     1   111.5100476 526.347200
   1360   1369   1378     1   107.9700462 569.024000
   1363   1375   2818     1   107.9700462 569.024000
   1366   1372   2788     1   107.9700462 569.024000
   1372   2788   2779     1   112.4800480 524.673600
   1375   2818   2809     1   112.4800480 524.673600
   1380   1381   1393     1   114.2100488 537.225600
   1380   1384   1396     1   114.2100488 537.225600
   1380   1387   1390     1   114.2100488 537.225600
   1381   1380   1384     1   109.6600471 523.836800
   1381   1380   1387     1   109.6600471 523.836800
   1381   1393   1405     1   111.5100476 526.347200
   1384   1380   1387     1   109.6600471 523.836800
   1384   1396   1402     1   111.5100476 526.347200
   1387   1390   1399     1   111.5100476 526.347200
   1390   1399   1408     1   107.9700462 569.024000
   1393   1405   2878     1   107.9700462 569.024000
   1396   1402   2848     1   107.9700462 569.024000
   1402   2848   2839     1   112.4800480 524.673600
   1405   2878   2869     1   112.4800480 524.673600
   1410   1411   1423     1   114.2100488 537.225600
   1410   1414   1426     1   114.2100488 537.225600
   1410   1417   1420     1   114.2100488 537.225600
   1411   1410   1414     1   109.6600471 523.836800
   1411   1410   1417     1   109.6600471 523.836800
   1411   1423   1435     1   111.5100476 526.347200
   1414   1410   1417     1   109.6600471 523.836800
   1414   1426   1432     1   111.5100476 526.347200
   1417   1420   1429     1   111.5100476 526.347200
   1420   1429   1438     1   107.9700462 569.024000
   1423   1435   2938     1   107.9700462 569.024000
   1426   1432   2908     1   107.9700462 569.024000
   1432   2908   2899     1   112.4800480 524.673600
   1435   2938   2929     1   112.4800480 524.673600
   1440   1441   1453     1   114.2100488 537.225600
   1440   1444   1456     1   114.2100488 537.225600
   1440   1447   1450     1   114.2100488 537.225600
   1441   1440   1444     1   109.6600471 523.836800
   1441   1440   1447     1   109.6600471 523.836800
   1441   1453   1465     1   111.5100476 526.347200
   1444   1440   1447     1   109.6600471 523.836800
   1444   1456   1462     1   111.5100476 526.347200
   1447   1450   1459     1   111.5100476 526.347200
   1450   1459   1468     1   107.9700462 569.024000
   1453   1465   2998     1   107.9700462 569.024000
   1456   1462   2968     1   107.9700462 569.024000
   1462   2968   2959     1   112.4800480 524.673600
   1465   2998   2989     1   112.4800480 524.673600
   1470   1471   1483     1   114.2100488 537.225600
   1470   1474   1486     1   114.2100488 537.225600
   1470   1477   1480     1   114.2100488 537.225600
   1471   1470   1474     1   109.6600471 523.836800
   1471   1470   1477     1   109.6600471 523.836800
   1471   1483   1495     1   111.5100476 526.347200
   1474   1470   1477     1   109.6600471 523.836800
   1474   1486   1492     1   111.5100476 526.347200
   1477   1480   1489     1   111.5100476 526.347200
   1480   1489   1498     1   107.9700462 569.024000
   1483   1495   3058     1   107.9700462 569.024000
   1486   1492   3028     1   107.9700462 569.024000
   1492   3028   3019     1   112.4800480 524.673600
   1495   3058   3049     1   112.4800480 524.673600
   1500   1501   1513     1   114.2100488 537.225600
   1500   1504   1516     1   114.2100488 537.225600
   1500   1507   1510     1   114.2100488 537.225600
   1501   1500   1504     1   109.6600471 523.836800
   1501   1500   1507     1   109.6600471 523.836800
   1501   1513   1525     1   111.5100476 526.347200
   1504   1500   1507     1   109.6600471 523.836800
   1504   1516   1522     1   111.5100476 526.347200
   1507   1510   1519     1   111.5100476 526.347200
   1510   1519   1528     1   107.9700462 569.024000
   1513   1525   3118     1   107.9700462 569.024000
   1516   1522   3088     1   107.9700462 569.024000
   1522   3088   3079     1   112.4800480 524.673600
   1525   3118   3109     1   112.4800480 524.673600
   1530   1531   1543     1   114.2100488 537.225600
   1530   1534   1546     1   114.2100488 537.225600
   1530   1537   1540     1   114.2100488 537.225600
   1531   1530   1534     1   109.6600471 523.836800
   1531   1530   1537     1   109.6600471 523.836800
   1531   1543   1555     1   111.5100476 526.347200
   1534   1530   1537     1   109.6600471 523.836800
   1534   1546   1552     1   111.5100476 526.347200
   1537   1540   1549     1   111.5100476 526.347200
   1540   1549   1558     1   107.9700462 569.024000
   1543   1555   3178     1   107.9700462 569.024000
   1546   1552   3148     1   107.9700462 569.024000
   1552   3148   3139     1   112.4800480 524.673600
   1555   3178   3169     1   112.4800480 524.673600
   1560   1561   1573     1   114.2100488 537.225600
   1560   1564   1576     1   114.2100488 537.225600
   1560   1567   1570     1   114.2100488 537.225600
   1561   1560   1564     1   109.6600471 523.836800
   1561   1560   1567     1   109.6600471 523.836800
   1561   1573   1585     1   111.5100476 526.347200
   1564   1560   1567     1   109.6600471 523.836800
   1564   1576   1582     1   111.5100476 526.347200
   1567   1570   1579     1   111.5100476 526.347200
   1570   1579   1588     1   107.9700462 569.024000
   1573   1585   3238     1   107.9700462 569.024000
   1576   1582   3208     1   107.9700462 569.024000
   1582   3208   3199     1   112.4800480 524.673600
   1585   3238   3229     1   112.4800480 524.673600
   1590   1591   1603     1   114.2100488 537.225600
   1590   1594   1606     1   114.2100488 537.225600
   1590   1597   1600     1   114.2100488 537.225600
   1591   1590   1594     1   109.6600471 523.836800
   1591   1590   1597     1   109.6600471 523.836800
   1591   1603   1615     1   111.5100476 526.347200
   1594   1590   1597     1   109.6600471 523.836800
   1594   1606   1612     1   111.5100476 526.347200
   1597   1600   1609     1   111.5100476 526.347200
   1600   1609   1618     1   107.9700462 569.024000
   1603   1615   3298     1   107.9700462 569.024000
   1606   1612   3268     1   107.9700462 569.024000
   1612   3268   3259     1   112.4800480 524.673600
   1615   3298   3289     1   112.4800480 524.673600
   1620   1621   1633     1   114.2100488 537.225600
   1620   1624   1636     1   114.2100488 537.225600
   1620   1627   1630     1   114.2100488 537.225600
   1621   1620   1624     1   109.6600471 523.836800
   1621   1620   1627     1   109.6600471 523.836800
   1621   1633   1645     1   111.5100476 526.347200
   1624   1620   1627     1   109.6600471 523.836800
   1624   1636   1642     1   111.5100476 526.347200
   1627   1630   1639     1   111.5100476 526.347200
   1630   1639   1648     1   107.9700462 569.024000
   1633   1645   3358     1   107.9700462 569.024000
   1636   1642   3328     1   107.9700462 569.024000
   1642   3328   3319     1   112.4800480 524.673600
   1645   3358   3349     1   112.4800480 524.673600
   1650   1651   1663     1   114.2100488 537.225600
   1650   1654   1666     1   114.2100488 537.225600
   1650   1657   1660     1   114.2100488 537.225600
   1651   1650   1654     1   109.6600471 523.836800
   1651   1650   1657     1   109.6600471 523.836800
   1651   1663   1675     1   111.5100476 526.347200
   1654   1650   1657     1   109.6600471 523.836800
   1654   1666   1672     1   111.5100476 526.347200
   1657   1660   1669     1   111.5100476 526.347200
   1660   1669   1678     1   107.9700462 569.024000
   1663   1675   3418     1   107.9700462 569.024000
   1666   1672   3388     1   107.9700462 569.024000
   1672   3388   3379     1   112.4800480 524.673600
   1675   3418   3409     1   112.4800480 524.673600
   1680   1681   1693     1   114.2100488 537.225600
   1680   1684   1696     1   114.2100488 537.225600
   1680   1687   1690     1   114.2100488 537.225600
   1681   1680   1684     1   109.6600471 523.836800
   1681   1680   1687     1   109.6600471 523.836800
   1681   1693   1705     1   111.5100476 526.347200
   1684   1680   1687     1   109.6600471 523.836800
   1684   1696   1702     1   111.5100476 526.347200
   1687   1690   1699     1   111.5100476 526.347200
   1690   1699   1708     1   107.9700462 569.024000
   1693   1705   3478     1   107.9700462 569.024000
   1696   1702   3448     1   107.9700462 569.024000
   1702   3448   3439     1   112.4800480 524.673600
   1705   3478   3469     1   112.4800480 524.673600
   1710   1711   1723     1   114.2100488 537.225600
   1710   1714   1726     1   114.2100488 537.225600
   1710   1717   1720     1   114.2100488 537.225600
   1711   1710   1714     1   109.6600471 523.836800
   1711   1710   1717     1   109.6600471 523.836800
   1711   1723   1735     1   111.5100476 526.347200
   1714   1710   1717     1   109.6600471 523.836800
   1714   1726   1732     1   111.5100476 526.347200
   1717   1720   1729     1   111.5100476 526.347200
   1720   1729   1738     1   107.9700462 569.024000
   1723   1735   3538     1   107.9700462 569.024000
   1726   1732   3508     1   107.9700462 569.024000
   1732   3508   3499     1   112.4800480 524.673600
   1735   3538   3529     1   112.4800480 524.673600
   1740   1741   1753     1   114.2100488 537.225600
   1740   1744   1756     1   114.2100488 537.225600
   1740   1747   1750     1   114.2100488 537.225600
   1741   1740   1744     1   109.6600471 523.836800
   1741   1740   1747     1   109.6600471 523.836800
   1741   1753   1765     1   111.5100476 526.347200
   1744   1740   1747     1   109.6600471 523.836800
   1744   1756   1762     1   111.5100476 526.347200
   1747   1750   1759     1   111.5100476 526.347200
   1750   1759   1768     1   107.9700462 569.024000
   1753   1765   3598     1   107.9700462 569.024000
   1756   1762   3568     1   107.9700462 569.024000
   1762   3568   3559     1   112.4800480 524.673600
   1765   3598   3589     1   112.4800480 524.673600
   1770   1771   1783     1   114.2100488 537.225600
   1770   1774   1786     1   114.2100488 537.225600
   1770   1777   1780     1   114.2100488 537.225600
   1771   1770   1774     1   109.6600471 523.836800
   1771   1770   1777     1   109.6600471 523.836800
   1771   1783   1795     1   111.5100476 526.347200
   1774   1770   1777     1   109.6600471 523.836800
   1774   1786   1792     1   111.5100476 526.347200
   1777   1780   1789     1   111.5100476 526.347200
   1780   1789   1798     1   107.9700462 569.024000
   1783   1795   3658     1   107.9700462 569.024000
   1786   1792   3628     1   107.9700462 569.024000
   1792   3628   3619     1   112.4800480 524.673600
   1795   3658   3649     1   112.4800480 524.673600
   1800   1801   1813     1   114.2100488 537.225600
   1800   1804   1816     1   114.2100488 537.225600
   1800   1807   1810     1   114.2100488 537.225600
   1801   1800   1804     1   109.6600471 523.836800
   1801   1800   1807     1   109.6600471 523.836800
   1801   1813   1825     1   111.5100476 526.347200
   1804   1800   1807     1   109.6600471 523.836800
   1804   1816   1822     1   111.5100476 526.347200
   1807   1810   1819     1   111.5100476 526.347200
   1810   1819   1828     1   107.9700462 569.024000
   1813   1825   3718     1   107.9700462 569.024000
   1816   1822   3688     1   107.9700462 569.024000
   1822   3688   3679     1   112.4800480 524.673600
   1825   3718   3709     1   112.4800480 524.673600
   1830   1831   1843     1   114.2100488 537.225600
   1830   1834   1846     1   114.2100488 537.225600
   1830   1837   1840     1   114.2100488 537.225600
   1831   1830   1834     1   109.6600471 523.836800
   1831   1830   1837     1   109.6600471 523.836800
   1831   1843   1855     1   111.5100476 526.347200
   1834   1830   1837     1   109.6600471 523.836800
   1834   1846   1852     1   111.5100476 526.347200
   1837   1840   1849     1   111.5100476 526.347200
   1840   1849   1858     1   107.9700462 569.024000
   1843   1855   3778     1   107.9700462 569.024000
   1846   1852   3748     1   107.9700462 569.024000
   1852   3748   3739     1   112.4800480 524.673600
   1855   3778   3769     1   112.4800480 524.673600
   1860   1861   1873     1   114.2100488 537.225600
   1860   1864   1876     1   114.2100488 537.225600
   1860   1867   1870     1   114.2100488 537.225600
   1861   1860   1864     1   109.6600471 523.836800
   1861   1860   1867     1   109.6600471 523.836800
   1861   1873   1885     1   111.5100476 526.347200
   1864   1860   1867     1   109.6600471 523.836800
   1864   1876   1882     1   111.5100476 526.347200
   1867   1870   1879     1   111.5100476 526.347200
   1870   1879   1888     1   107.9700462 569.024000
   1873   1885   3838     1   107.9700462 569.024000
   1876   1882   3808     1   107.9700462 569.024000
   1882   3808   3799     1   112.4800480 524.673600
   1885   3838   3829     1   112.4800480 524.673600
   1890   1891   1903     1   114.2100488 537.225600
   1890   1894   1906     1   114.2100488 537.225600
   1890   1897   1900     1   114.2100488 537.225600
   1891   1890   1894     1   109.6600471 523.836800
   1891   1890   1897     1   109.6600471 523.836800
   1891   1903   1915     1   111.5100476 526.347200
   1894   1890   1897     1   109.6600471 523.836800
   1894   1906   1912     1   111.5100476 526.347200
   1897   1900   1909     1   111.5100476 526.347200
   1900   1909   1918     1   107.9700462 569.024000
   1903   1915   3898     1   107.9700462 569.024000
   1906   1912   3868     1   107.9700462 569.024000
   1912   3868   3859     1   112.4800480 524.673600
   1915   3898   3889     1   112.4800480 524.673600
   1920   1921   1933     1   114.2100488 537.225600
   1920   1924   1936     1   114.2100488 537.225600
   1920   1927   1930     1   114.2100488 537.225600
   1921   1920   1924     1   109.6600471 523.836800
   1921   1920   1927     1   109.6600471 523.836800
   1921   1933   1945     1   111.5100476 526.347200
   1924   1920   1927     1   109.6600471 523.836800
   1924   1936   1942     1   111.5100476 526.347200
   1927   1930   1939     1   111.5100476 526.347200
   1930   1939   1948     1   107.9700462 569.024000
   1933   1945   3958     1   107.9700462 569.024000
   1936   1942   3928     1   107.9700462 569.024000
   1942   3928   3919     1   112.4800480 524.673600
   1945   3958   3949     1   112.4800480 524.673600
   1950   1951   1963     1   114.2100488 537.225600
   1950   1954   1966     1   114.2100488 537.225600
   1950   1957   1960     1   114.2100488 537.225600
   1951   1950   1954     1   109.6600471 523.836800
   1951   1950   1957     1   109.6600471 523.836800
   1951   1963   1975     1   111.5100476 526.347200
   1954   1950   1957     1   109.6600471 523.836800
   1954   1966   1972     1   111.5100476 526.347200
   1957   1960   1969     1   111.5100476 526.347200
   1960   1969   1978     1   107.9700462 569.024000
   1963   1975   4018     1   107.9700462 569.024000
   1966   1972   3988     1   107.9700462 569.024000
   1972   3988   3979     1   112.4800480 524.673600
   1975   4018   4009     1   112.4800480 524.673600
   1980   1981   1993     1   114.2100488 537.225600
   1980   1984   1996     1   114.2100488 537.225600
   1980   1987   1990     1   114.2100488 537.225600
   1981   1980   1984     1   109.6600471 523.836800
   1981   1980   1987     1   109.6600471 523.836800
   1981   1993   2005     1   111.5100476 526.347200
   1984   1980   1987     1   109.6600471 523.836800
   1984   1996   2002     1   111.5100476 526.347200
   1987   1990   1999     1   111.5100476 526.347200
   1990   1999   2008     1   107.9700462 569.024000
   1993   2005   4078     1   107.9700462 569.024000
   1996   2002   4048     1   107.9700462 569.024000
   2002   4048   4039     1   112.4800480 524.673600
   2005   4078   4069     1   112.4800480 524.673600
   2010   2011   2023     1   114.2100488 537.225600
   2010   2014   2026     1   114.2100488 537.225600
   2010   2017   2020     1   114.2100488 537.225600
   2011   2010   2014     1   109.6600471 523.836800
   2011   2010   2017     1   109.6600471 523.836800
   2011   2023   2035     1   111.5100476 526.347200
   2014   2010   2017     1   109.6600471 523.836800
   2014   2026   2032     1   111.5100476 526.347200
   2017   2020   2029     1   111.5100476 526.347200
   2020   2029   2038     1   107.9700462 569.024000
   2023   2035   4138     1   107.9700462 569.024000
   2026   2032   4108     1   107.9700462 569.024000
   2032   4108   4099     1   112.4800480 524.673600
   2035   4138   4129     1   112.4800480 524.673600
   2040   2041   2053     1   114.2100488 537.225600
   2040   2044   2056     1   114.2100488 537.225600
   2040   2047   2050     1   114.2100488 537.225600
   2041   2040   2044     1   109.6600471 523.836800
   2041   2040   2047     1   109.6600471 523.836800
   2041   2053   2065     1   111.5100476 526.347200
   2044   2040   2047     1   109.6600471 523.836800
   2044   2056   2062     1   111.5100476 526.347200
   2047   2050   2059     1   111.5100476 526.347200
   2050   2059   2068     1   107.9700462 569.024000
   2053   2065   4198     1   107.9700462 569.024000
   2056   2062   4168     1   107.9700462 569.024000
   2062   4168   4159     1   112.4800480 524.673600
   2065   4198   4189     1   112.4800480 524.673600
   2070   2071   2083     1   114.2100488 537.225600
   2070   2074   2086     1   114.2100488 537.225600
   2070   2077   2080     1   114.2100488 537.225600
   2071   2070   2074     1   109.6600471 523.836800
   2071   2070   2077     1   109.6600471 523.836800
   2071   2083   2095     1   111.5100476 526.347200
   2074   2070   2077     1   109.6600471 523.836800
   2074   2086   2092     1   111.5100476 526.347200
   2077   2080   2089     1   111.5100476 526.347200
   2080   2089   2098     1   107.9700462 569.024000
   2083   2095   4258     1   107.9700462 569.024000
   2086   2092   4228     1   107.9700462 569.024000
   2092   4228   4219     1   112.4800480 524.673600
   2095   4258   4249     1   112.4800480 524.673600
   2100   2101   2113     1   114.2100488 537.225600
   2100   2104   2116     1   114.2100488 537.225600
   2100   2107   2110     1   114.2100488 537.225600
   2101   2100   2104     1   109.6600471 523.836800
   2101   2100   2107     1   109.6600471 523.836800
   2101   2113   2125     1   111.5100476 526.347200
   2104   2100   2107     1   109.6600471 523.836800
   2104   2116   2122     1   111.5100476 526.347200
   2107   2110   2119     1   111.5100476 526.347200
   2110   2119   2128     1   107.9700462 569.024000
   2113   2125   4318     1   107.9700462 569.024000
   2116   2122   4288     1   107.9700462 569.024000
   2122   4288   4279     1   112.4800480 524.673600
   2125   4318   4309     1   112.4800480 524.673600
   2130   2131   2143     1   114.2100488 537.225600
   2130   2134   2146     1   114.2100488 537.225600
   2130   2137   2140     1   114.2100488 537.225600
   2131   2130   2134     1   109.6600471 523.836800
   2131   2130   2137     1   109.6600471 523.836800
   2131   2143   2155     1   111.5100476 526.347200
   2134   2130   2137     1   109.6600471 523.836800
   2134   2146   2152     1   111.5100476 526.347200
   2137   2140   2149     1   111.5100476 526.347200
   2140   2149   2158     1   107.9700462 569.024000
   2143   2155   4378     1   107.9700462 569.024000
   2146   2152   4348     1   107.9700462 569.024000
   2152   4348   4339     1   112.4800480 524.673600
   2155   4378   4369     1   112.4800480 524.673600
   2160   2161   2173     1   114.2100488 537.225600
   2160   2164   2176     1   114.2100488 537.225600
   2160   2167   2170     1   114.2100488 537.225600
   2161   2160   2164     1   109.6600471 523.836800
   2161   2160   2167     1   109.6600471 523.836800
   2161   2173   2185     1   111.5100476 526.347200
   2164   2160   2167     1   109.6600471 523.836800
   2164   2176   2182     1   111.5100476 526.347200
   2167   2170   2179     1   111.5100476 526.347200
   2170   2179   2188     1   107.9700462 569.024000
   2173   2185   4438     1   107.9700462 569.024000
   2176   2182   4408     1   107.9700462 569.024000
   2182   4408   4399     1   112.4800480 524.673600
   2185   4438   4429     1   112.4800480 524.673600
   2190   2191   2203     1   114.2100488 537.225600
   2190   2194   2206     1   114.2100488 537.225600
   2190   2197   2200     1   114.2100488 537.225600
   2191   2190   2194     1   109.6600471 523.836800
   2191   2190   2197     1   109.6600471 523.836800
   2191   2203   2215     1   111.5100476 526.347200
   2194   2190   2197     1   109.6600471 523.836800
   2194   2206   2212     1   111.5100476 526.347200
   2197   2200   2209     1   111.5100476 526.347200
   2200   2209   2218     1   107.9700462 569.024000
   2203   2215   4498     1   107.9700462 569.024000
   2206   2212   4468     1   107.9700462 569.024000
   2212   4468   4459     1   112.4800480 524.673600
   2215   4498   4489     1   112.4800480 524.673600
   2220   2221   2233     1   114.2100488 537.225600
   2220   2224   2236     1   114.2100488 537.225600
   2220   2227   2230     1   114.2100488 537.225600
   2221   2220   2224     1   109.6600471 523.836800
   2221   2220   2227     1   109.6600471 523.836800
   2221   2233   2245     1   111.5100476 526.347200
   2224   2220   2227     1   109.6600471 523.836800
   2224   2236   2242     1   111.5100476 526.347200
   2227   2230   2239     1   111.5100476 526.347200
   2230   2239   2248     1   107.9700462 569.024000
   2233   2245   4558     1   107.9700462 569.024000
   2236   2242   4528     1   107.9700462 569.024000
   2242   4528   4519     1   112.4800480 524.673600
   2245   4558   4549     1   112.4800480 524.673600
   2250   2251   2263     1   114.2100488 537.225600
   2250   2254   2266     1   114.2100488 537.225600
   2250   2257   2260     1   114.2100488 537.225600
   2251   2250   2254     1   109.6600471 523.836800
   2251   2250   2257     1   109.6600471 523.836800
   2251   2263   2275     1   111.5100476 526.347200
   2254   2250   2257     1   109.6600471 523.836800
   2254   2266   2272     1   111.5100476 526.347200
   2257   2260   2269     1   111.5100476 526.347200
   2260   2269   2278     1   107.9700462 569.024000
   2263   2275   4618     1   107.9700462 569.024000
   2266   2272   4588     1   107.9700462 569.024000
   2272   4588   4579     1   112.4800480 524.673600
   2275   4618   4609     1   112.4800480 524.673600
   2280   2281   2293     1   114.2100488 537.225600
   2280   2284   2296     1   114.2100488 537.225600
   2280   2287   2290     1   114.2100488 537.225600
   2281   2280   2284     1   109.6600471 523.836800
   2281   2280   2287     1   109.6600471 523.836800
   2281   2293   2305     1   111.5100476 526.347200
   2284   2280   2287     1   109.6600471 523.836800
   2284   2296   2302     1   111.5100476 526.347200
   2287   2290   2299     1   111.5100476 526.347200
   2290   2299   2308     1   107.9700462 569.024000
   2293   2305   4678     1   107.9700462 569.024000
   2296   2302   4648     1   107.9700462 569.024000
   2302   4648   4639     1   112.4800480 524.673600
   2305   4678   4669     1   112.4800480 524.673600
   2310   2311   2323     1   114.2100488 537.225600
   2310   2314   2326     1   114.2100488 537.225600
   2310   2317   2320     1   114.2100488 537.225600
   2311   2310   2314     1   109.6600471 523.836800
   2311   2310   2317     1   109.6600471 523.836800
   2311   2323   2335     1   111.5100476 526.347200
   2314   2310   2317     1   109.6600471 523.836800
   2314   2326   2332     1   111.5100476 526.347200
   2317   2320   2329     1   111.5100476 526.347200
   2320   2329   2338     1   107.9700462 569.024000
   2323   2335   4738     1   107.9700462 569.024000
   2326   2332   4708     1   107.9700462 569.024000
   2332   4708   4699     1   112.4800480 524.673600
   2335   4738   4729     1   112.4800480 524.673600
   2340   2341   2353     1   114.2100488 537.225600
   2340   2344   2356     1   114.2100488 537.225600
   2340   2347   2350     1   114.2100488 537.225600
   2341   2340   2344     1   109.6600471 523.836800
   2341   2340   2347     1   109.6600471 523.836800
   2341   2353   2365     1   111.5100476 526.347200
   2344   2340   2347     1   109.6600471 523.836800
   2344   2356   2362     1   111.5100476 526.347200
   2347   2350   2359     1   111.5100476 526.347200
   2350   2359   2368     1   107.9700462 569.024000
   2353   2365   4798     1   107.9700462 569.024000
   2356   2362   4768     1   107.9700462 569.024000
   2362   4768   4759     1   112.4800480 524.673600
   2365   4798   4789     1   112.4800480 524.673600
   2370   2371   2383     1   114.2100488 537.225600
   2370   2374   2386     1   114.2100488 537.225600
   2370   2377   2380     1   114.2100488 537.225600
   2371   2370   2374     1   109.6600471 523.836800
   2371   2370   2377     1   109.6600471 523.836800
   2371   2383   2395     1   111.5100476 526.347200
   2374   2370   2377     1   109.6600471 523.836800
   2374   2386   2392     1   111.5100476 526.347200
   2377   2380   2389     1   111.5100476 526.347200
   2380   2389   2398     1   107.9700462 569.024000
   2383   2395   4858     1   107.9700462 569.024000
   2386   2392   4828     1   107.9700462 569.024000
   2392   4828   4819     1   112.4800480 524.673600
   2395   4858   4849     1   112.4800480 524.673600
   2400   2401   2413     1   114.2100488 537.225600
   2400   2404   2416     1   114.2100488 537.225600
   2400   2407   2410     1   114.2100488 537.225600
   2401   2400   2404     1   109.6600471 523.836800
   2401   2400   2407     1   109.6600471 523.836800
   2401   2413   2425     1   111.5100476 526.347200
   2404   2400   2407     1   109.6600471 523.836800
   2404   2416   2422     1   111.5100476 526.347200
   2407   2410   2419     1   111.5100476 526.347200
   2410   2419   2428     1   107.9700462 569.024000
   2413   2425   4918     1   107.9700462 569.024000
   2416   2422   4888     1   107.9700462 569.024000
   2422   4888   4879     1   112.4800480 524.673600
   2425   4918   4909     1   112.4800480 524.673600
   2430   2431   2443     1   114.2100488 537.225600
   2430   2434   2446     1   114.2100488 537.225600
   2430   2437   2440     1   114.2100488 537.225600
   2431   2430   2434     1   109.6600471 523.836800
   2431   2430   2437     1   109.6600471 523.836800
   2431   2443   2455     1   111.5100476 526.347200
   2434   2430   2437     1   109.6600471 523.836800
   2434   2446   2452     1   111.5100476 526.347200
   2437   2440   2449     1   111.5100476 526.347200
   2440   2449   2458     1   107.9700462 569.024000
   2443   2455   4978     1   107.9700462 569.024000
   2446   2452   4948     1   107.9700462 569.024000
   2452   4948   4939     1   112.4800480 524.673600
   2455   4978   4969     1   112.4800480 524.673600
   2460   2461   2473     1   114.2100488 537.225600
   2460   2464   2476     1   114.2100488 537.225600
   2460   2467   2470     1   114.2100488 537.225600
   2461   2460   2464     1   109.6600471 523.836800
   2461   2460   2467     1   109.6600471 523.836800
   2461   2473   2485     1   111.5100476 526.347200
   2464   2460   2467     1   109.6600471 523.836800
   2464   2476   2482     1   111.5100476 526.347200
   2467   2470   2479     1   111.5100476 526.347200
   2470   2479   2488     1   107.9700462 569.024000
   2473   2485   5038     1   107.9700462 569.024000
   2476   2482   5008     1   107.9700462 569.024000
   2482   5008   4999     1   112.4800480 524.673600
   2485   5038   5029     1   112.4800480 524.673600
   2490   2491   2503     1   114.2100488 537.225600
   2490   2494   2506     1   114.2100488 537.225600
   2490   2497   2500     1   114.2100488 537.225600
   2491   2490   2494     1   109.6600471 523.836800
   2491   2490   2497     1   109.6600471 523.836800
   2491   2503   2515     1   111.5100476 526.347200
   2494   2490   2497     1   109.6600471 523.836800
   2494   2506   2512     1   111.5100476 526.347200
   2497   2500   2509     1   111.5100476 526.347200
   2500   2509   2518     1   107.9700462 569.024000
   2503   2515   5098     1   107.9700462 569.024000
   2506   2512   5068     1   107.9700462 569.024000
   2512   5068   5059     1   112.4800480 524.673600
   2515   5098   5089     1   112.4800480 524.673600
   2520   2521   2533     1   114.2100488 537.225600
   2520   2524   2536     1   114.2100488 537.225600
   2520   2527   2530     1   114.2100488 537.225600
   2521   2520   2524     1   109.6600471 523.836800
   2521   2520   2527     1   109.6600471 523.836800
   2521   2533   2545     1   111.5100476 526.347200
   2524   2520   2527     1   109.6600471 523.836800
   2524   2536   2542     1   111.5100476 526.347200
   2527   2530   2539     1   111.5100476 526.347200
   2530   2539   2548     1   107.9700462 569.024000
   2533   2545   5158     1   107.9700462 569.024000
   2536   2542   5128     1   107.9700462 569.024000
   2542   5128   5119     1   112.4800480 524.673600
   2545   5158   5149     1   112.4800480 524.673600
   2550   2551   2563     1   114.2100488 537.225600
   2550   2554   2566     1   114.2100488 537.225600
   2550   2557   2560     1   114.2100488 537.225600
   2551   2550   2554     1   109.6600471 523.836800
   2551   2550   2557     1   109.6600471 523.836800
   2551   2563   2575     1   111.5100476 526.347200
   2554   2550   2557     1   109.6600471 523.836800
   2554   2566   2572     1   111.5100476 526.347200
   2557   2560   2569     1   111.5100476 526.347200
   2560   2569   2578     1   107.9700462 569.024000
   2563   2575   5218     1   107.9700462 569.024000
   2566   2572   5188     1   107.9700462 569.024000
   2572   5188   5179     1   112.4800480 524.673600
   2575   5218   5209     1   112.4800480 524.673600
   2580   2581   2593     1   114.2100488 537.225600
   2580   2584   2596     1   114.2100488 537.225600
   2580   2587   2590     1   114.2100488 537.225600
   2581   2580   2584     1   109.6600471 523.836800
   2581   2580   2587     1   109.6600471 523.836800
   2581   2593   2605     1   111.5100476 526.347200
   2584   2580   2587     1   109.6600471 523.836800
   2584   2596   2602     1   111.5100476 526.347200
   2587   2590   2599     1   111.5100476 526.347200
   2590   2599   2608     1   107.9700462 569.024000
   2593   2605   5278     1   107.9700462 569.024000
   2596   2602   5248     1   107.9700462 569.024000
   2602   5248   5239     1   112.4800480 524.673600
   2605   5278   5269     1   112.4800480 524.673600
   2610   2611   2623     1   114.2100488 537.225600
   2610   2614   2626     1   114.2100488 537.225600
   2610   2617   2620     1   114.2100488 537.225600
   2611   2610   2614     1   109.6600471 523.836800
   2611   2610   2617     1   109.6600471 523.836800
   2611   2623   2635     1   111.5100476 526.347200
   2614   2610   2617     1   109.6600471 523.836800
   2614   2626   2632     1   111.5100476 526.347200
   2617   2620   2629     1   111.5100476 526.347200
   2620   2629   2638     1   107.9700462 569.024000
   2623   2635   5338     1   107.9700462 569.024000
   2626   2632   5308     1   107.9700462 569.024000
   2632   5308   5299     1   112.4800480 524.673600
   2635   5338   5329     1   112.4800480 524.673600
   2640   2641   2653     1   114.2100488 537.225600
   2640   2644   2656     1   114.2100488 537.225600
   2640   2647   2650     1   114.2100488 537.225600
   2641   2640   2644     1   109.6600471 523.836800
   2641   2640   2647     1   109.6600471 523.836800
   2641   2653   2665     1   111.5100476 526.347200
   2644   2640   2647     1   109.6600471 523.836800
   2644   2656   2662     1   111.5100476 526.347200
   2647   2650   2659     1   111.5100476 526.347200
   2650   2659   2668     1   107.9700462 569.024000
   2653   2665   5398     1   107.9700462 569.024000
   2656   2662   5368     1   107.9700462 569.024000
   2662   5368   5359     1   112.4800480 524.673600
   2665   5398   5389     1   112.4800480 524.673600
   2670   2671   2683     1   114.2100488 537.225600
   2670   2674   2686     1   114.2100488 537.225600
   2670   2677   2680     1   114.2100488 537.225600
   2671   2670   2674     1   109.6600471 523.836800
   2671   2670   2677     1   109.6600471 523.836800
   2671   2683   2695     1   111.5100476 526.347200
   2674   2670   2677     1   109.6600471 523.836800
   2674   2686   2692     1   111.5100476 526.347200
   2677   2680   2689     1   111.5100476 526.347200
   2680   2689   2698     1   107.9700462 569.024000
   2683   2695   5458     1   107.9700462 569.024000
   2686   2692   5428     1   107.9700462 569.024000
   2692   5428   5419     1   112.4800480 524.673600
   2695   5458   5449     1   112.4800480 524.673600
   2700   2701   2713     1   114.2100488 537.225600
   2700   2704   2716     1   114.2100488 537.225600
   2700   2707   2710     1   114.2100488 537.225600
   2701   2700   2704     1   109.6600471 523.836800
   2701   2700   2707     1   109.6600471 523.836800
   2701   2713   2725     1   111.5100476 526.347200
   2704   2700   2707     1   109.6600471 523.836800
   2704   2716   2722     1   111.5100476 526.347200
   2707   2710   2719     1   111.5100476 526.347200
   2710   2719   2728     1   107.9700462 569.024000
   2713   2725   5518     1   107.9700462 569.024000
   2716   2722   5488     1   107.9700462 569.024000
   2722   5488   5479     1   112.4800480 524.673600
   2725   5518   5509     1   112.4800480 524.673600
   2730   2731   2743     1   114.2100488 537.225600
   2730   2734   2746     1   114.2100488 537.225600
   2730   2737   2740     1   114.2100488 537.225600
   2731   2730   2734     1   109.6600471 523.836800
   2731   2730   2737     1   109.6600471 523.836800
   2731   2743   2755     1   111.5100476 526.347200
   2734   2730   2737     1   109.6600471 523.836800
   2734   2746   2752     1   111.5100476 526.347200
   2737   2740   2749     1   111.5100476 526.347200
   2740   2749   2758     1   107.9700462 569.024000
   2743   2755   5578     1   107.9700462 569.024000
   2746   2752   5548     1   107.9700462 569.024000
   2752   5548   5539     1   112.4800480 524.673600
   2755   5578   5569     1   112.4800480 524.673600
   2760   2761   2773     1   114.2100488 537.225600
   2760   2764   2776     1   114.2100488 537.225600
   2760   2767   2770     1   114.2100488 537.225600
   2761   2760   2764     1   109.6600471 523.836800
   2761   2760   2767     1   109.6600471 523.836800
   2761   2773   2785     1   111.5100476 526.347200
   2764   2760   2767     1   109.6600471 523.836800
   2764   2776   2782     1   111.5100476 526.347200
   2767   2770   2779     1   111.5100476 526.347200
   2770   2779   2788     1   107.9700462 569.024000
   2773   2785   5638     1   107.9700462 569.024000
   2776   2782   5608     1   107.9700462 569.024000
   2782   5608   5599     1   112.4800480 524.673600
   2785   5638   5629     1   112.4800480 524.673600
   2790   2791   2803     1   114.2100488 537.225600
   2790   2794   2806     1   114.2100488 537.225600
   2790   2797   2800     1   114.2100488 537.225600
   2791   2790   2794     1   109.6600471 523.836800
   2791   2790   2797     1   109.6600471 523.836800
   2791   2803   2815     1   111.5100476 526.347200
   2794   2790   2797     1   109.6600471 523.836800
   2794   2806   2812     1   111.5100476 526.347200
   2797   2800   2809     1   111.5100476 526.347200
   2800   2809   2818     1   107.9700462 569.024000
   2803   2815   5698     1   107.9700462 569.024000
   2806   2812   5668     1   107.9700462 569.024000
   2812   5668   5659     1   112.4800480 524.673600
   2815   5698   5689     1   112.4800480 524.673600
   2820   2821   2833     1   114.2100488 537.225600
   2820   2824   2836     1   114.2100488 537.225600
   2820   2827   2830     1   114.2100488 537.225600
   2821   2820   2824     1   109.6600471 523.836800
   2821   2820   2827     1   109.6600471 523.836800
   2821   2833   2845     1   111.5100476 526.347200
   2824   2820   2827     1   109.6600471 523.836800
   2824   2836   2842     1   111.5100476 526.347200
   2827   2830   2839     1   111.5100476 526.347200
   2830   2839   2848     1   107.9700462 569.024000
   2833   2845   5733     1   107.9700462 569.024000
   2836   2842   5710     1   107.9700462 569.024000
   2842   5710   5706     1   112.4800480 524.673600
   2845   5733   5729     1   112.4800480 524.673600
   2850   2851   2863     1   114.2100488 537.225600
   2850   2854   2866     1   114.2100488 537.225600
   2850   2857   2860     1   114.2100488 537.225600
   2851   2850   2854     1   109.6600471 523.836800
   2851   2850   2857     1   109.6600471 523.836800
   2851   2863   2875     1   111.5100476 526.347200
   2854   2850   2857     1   109.6600471 523.836800
   2854   2866   2872     1   111.5100476 526.347200
   2857   2860   2869     1   111.5100476 526.347200
   2860   2869   2878     1   107.9700462 569.024000
   2863   2875   5779     1   107.9700462 569.024000
   2866   2872   5756     1   107.9700462 569.024000
   2872   5756   5752     1   112.4800480 524.673600
   2875   5779   5775     1   112.4800480 524.673600
   2880   2881   2893     1   114.2100488 537.225600
   2880   2884   2896     1   114.2100488 537.225600
   2880   2887   2890     1   114.2100488 537.225600
   2881   2880   2884     1   109.6600471 523.836800
   2881   2880   2887     1   109.6600471 523.836800
   2881   2893   2905     1   111.5100476 526.347200
   2884   2880   2887     1   109.6600471 523.836800
   2884   2896   2902     1   111.5100476 526.347200
   2887   2890   2899     1   111.5100476 526.347200
   2890   2899   2908     1   107.9700462 569.024000
   2893   2905   5825     1   107.9700462 569.024000
   2896   2902   5802     1   107.9700462 569.024000
   2902   5802   5798     1   112.4800480 524.673600
   2905   5825   5821     1   112.4800480 524.673600
   2910   2911   2923     1   114.2100488 537.225600
   2910   2914   2926     1   114.2100488 537.225600
   2910   2917   2920     1   114.2100488 537.225600
   2911   2910   2914     1   109.6600471 523.836800
   2911   2910   2917     1   109.6600471 523.836800
   2911   2923   2935     1   111.5100476 526.347200
   2914   2910   2917     1   109.6600471 523.836800
   2914   2926   2932     1   111.5100476 526.347200
   2917   2920   2929     1   111.5100476 526.347200
   2920   2929   2938     1   107.9700462 569.024000
   2923   2935   5871     1   107.9700462 569.024000
   2926   2932   5848     1   107.9700462 569.024000
   2932   5848   5844     1   112.4800480 524.673600
   2935   5871   5867     1   112.4800480 524.673600
   2940   2941   2953     1   114.2100488 537.225600
   2940   2944   2956     1   114.2100488 537.225600
   2940   2947   2950     1   114.2100488 537.225600
   2941   2940   2944     1   109.6600471 523.836800
   2941   2940   2947     1   109.6600471 523.836800
   2941   2953   2965     1   111.5100476 526.347200
   2944   2940   2947     1   109.6600471 523.836800
   2944   2956   2962     1   111.5100476 526.347200
   2947   2950   2959     1   111.5100476 526.347200
   2950   2959   2968     1   107.9700462 569.024000
   2953   2965   5917     1   107.9700462 569.024000
   2956   2962   5894     1   107.9700462 569.024000
   2962   5894   5890     1   112.4800480 524.673600
   2965   5917   5913     1   112.4800480 524.673600
   2970   2971   2983     1   114.2100488 537.225600
   2970   2974   2986     1   114.2100488 537.225600
   2970   2977   2980     1   114.2100488 537.225600
   2971   2970   2974     1   109.6600471 523.836800
   2971   2970   2977     1   109.6600471 523.836800
   2971   2983   2995     1   111.5100476 526.347200
   2974   2970   2977     1   109.6600471 523.836800
   2974   2986   2992     1   111.5100476 526.347200
   2977   2980   2989     1   111.5100476 526.347200
   2980   2989   2998     1   107.9700462 569.024000
   2983   2995   5963     1   107.9700462 569.024000
   2986   2992   5940     1   107.9700462 569.024000
   2992   5940   5936     1   112.4800480 524.673600
   2995   5963   5959     1   112.4800480 524.673600
   3000   3001   3013     1   114.2100488 537.225600
   3000   3004   3016     1   114.2100488 537.225600
   3000   3007   3010     1   114.2100488 537.225600
   3001   3000   3004     1   109.6600471 523.836800
   3001   3000   3007     1   109.6600471 523.836800
   3001   3013   3025     1   111.5100476 526.347200
   3004   3000   3007     1   109.6600471 523.836800
   3004   3016   3022     1   111.5100476 526.347200
   3007   3010   3019     1   111.5100476 526.347200
   3010   3019   3028     1   107.9700462 569.024000
   3013   3025   6009     1   107.9700462 569.024000
   3016   3022   5986     1   107.9700462 569.024000
   3022   5986   5982     1   112.4800480 524.673600
   3025   6009   6005     1   112.4800480 524.673600
   3030   3031   3043     1   114.2100488 537.225600
   3030   3034   3046     1   114.2100488 537.225600
   3030   3037   3040     1   114.2100488 537.225600
   3031   3030   3034     1   109.6600471 523.836800
   3031   3030   3037     1   109.6600471 523.836800
   3031   3043   3055     1   111.5100476 526.347200
   3034   3030   3037     1   109.6600471 523.836800
   3034   3046   3052     1   111.5100476 526.347200
   3037   3040   3049     1   111.5100476 526.347200
   3040   3049   3058     1   107.9700462 569.024000
   3043   3055   6055     1   107.9700462 569.024000
   3046   3052   6032     1   107.9700462 569.024000
   3052   6032   6028     1   112.4800480 524.673600
   3055   6055   6051     1   112.4800480 524.673600
   3060   3061   3073     1   114.2100488 537.225600
   3060   3064   3076     1   114.2100488 537.225600
   3060   3067   3070     1   114.2100488 537.225600
   3061   3060   3064     1   109.6600471 523.836800
   3061   3060   3067     1   109.6600471 523.836800
   3061   3073   3085     1   111.5100476 526.347200
   3064   3060   3067     1   109.6600471 523.836800
   3064   3076   3082     1   111.5100476 526.347200
   3067   3070   3079     1   111.5100476 526.347200
   3070   3079   3088     1   107.9700462 569.024000
   3073   3085   6101     1   107.9700462 569.024000
   3076   3082   6078     1   107.9700462 569.024000
   3082   6078   6074     1   112.4800480 524.673600
   3085   6101   6097     1   112.4800480 524.673600
   3090   3091   3103     1   114.2100488 537.225600
   3090   3094   3106     1   114.2100488 537.225600
   3090   3097   3100     1   114.2100488 537.225600
   3091   3090   3094     1   109.6600471 523.836800
   3091   3090   3097     1   109.6600471 523.836800
   3091   3103   3115     1   111.5100476 526.347200
   3094   3090   3097     1   109.6600471 523.836800
   3094   3106   3112     1   111.5100476 526.347200
   3097   3100   3109     1   111.5100476 526.347200
   3100   3109   3118     1   107.9700462 569.024000
   3103   3115   6147     1   107.9700462 569.024000
   3106   3112   6124     1   107.9700462 569.024000
   3112   6124   6120     1   112.4800480 524.673600
   3115   6147   6143     1   112.4800480 524.673600
   3120   3121   3133     1   114.2100488 537.225600
   3120   3124   3136     1   114.2100488 537.225600
   3120   3127   3130     1   114.2100488 537.225600
   3121   3120   3124     1   109.6600471 523.836800
   3121   3120   3127     1   109.6600471 523.836800
   3121   3133   3145     1   111.5100476 526.347200
   3124   3120   3127     1   109.6600471 523.836800
   3124   3136   3142     1   111.5100476 526.347200
   3127   3130   3139     1   111.5100476 526.347200
   3130   3139   3148     1   107.9700462 569.024000
   3133   3145   6193     1   107.9700462 569.024000
   3136   3142   6170     1   107.9700462 569.024000
   3142   6170   6166     1   112.4800480 524.673600
   3145   6193   6189     1   112.4800480 524.673600
   3150   3151   3163     1   114.2100488 537.225600
   3150   3154   3166     1   114.2100488 537.225600
   3150   3157   3160     1   114.2100488 537.225600
   3151   3150   3154     1   109.6600471 523.836800
   3151   3150   3157     1   109.6600471 523.836800
   3151   3163   3175     1   111.5100476 526.347200
   3154   3150   3157     1   109.6600471 523.836800
   3154   3166   3172     1   111.5100476 526.347200
   3157   3160   3169     1   111.5100476 526.347200
   3160   3169   3178     1   107.9700462 569.024000
   3163   3175   6239     1   107.9700462 569.024000
   3166   3172   6216     1   107.9700462 569.024000
   3172   6216   6212     1   112.4800480 524.673600
   3175   6239   6235     1   112.4800480 524.673600
   3180   3181   3193     1   114.2100488 537.225600
   3180   3184   3196     1   114.2100488 537.225600
   3180   3187   3190     1   114.2100488 537.225600
   3181   3180   3184     1   109.6600471 523.836800
   3181   3180   3187     1   109.6600471 523.836800
   3181   3193   3205     1   111.5100476 526.347200
   3184   3180   3187     1   109.6600471 523.836800
   3184   3196   3202     1   111.5100476 526.347200
   3187   3190   3199     1   111.5100476 526.347200
   3190   3199   3208     1   107.9700462 569.024000
   3193   3205   6285     1   107.9700462 569.024000
   3196   3202   6262     1   107.9700462 569.024000
   3202   6262   6258     1   112.4800480 524.673600
   3205   6285   6281     1   112.4800480 524.673600
   3210   3211   3223     1   114.2100488 537.225600
   3210   3214   3226     1   114.2100488 537.225600
   3210   3217   3220     1   114.2100488 537.225600
   3211   3210   3214     1   109.6600471 523.836800
   3211   3210   3217     1   109.6600471 523.836800
   3211   3223   3235     1   111.5100476 526.347200
   3214   3210   3217     1   109.6600471 523.836800
   3214   3226   3232     1   111.5100476 526.347200
   3217   3220   3229     1   111.5100476 526.347200
   3220   3229   3238     1   107.9700462 569.024000
   3223   3235   6331     1   107.9700462 569.024000
   3226   3232   6308     1   107.9700462 569.024000
   3232   6308   6304     1   112.4800480 524.673600
   3235   6331   6327     1   112.4800480 524.673600
   3240   3241   3253     1   114.2100488 537.225600
   3240   3244   3256     1   114.2100488 537.225600
   3240   3247   3250     1   114.2100488 537.225600
   3241   3240   3244     1   109.6600471 523.836800
   3241   3240   3247     1   109.6600471 523.836800
   3241   3253   3265     1   111.5100476 526.347200
   3244   3240   3247     1   109.6600471 523.836800
   3244   3256   3262     1   111.5100476 526.347200
   3247   3250   3259     1   111.5100476 526.347200
   3250   3259   3268     1   107.9700462 569.024000
   3253   3265   6377     1   107.9700462 569.024000
   3256   3262   6354     1   107.9700462 569.024000
   3262   6354   6350     1   112.4800480 524.673600
   3265   6377   6373     1   112.4800480 524.673600
   3270   3271   3283     1   114.2100488 537.225600
   3270   3274   3286     1   114.2100488 537.225600
   3270   3277   3280     1   114.2100488 537.225600
   3271   3270   3274     1   109.6600471 523.836800
   3271   3270   3277     1   109.6600471 523.836800
   3271   3283   3295     1   111.5100476 526.347200
   3274   3270   3277     1   109.6600471 523.836800
   3274   3286   3292     1   111.5100476 526.347200
   3277   3280   3289     1   111.5100476 526.347200
   3280   3289   3298     1   107.9700462 569.024000
   3283   3295   6423     1   107.9700462 569.024000
   3286   3292   6400     1   107.9700462 569.024000
   3292   6400   6396     1   112.4800480 524.673600
   3295   6423   6419     1   112.4800480 524.673600
   3300   3301   3313     1   114.2100488 537.225600
   3300   3304   3316     1   114.2100488 537.225600
   3300   3307   3310     1   114.2100488 537.225600
   3301   3300   3304     1   109.6600471 523.836800
   3301   3300   3307     1   109.6600471 523.836800
   3301   3313   3325     1   111.5100476 526.347200
   3304   3300   3307     1   109.6600471 523.836800
   3304   3316   3322     1   111.5100476 526.347200
   3307   3310   3319     1   111.5100476 526.347200
   3310   3319   3328     1   107.9700462 569.024000
   3313   3325   6469     1   107.9700462 569.024000
   3316   3322   6446     1   107.9700462 569.024000
   3322   6446   6442     1   112.4800480 524.673600
   3325   6469   6465     1   112.4800480 524.673600
   3330   3331   3343     1   114.2100488 537.225600
   3330   3334   3346     1   114.2100488 537.225600
   3330   3337   3340     1   114.2100488 537.225600
   3331   3330   3334     1   109.6600471 523.836800
   3331   3330   3337     1   109.6600471 523.836800
   3331   3343   3355     1   111.5100476 526.347200
   3334   3330   3337     1   109.6600471 523.836800
   3334   3346   3352     1   111.5100476 526.347200
   3337   3340   3349     1   111.5100476 526.347200
   3340   3349   3358     1   107.9700462 569.024000
   3343   3355   6515     1   107.9700462 569.024000
   3346   3352   6492     1   107.9700462 569.024000
   3352   6492   6488     1   112.4800480 524.673600
   3355   6515   6511     1   112.4800480 524.673600
   3360   3361   3373     1   114.2100488 537.225600
   3360   3364   3376     1   114.2100488 537.225600
   3360   3367   3370     1   114.2100488 537.225600
   3361   3360   3364     1   109.6600471 523.836800
   3361   3360   3367     1   109.6600471 523.836800
   3361   3373   3385     1   111.5100476 526.347200
   3364   3360   3367     1   109.6600471 523.836800
   3364   3376   3382     1   111.5100476 526.347200
   3367   3370   3379     1   111.5100476 526.347200
   3370   3379   3388     1   107.9700462 569.024000
   3373   3385   6561     1   107.9700462 569.024000
   3376   3382   6538     1   107.9700462 569.024000
   3382   6538   6534     1   112.4800480 524.673600
   3385   6561   6557     1   112.4800480 524.673600
   3390   3391   3403     1   114.2100488 537.225600
   3390   3394   3406     1   114.2100488 537.225600
   3390   3397   3400     1   114.2100488 537.225600
   3391   3390   3394     1   109.6600471 523.836800
   3391   3390   3397     1   109.6600471 523.836800
   3391   3403   3415     1   111.5100476 526.347200
   3394   3390   3397     1   109.6600471 523.836800
   3394   3406   3412     1   111.5100476 526.347200
   3397   3400   3409     1   111.5100476 526.347200
   3400   3409   3418     1   107.9700462 569.024000
   3403   3415   6607     1   107.9700462 569.024000
   3406   3412   6584     1   107.9700462 569.024000
   3412   6584   6580     1   112.4800480 524.673600
   3415   6607   6603     1   112.4800480 524.673600
   3420   3421   3433     1   114.2100488 537.225600
   3420   3424   3436     1   114.2100488 537.225600
   3420   3427   3430     1   114.2100488 537.225600
   3421   3420   3424     1   109.6600471 523.836800
   3421   3420   3427     1   109.6600471 523.836800
   3421   3433   3445     1   111.5100476 526.347200
   3424   3420   3427     1   109.6600471 523.836800
   3424   3436   3442     1   111.5100476 526.347200
   3427   3430   3439     1   111.5100476 526.347200
   3430   3439   3448     1   107.9700462 569.024000
   3433   3445   6653     1   107.9700462 569.024000
   3436   3442   6630     1   107.9700462 569.024000
   3442   6630   6626     1   112.4800480 524.673600
   3445   6653   6649     1   112.4800480 524.673600
   3450   3451   3463     1   114.2100488 537.225600
   3450   3454   3466     1   114.2100488 537.225600
   3450   3457   3460     1   114.2100488 537.225600
   3451   3450   3454     1   109.6600471 523.836800
   3451   3450   3457     1   109.6600471 523.836800
   3451   3463   3475     1   111.5100476 526.347200
   3454   3450   3457     1   109.6600471 523.836800
   3454   3466   3472     1   111.5100476 526.347200
   3457   3460   3469     1   111.5100476 526.347200
   3460   3469   3478     1   107.9700462 569.024000
   3463   3475   6699     1   107.9700462 569.024000
   3466   3472   6676     1   107.9700462 569.024000
   3472   6676   6672     1   112.4800480 524.673600
   3475   6699   6695     1   112.4800480 524.673600
   3480   3481   3493     1   114.2100488 537.225600
   3480   3484   3496     1   114.2100488 537.225600
   3480   3487   3490     1   114.2100488 537.225600
   3481   3480   3484     1   109.6600471 523.836800
   3481   3480   3487     1   109.6600471 523.836800
   3481   3493   3505     1   111.5100476 526.347200
   3484   3480   3487     1   109.6600471 523.836800
   3484   3496   3502     1   111.5100476 526.347200
   3487   3490   3499     1   111.5100476 526.347200
   3490   3499   3508     1   107.9700462 569.024000
   3493   3505   6745     1   107.9700462 569.024000
   3496   3502   6722     1   107.9700462 569.024000
   3502   6722   6718     1   112.4800480 524.673600
   3505   6745   6741     1   112.4800480 524.673600
   3510   3511   3523     1   114.2100488 537.225600
   3510   3514   3526     1   114.2100488 537.225600
   3510   3517   3520     1   114.2100488 537.225600
   3511   3510   3514     1   109.6600471 523.836800
   3511   3510   3517     1   109.6600471 523.836800
   3511   3523   3535     1   111.5100476 526.347200
   3514   3510   3517     1   109.6600471 523.836800
   3514   3526   3532     1   111.5100476 526.347200
   3517   3520   3529     1   111.5100476 526.347200
   3520   3529   3538     1   107.9700462 569.024000
   3523   3535   6791     1   107.9700462 569.024000
   3526   3532   6768     1   107.9700462 569.024000
   3532   6768   6764     1   112.4800480 524.673600
   3535   6791   6787     1   112.4800480 524.673600
   3540   3541   3553     1   114.2100488 537.225600
   3540   3544   3556     1   114.2100488 537.225600
   3540   3547   3550     1   114.2100488 537.225600
   3541   3540   3544     1   109.6600471 523.836800
   3541   3540   3547     1   109.6600471 523.836800
   3541   3553   3565     1   111.5100476 526.347200
   3544   3540   3547     1   109.6600471 523.836800
   3544   3556   3562     1   111.5100476 526.347200
   3547   3550   3559     1   111.5100476 526.347200
   3550   3559   3568     1   107.9700462 569.024000
   3553   3565   6837     1   107.9700462 569.024000
   3556   3562   6814     1   107.9700462 569.024000
   3562   6814   6810     1   112.4800480 524.673600
   3565   6837   6833     1   112.4800480 524.673600
   3570   3571   3583     1   114.2100488 537.225600
   3570   3574   3586     1   114.2100488 537.225600
   3570   3577   3580     1   114.2100488 537.225600
   3571   3570   3574     1   109.6600471 523.836800
   3571   3570   3577     1   109.6600471 523.836800
   3571   3583   3595     1   111.5100476 526.347200
   3574   3570   3577     1   109.6600471 523.836800
   3574   3586   3592     1   111.5100476 526.347200
   3577   3580   3589     1   111.5100476 526.347200
   3580   3589   3598     1   107.9700462 569.024000
   3583   3595   6883     1   107.9700462 569.024000
   3586   3592   6860     1   107.9700462 569.024000
   3592   6860   6856     1   112.4800480 524.673600
   3595   6883   6879     1   112.4800480 524.673600
   3600   3601   3613     1   114.2100488 537.225600
   3600   3604   3616     1   114.2100488 537.225600
   3600   3607   3610     1   114.2100488 537.225600
   3601   3600   3604     1   109.6600471 523.836800
   3601   3600   3607     1   109.6600471 523.836800
   3601   3613   3625     1   111.5100476 526.347200
   3604   3600   3607     1   109.6600471 523.836800
   3604   3616   3622     1   111.5100476 526.347200
   3607   3610   3619     1   111.5100476 526.347200
   3610   3619   3628     1   107.9700462 569.024000
   3613   3625   6929     1   107.9700462 569.024000
   3616   3622   6906     1   107.9700462 569.024000
   3622   6906   6902     1   112.4800480 524.673600
   3625   6929   6925     1   112.4800480 524.673600
   3630   3631   3643     1   114.2100488 537.225600
   3630   3634   3646     1   114.2100488 537.225600
   3630   3637   3640     1   114.2100488 537.225600
   3631   3630   3634     1   109.6600471 523.836800
   3631   3630   3637     1   109.6600471 523.836800
   3631   3643   3655     1   111.5100476 526.347200
   3634   3630   3637     1   109.6600471 523.836800
   3634   3646   3652     1   111.5100476 526.347200
   3637   3640   3649     1   111.5100476 526.347200
   3640   3649   3658     1   107.9700462 569.024000
   3643   3655   6975     1   107.9700462 569.024000
   3646   3652   6952     1   107.9700462 569.024000
   3652   6952   6948     1   112.4800480 524.673600
   3655   6975   6971     1   112.4800480 524.673600
   3660   3661   3673     1   114.2100488 537.225600
   3660   3664   3676     1   114.2100488 537.225600
   3660   3667   3670     1   114.2100488 537.225600
   3661   3660   3664     1   109.6600471 523.836800
   3661   3660   3667     1   109.6600471 523.836800
   3661   3673   3685     1   111.5100476 526.347200
   3664   3660   3667     1   109.6600471 523.836800
   3664   3676   3682     1   111.5100476 526.347200
   3667   3670   3679     1   111.5100476 526.347200
   3670   3679   3688     1   107.9700462 569.024000
   3673   3685   7021     1   107.9700462 569.024000
   3676   3682   6998     1   107.9700462 569.024000
   3682   6998   6994     1   112.4800480 524.673600
   3685   7021   7017     1   112.4800480 524.673600
   3690   3691   3703     1   114.2100488 537.225600
   3690   3694   3706     1   114.2100488 537.225600
   3690   3697   3700     1   114.2100488 537.225600
   3691   3690   3694     1   109.6600471 523.836800
   3691   3690   3697     1   109.6600471 523.836800
   3691   3703   3715     1   111.5100476 526.347200
   3694   3690   3697     1   109.6600471 523.836800
   3694   3706   3712     1   111.5100476 526.347200
   3697   3700   3709     1   111.5100476 526.347200
   3700   3709   3718     1   107.9700462 569.024000
   3703   3715   7067     1   107.9700462 569.024000
   3706   3712   7044     1   107.9700462 569.024000
   3712   7044   7040     1   112.4800480 524.673600
   3715   7067   7063     1   112.4800480 524.673600
   3720   3721   3733     1   114.2100488 537.225600
   3720   3724   3736     1   114.2100488 537.225600
   3720   3727   3730     1   114.2100488 537.225600
   3721   3720   3724     1   109.6600471 523.836800
   3721   3720   3727     1   109.6600471 523.836800
   3721   3733   3745     1   111.5100476 526.347200
   3724   3720   3727     1   109.6600471 523.836800
   3724   3736   3742     1   111.5100476 526.347200
   3727   3730   3739     1   111.5100476 526.347200
   3730   3739   3748     1   107.9700462 569.024000
   3733   3745   7113     1   107.9700462 569.024000
   3736   3742   7090     1   107.9700462 569.024000
   3742   7090   7086     1   112.4800480 524.673600
   3745   7113   7109     1   112.4800480 524.673600
   3750   3751   3763     1   114.2100488 537.225600
   3750   3754   3766     1   114.2100488 537.225600
   3750   3757   3760     1   114.2100488 537.225600
   3751   3750   3754     1   109.6600471 523.836800
   3751   3750   3757     1   109.6600471 523.836800
   3751   3763   3775     1   111.5100476 526.347200
   3754   3750   3757     1   109.6600471 523.836800
   3754   3766   3772     1   111.5100476 526.347200
   3757   3760   3769     1   111.5100476 526.347200
   3760   3769   3778     1   107.9700462 569.024000
   3763   3775   7159     1   107.9700462 569.024000
   3766   3772   7136     1   107.9700462 569.024000
   3772   7136   7132     1   112.4800480 524.673600
   3775   7159   7155     1   112.4800480 524.673600
   3780   3781   3793     1   114.2100488 537.225600
   3780   3784   3796     1   114.2100488 537.225600
   3780   3787   3790     1   114.2100488 537.225600
   3781   3780   3784     1   109.6600471 523.836800
   3781   3780   3787     1   109.6600471 523.836800
   3781   3793   3805     1   111.5100476 526.347200
   3784   3780   3787     1   109.6600471 523.836800
   3784   3796   3802     1   111.5100476 526.347200
   3787   3790   3799     1   111.5100476 526.347200
   3790   3799   3808     1   107.9700462 569.024000
   3793   3805   7205     1   107.9700462 569.024000
   3796   3802   7182     1   107.9700462 569.024000
   3802   7182   7178     1   112.4800480 524.673600
   3805   7205   7201     1   112.4800480 524.673600
   3810   3811   3823     1   114.2100488 537.225600
   3810   3814   3826     1   114.2100488 537.225600
   3810   3817   3820     1   114.2100488 537.225600
   3811   3810   3814     1   109.6600471 523.836800
   3811   3810   3817     1   109.6600471 523.836800
   3811   3823   3835     1   111.5100476 526.347200
   3814   3810   3817     1   109.6600471 523.836800
   3814   3826   3832     1   111.5100476 526.347200
   3817   3820   3829     1   111.5100476 526.347200
   3820   3829   3838     1   107.9700462 569.024000
   3823   3835   7251     1   107.9700462 569.024000
   3826   3832   7228     1   107.9700462 569.024000
   3832   7228   7224     1   112.4800480 524.673600
   3835   7251   7247     1   112.4800480 524.673600
   3840   3841   3853     1   114.2100488 537.225600
   3840   3844   3856     1   114.2100488 537.225600
   3840   3847   3850     1   114.2100488 537.225600
   3841   3840   3844     1   109.6600471 523.836800
   3841   3840   3847     1   109.6600471 523.836800
   3841   3853   3865     1   111.5100476 526.347200
   3844   3840   3847     1   109.6600471 523.836800
   3844   3856   3862     1   111.5100476 526.347200
   3847   3850   3859     1   111.5100476 526.347200
   3850   3859   3868     1   107.9700462 569.024000
   3853   3865   7297     1   107.9700462 569.024000
   3856   3862   7274     1   107.9700462 569.024000
   3862   7274   7270     1   112.4800480 524.673600
   3865   7297   7293     1   112.4800480 524.673600
   3870   3871   3883     1   114.2100488 537.225600
   3870   3874   3886     1   114.2100488 537.225600
   3870   3877   3880     1   114.2100488 537.225600
   3871   3870   3874     1   109.6600471 523.836800
   3871   3870   3877     1   109.6600471 523.836800
   3871   3883   3895     1   111.5100476 526.347200
   3874   3870   3877     1   109.6600471 523.836800
   3874   3886   3892     1   111.5100476 526.347200
   3877   3880   3889     1   111.5100476 526.347200
   3880   3889   3898     1   107.9700462 569.024000
   3883   3895   7343     1   107.9700462 569.024000
   3886   3892   7320     1   107.9700462 569.024000
   3892   7320   7316     1   112.4800480 524.673600
   3895   7343   7339     1   112.4800480 524.673600
   3900   3901   3913     1   114.2100488 537.225600
   3900   3904   3916     1   114.2100488 537.225600
   3900   3907   3910     1   114.2100488 537.225600
   3901   3900   3904     1   109.6600471 523.836800
   3901   3900   3907     1   109.6600471 523.836800
   3901   3913   3925     1   111.5100476 526.347200
   3904   3900   3907     1   109.6600471 523.836800
   3904   3916   3922     1   111.5100476 526.347200
   3907   3910   3919     1   111.5100476 526.347200
   3910   3919   3928     1   107.9700462 569.024000
   3913   3925   7389     1   107.9700462 569.024000
   3916   3922   7366     1   107.9700462 569.024000
   3922   7366   7362     1   112.4800480 524.673600
   3925   7389   7385     1   112.4800480 524.673600
   3930   3931   3943     1   114.2100488 537.225600
   3930   3934   3946     1   114.2100488 537.225600
   3930   3937   3940     1   114.2100488 537.225600
   3931   3930   3934     1   109.6600471 523.836800
   3931   3930   3937     1   109.6600471 523.836800
   3931   3943   3955     1   111.5100476 526.347200
   3934   3930   3937     1   109.6600471 523.836800
   3934   3946   3952     1   111.5100476 526.347200
   3937   3940   3949     1   111.5100476 526.347200
   3940   3949   3958     1   107.9700462 569.024000
   3943   3955   7435     1   107.9700462 569.024000
   3946   3952   7412     1   107.9700462 569.024000
   3952   7412   7408     1   112.4800480 524.673600
   3955   7435   7431     1   112.4800480 524.673600
   3960   3961   3973     1   114.2100488 537.225600
   3960   3964   3976     1   114.2100488 537.225600
   3960   3967   3970     1   114.2100488 537.225600
   3961   3960   3964     1   109.6600471 523.836800
   3961   3960   3967     1   109.6600471 523.836800
   3961   3973   3985     1   111.5100476 526.347200
   3964   3960   3967     1   109.6600471 523.836800
   3964   3976   3982     1   111.5100476 526.347200
   3967   3970   3979     1   111.5100476 526.347200
   3970   3979   3988     1   107.9700462 569.024000
   3973   3985   7481     1   107.9700462 569.024000
   3976   3982   7458     1   107.9700462 569.024000
   3982   7458   7454     1   112.4800480 524.673600
   3985   7481   7477     1   112.4800480 524.673600
   3990   3991   4003     1   114.2100488 537.225600
   3990   3994   4006     1   114.2100488 537.225600
   3990   3997   4000     1   114.2100488 537.225600
   3991   3990   3994     1   109.6600471 523.836800
   3991   3990   3997     1   109.6600471 523.836800
   3991   4003   4015     1   111.5100476 526.347200
   3994   3990   3997     1   109.6600471 523.836800
   3994   4006   4012     1   111.5100476 526.347200
   3997   4000   4009     1   111.5100476 526.347200
   4000   4009   4018     1   107.9700462 569.024000
   4003   4015   7527     1   107.9700462 569.024000
   4006   4012   7504     1   107.9700462 569.024000
   4012   7504   7500     1   112.4800480 524.673600
   4015   7527   7523     1   112.4800480 524.673600
   4020   4021   4033     1   114.2100488 537.225600
   4020   4024   4036     1   114.2100488 537.225600
   4020   4027   4030     1   114.2100488 537.225600
   4021   4020   4024     1   109.6600471 523.836800
   4021   4020   4027     1   109.6600471 523.836800
   4021   4033   4045     1   111.5100476 526.347200
   4024   4020   4027     1   109.6600471 523.836800
   4024   4036   4042     1   111.5100476 526.347200
   4027   4030   4039     1   111.5100476 526.347200
   4030   4039   4048     1   107.9700462 569.024000
   4033   4045   7573     1   107.9700462 569.024000
   4036   4042   7550     1   107.9700462 569.024000
   4042   7550   7546     1   112.4800480 524.673600
   4045   7573   7569     1   112.4800480 524.673600
   4050   4051   4063     1   114.2100488 537.225600
   4050   4054   4066     1   114.2100488 537.225600
   4050   4057   4060     1   114.2100488 537.225600
   4051   4050   4054     1   109.6600471 523.836800
   4051   4050   4057     1   109.6600471 523.836800
   4051   4063   4075     1   111.5100476 526.347200
   4054   4050   4057     1   109.6600471 523.836800
   4054   4066   4072     1   111.5100476 526.347200
   4057   4060   4069     1   111.5100476 526.347200
   4060   4069   4078     1   107.9700462 569.024000
   4063   4075   7619     1   107.9700462 569.024000
   4066   4072   7596     1   107.9700462 569.024000
   4072   7596   7592     1   112.4800480 524.673600
   4075   7619   7615     1   112.4800480 524.673600
   4080   4081   4093     1   114.2100488 537.225600
   4080   4084   4096     1   114.2100488 537.225600
   4080   4087   4090     1   114.2100488 537.225600
   4081   4080   4084     1   109.6600471 523.836800
   4081   4080   4087     1   109.6600471 523.836800
   4081   4093   4105     1   111.5100476 526.347200
   4084   4080   4087     1   109.6600471 523.836800
   4084   4096   4102     1   111.5100476 526.347200
   4087   4090   4099     1   111.5100476 526.347200
   4090   4099   4108     1   107.9700462 569.024000
   4093   4105   7665     1   107.9700462 569.024000
   4096   4102   7642     1   107.9700462 569.024000
   4102   7642   7638     1   112.4800480 524.673600
   4105   7665   7661     1   112.4800480 524.673600
   4110   4111   4123     1   114.2100488 537.225600
   4110   4114   4126     1   114.2100488 537.225600
   4110   4117   4120     1   114.2100488 537.225600
   4111   4110   4114     1   109.6600471 523.836800
   4111   4110   4117     1   109.6600471 523.836800
   4111   4123   4135     1   111.5100476 526.347200
   4114   4110   4117     1   109.6600471 523.836800
   4114   4126   4132     1   111.5100476 526.347200
   4117   4120   4129     1   111.5100476 526.347200
   4120   4129   4138     1   107.9700462 569.024000
   4123   4135   7711     1   107.9700462 569.024000
   4126   4132   7688     1   107.9700462 569.024000
   4132   7688   7684     1   112.4800480 524.673600
   4135   7711   7707     1   112.4800480 524.673600
   4140   4141   4153     1   114.2100488 537.225600
   4140   4144   4156     1   114.2100488 537.225600
   4140   4147   4150     1   114.2100488 537.225600
   4141   4140   4144     1   109.6600471 523.836800
   4141   4140   4147     1   109.6600471 523.836800
   4141   4153   4165     1   111.5100476 526.347200
   4144   4140   4147     1   109.6600471 523.836800
   4144   4156   4162     1   111.5100476 526.347200
   4147   4150   4159     1   111.5100476 526.347200
   4150   4159   4168     1   107.9700462 569.024000
   4153   4165   7757     1   107.9700462 569.024000
   4156   4162   7734     1   107.9700462 569.024000
   4162   7734   7730     1   112.4800480 524.673600
   4165   7757   7753     1   112.4800480 524.673600
   4170   4171   4183     1   114.2100488 537.225600
   4170   4174   4186     1   114.2100488 537.225600
   4170   4177   4180     1   114.2100488 537.225600
   4171   4170   4174     1   109.6600471 523.836800
   4171   4170   4177     1   109.6600471 523.836800
   4171   4183   4195     1   111.5100476 526.347200
   4174   4170   4177     1   109.6600471 523.836800
   4174   4186   4192     1   111.5100476 526.347200
   4177   4180   4189     1   111.5100476 526.347200
   4180   4189   4198     1   107.9700462 569.024000
   4183   4195   7803     1   107.9700462 569.024000
   4186   4192   7780     1   107.9700462 569.024000
   4192   7780   7776     1   112.4800480 524.673600
   4195   7803   7799     1   112.4800480 524.673600
   4200   4201   4213     1   114.2100488 537.225600
   4200   4204   4216     1   114.2100488 537.225600
   4200   4207   4210     1   114.2100488 537.225600
   4201   4200   4204     1   109.6600471 523.836800
   4201   4200   4207     1   109.6600471 523.836800
   4201   4213   4225     1   111.5100476 526.347200
   4204   4200   4207     1   109.6600471 523.836800
   4204   4216   4222     1   111.5100476 526.347200
   4207   4210   4219     1   111.5100476 526.347200
   4210   4219   4228     1   107.9700462 569.024000
   4213   4225   7849     1   107.9700462 569.024000
   4216   4222   7826     1   107.9700462 569.024000
   4222   7826   7822     1   112.4800480 524.673600
   4225   7849   7845     1   112.4800480 524.673600
   4230   4231   4243     1   114.2100488 537.225600
   4230   4234   4246     1   114.2100488 537.225600
   4230   4237   4240     1   114.2100488 537.225600
   4231   4230   4234     1   109.6600471 523.836800
   4231   4230   4237     1   109.6600471 523.836800
   4231   4243   4255     1   111.5100476 526.347200
   4234   4230   4237     1   109.6600471 523.836800
   4234   4246   4252     1   111.5100476 526.347200
   4237   4240   4249     1   111.5100476 526.347200
   4240   4249   4258     1   107.9700462 569.024000
   4243   4255   7895     1   107.9700462 569.024000
   4246   4252   7872     1   107.9700462 569.024000
   4252   7872   7868     1   112.4800480 524.673600
   4255   7895   7891     1   112.4800480 524.673600
   4260   4261   4273     1   114.2100488 537.225600
   4260   4264   4276     1   114.2100488 537.225600
   4260   4267   4270     1   114.2100488 537.225600
   4261   4260   4264     1   109.6600471 523.836800
   4261   4260   4267     1   109.6600471 523.836800
   4261   4273   4285     1   111.5100476 526.347200
   4264   4260   4267     1   109.6600471 523.836800
   4264   4276   4282     1   111.5100476 526.347200
   4267   4270   4279     1   111.5100476 526.347200
   4270   4279   4288     1   107.9700462 569.024000
   4273   4285   7941     1   107.9700462 569.024000
   4276   4282   7918     1   107.9700462 569.024000
   4282   7918   7914     1   112.4800480 524.673600
   4285   7941   7937     1   112.4800480 524.673600
   4290   4291   4303     1   114.2100488 537.225600
   4290   4294   4306     1   114.2100488 537.225600
   4290   4297   4300     1   114.2100488 537.225600
   4291   4290   4294     1   109.6600471 523.836800
   4291   4290   4297     1   109.6600471 523.836800
   4291   4303   4315     1   111.5100476 526.347200
   4294   4290   4297     1   109.6600471 523.836800
   4294   4306   4312     1   111.5100476 526.347200
   4297   4300   4309     1   111.5100476 526.347200
   4300   4309   4318     1   107.9700462 569.024000
   4303   4315   7987     1   107.9700462 569.024000
   4306   4312   7964     1   107.9700462 569.024000
   4312   7964   7960     1   112.4800480 524.673600
   4315   7987   7983     1   112.4800480 524.673600
   4320   4321   4333     1   114.2100488 537.225600
   4320   4324   4336     1   114.2100488 537.225600
   4320   4327   4330     1   114.2100488 537.225600
   4321   4320   4324     1   109.6600471 523.836800
   4321   4320   4327     1   109.6600471 523.836800
   4321   4333   4345     1   111.5100476 526.347200
   4324   4320   4327     1   109.6600471 523.836800
   4324   4336   4342     1   111.5100476 526.347200
   4327   4330   4339     1   111.5100476 526.347200
   4330   4339   4348     1   107.9700462 569.024000
   4333   4345   8033     1   107.9700462 569.024000
   4336   4342   8010     1   107.9700462 569.024000
   4342   8010   8006     1   112.4800480 524.673600
   4345   8033   8029     1   112.4800480 524.673600
   4350   4351   4363     1   114.2100488 537.225600
   4350   4354   4366     1   114.2100488 537.225600
   4350   4357   4360     1   114.2100488 537.225600
   4351   4350   4354     1   109.6600471 523.836800
   4351   4350   4357     1   109.6600471 523.836800
   4351   4363   4375     1   111.5100476 526.347200
   4354   4350   4357     1   109.6600471 523.836800
   4354   4366   4372     1   111.5100476 526.347200
   4357   4360   4369     1   111.5100476 526.347200
   4360   4369   4378     1   107.9700462 569.024000
   4363   4375   8079     1   107.9700462 569.024000
   4366   4372   8056     1   107.9700462 569.024000
   4372   8056   8052     1   112.4800480 524.673600
   4375   8079   8075     1   112.4800480 524.673600
   4380   4381   4393     1   114.2100488 537.225600
   4380   4384   4396     1   114.2100488 537.225600
   4380   4387   4390     1   114.2100488 537.225600
   4381   4380   4384     1   109.6600471 523.836800
   4381   4380   4387     1   109.6600471 523.836800
   4381   4393   4405     1   111.5100476 526.347200
   4384   4380   4387     1   109.6600471 523.836800
   4384   4396   4402     1   111.5100476 526.347200
   4387   4390   4399     1   111.5100476 526.347200
   4390   4399   4408     1   107.9700462 569.024000
   4393   4405   8125     1   107.9700462 569.024000
   4396   4402   8102     1   107.9700462 569.024000
   4402   8102   8098     1   112.4800480 524.673600
   4405   8125   8121     1   112.4800480 524.673600
   4410   4411   4423     1   114.2100488 537.225600
   4410   4414   4426     1   114.2100488 537.225600
   4410   4417   4420     1   114.2100488 537.225600
   4411   4410   4414     1   109.6600471 523.836800
   4411   4410   4417     1   109.6600471 523.836800
   4411   4423   4435     1   111.5100476 526.347200
   4414   4410   4417     1   109.6600471 523.836800
   4414   4426   4432     1   111.5100476 526.347200
   4417   4420   4429     1   111.5100476 526.347200
   4420   4429   4438     1   107.9700462 569.024000
   4423   4435   8171     1   107.9700462 569.024000
   4426   4432   8148     1   107.9700462 569.024000
   4432   8148   8144     1   112.4800480 524.673600
   4435   8171   8167     1   112.4800480 524.673600
   4440   4441   4453     1   114.2100488 537.225600
   4440   4444   4456     1   114.2100488 537.225600
   4440   4447   4450     1   114.2100488 537.225600
   4441   4440   4444     1   109.6600471 523.836800
   4441   4440   4447     1   109.6600471 523.836800
   4441   4453   4465     1   111.5100476 526.347200
   4444   4440   4447     1   109.6600471 523.836800
   4444   4456   4462     1   111.5100476 526.347200
   4447   4450   4459     1   111.5100476 526.347200
   4450   4459   4468     1   107.9700462 569.024000
   4453   4465   8217     1   107.9700462 569.024000
   4456   4462   8194     1   107.9700462 569.024000
   4462   8194   8190     1   112.4800480 524.673600
   4465   8217   8213     1   112.4800480 524.673600
   4470   4471   4483     1   114.2100488 537.225600
   4470   4474   4486     1   114.2100488 537.225600
   4470   4477   4480     1   114.2100488 537.225600
   4471   4470   4474     1   109.6600471 523.836800
   4471   4470   4477     1   109.6600471 523.836800
   4471   4483   4495     1   111.5100476 526.347200
   4474   4470   4477     1   109.6600471 523.836800
   4474   4486   4492     1   111.5100476 526.347200
   4477   4480   4489     1   111.5100476 526.347200
   4480   4489   4498     1   107.9700462 569.024000
   4483   4495   8263     1   107.9700462 569.024000
   4486   4492   8240     1   107.9700462 569.024000
   4492   8240   8236     1   112.4800480 524.673600
   4495   8263   8259     1   112.4800480 524.673600
   4500   4501   4513     1   114.2100488 537.225600
   4500   4504   4516     1   114.2100488 537.225600
   4500   4507   4510     1   114.2100488 537.225600
   4501   4500   4504     1   109.6600471 523.836800
   4501   4500   4507     1   109.6600471 523.836800
   4501   4513   4525     1   111.5100476 526.347200
   4504   4500   4507     1   109.6600471 523.836800
   4504   4516   4522     1   111.5100476 526.347200
   4507   4510   4519     1   111.5100476 526.347200
   4510   4519   4528     1   107.9700462 569.024000
   4513   4525   8309     1   107.9700462 569.024000
   4516   4522   8286     1   107.9700462 569.024000
   4522   8286   8282     1   112.4800480 524.673600
   4525   8309   8305     1   112.4800480 524.673600
   4530   4531   4543     1   114.2100488 537.225600
   4530   4534   4546     1   114.2100488 537.225600
   4530   4537   4540     1   114.2100488 537.225600
   4531   4530   4534     1   109.6600471 523.836800
   4531   4530   4537     1   109.6600471 523.836800
   4531   4543   4555     1   111.5100476 526.347200
   4534   4530   4537     1   109.6600471 523.836800
   4534   4546   4552     1   111.5100476 526.347200
   4537   4540   4549     1   111.5100476 526.347200
   4540   4549   4558     1   107.9700462 569.024000
   4543   4555   8355     1   107.9700462 569.024000
   4546   4552   8332     1   107.9700462 569.024000
   4552   8332   8328     1   112.4800480 524.673600
   4555   8355   8351     1   112.4800480 524.673600
   4560   4561   4573     1   114.2100488 537.225600
   4560   4564   4576     1   114.2100488 537.225600
   4560   4567   4570     1   114.2100488 537.225600
   4561   4560   4564     1   109.6600471 523.836800
   4561   4560   4567     1   109.6600471 523.836800
   4561   4573   4585     1   111.5100476 526.347200
   4564   4560   4567     1   109.6600471 523.836800
   4564   4576   4582     1   111.5100476 526.347200
   4567   4570   4579     1   111.5100476 526.347200
   4570   4579   4588     1   107.9700462 569.024000
   4573   4585   8401     1   107.9700462 569.024000
   4576   4582   8378     1   107.9700462 569.024000
   4582   8378   8374     1   112.4800480 524.673600
   4585   8401   8397     1   112.4800480 524.673600
   4590   4591   4603     1   114.2100488 537.225600
   4590   4594   4606     1   114.2100488 537.225600
   4590   4597   4600     1   114.2100488 537.225600
   4591   4590   4594     1   109.6600471 523.836800
   4591   4590   4597     1   109.6600471 523.836800
   4591   4603   4615     1   111.5100476 526.347200
   4594   4590   4597     1   109.6600471 523.836800
   4594   4606   4612     1   111.5100476 526.347200
   4597   4600   4609     1   111.5100476 526.347200
   4600   4609   4618     1   107.9700462 569.024000
   4603   4615   8447     1   107.9700462 569.024000
   4606   4612   8424     1   107.9700462 569.024000
   4612   8424   8420     1   112.4800480 524.673600
   4615   8447   8443     1   112.4800480 524.673600
   4620   4621   4633     1   114.2100488 537.225600
   4620   4624   4636     1   114.2100488 537.225600
   4620   4627   4630     1   114.2100488 537.225600
   4621   4620   4624     1   109.6600471 523.836800
   4621   4620   4627     1   109.6600471 523.836800
   4621   4633   4645     1   111.5100476 526.347200
   4624   4620   4627     1   109.6600471 523.836800
   4624   4636   4642     1   111.5100476 526.347200
   4627   4630   4639     1   111.5100476 526.347200
   4630   4639   4648     1   107.9700462 569.024000
   4633   4645   8493     1   107.9700462 569.024000
   4636   4642   8470     1   107.9700462 569.024000
   4642   8470   8466     1   112.4800480 524.673600
   4645   8493   8489     1   112.4800480 524.673600
   4650   4651   4663     1   114.2100488 537.225600
   4650   4654   4666     1   114.2100488 537.225600
   4650   4657   4660     1   114.2100488 537.225600
   4651   4650   4654     1   109.6600471 523.836800
   4651   4650   4657     1   109.6600471 523.836800
   4651   4663   4675     1   111.5100476 526.347200
   4654   4650   4657     1   109.6600471 523.836800
   4654   4666   4672     1   111.5100476 526.347200
   4657   4660   4669     1   111.5100476 526.347200
   4660   4669   4678     1   107.9700462 569.024000
   4663   4675   8539     1   107.9700462 569.024000
   4666   4672   8516     1   107.9700462 569.024000
   4672   8516   8512     1   112.4800480 524.673600
   4675   8539   8535     1   112.4800480 524.673600
   4680   4681   4693     1   114.2100488 537.225600
   4680   4684   4696     1   114.2100488 537.225600
   4680   4687   4690     1   114.2100488 537.225600
   4681   4680   4684     1   109.6600471 523.836800
   4681   4680   4687     1   109.6600471 523.836800
   4681   4693   4705     1   111.5100476 526.347200
   4684   4680   4687     1   109.6600471 523.836800
   4684   4696   4702     1   111.5100476 526.347200
   4687   4690   4699     1   111.5100476 526.347200
   4690   4699   4708     1   107.9700462 569.024000
   4693   4705   8585     1   107.9700462 569.024000
   4696   4702   8562     1   107.9700462 569.024000
   4702   8562   8558     1   112.4800480 524.673600
   4705   8585   8581     1   112.4800480 524.673600
   4710   4711   4723     1   114.2100488 537.225600
   4710   4714   4726     1   114.2100488 537.225600
   4710   4717   4720     1   114.2100488 537.225600
   4711   4710   4714     1   109.6600471 523.836800
   4711   4710   4717     1   109.6600471 523.836800
   4711   4723   4735     1   111.5100476 526.347200
   4714   4710   4717     1   109.6600471 523.836800
   4714   4726   4732     1   111.5100476 526.347200
   4717   4720   4729     1   111.5100476 526.347200
   4720   4729   4738     1   107.9700462 569.024000
   4723   4735   8631     1   107.9700462 569.024000
   4726   4732   8608     1   107.9700462 569.024000
   4732   8608   8604     1   112.4800480 524.673600
   4735   8631   8627     1   112.4800480 524.673600
   4740   4741   4753     1   114.2100488 537.225600
   4740   4744   4756     1   114.2100488 537.225600
   4740   4747   4750     1   114.2100488 537.225600
   4741   4740   4744     1   109.6600471 523.836800
   4741   4740   4747     1   109.6600471 523.836800
   4741   4753   4765     1   111.5100476 526.347200
   4744   4740   4747     1   109.6600471 523.836800
   4744   4756   4762     1   111.5100476 526.347200
   4747   4750   4759     1   111.5100476 526.347200
   4750   4759   4768     1   107.9700462 569.024000
   4753   4765   8677     1   107.9700462 569.024000
   4756   4762   8654     1   107.9700462 569.024000
   4762   8654   8650     1   112.4800480 524.673600
   4765   8677   8673     1   112.4800480 524.673600
   4770   4771   4783     1   114.2100488 537.225600
   4770   4774   4786     1   114.2100488 537.225600
   4770   4777   4780     1   114.2100488 537.225600
   4771   4770   4774     1   109.6600471 523.836800
   4771   4770   4777     1   109.6600471 523.836800
   4771   4783   4795     1   111.5100476 526.347200
   4774   4770   4777     1   109.6600471 523.836800
   4774   4786   4792     1   111.5100476 526.347200
   4777   4780   4789     1   111.5100476 526.347200
   4780   4789   4798     1   107.9700462 569.024000
   4783   4795   8723     1   107.9700462 569.024000
   4786   4792   8700     1   107.9700462 569.024000
   4792   8700   8696     1   112.4800480 524.673600
   4795   8723   8719     1   112.4800480 524.673600
   4800   4801   4813     1   114.2100488 537.225600
   4800   4804   4816     1   114.2100488 537.225600
   4800   4807   4810     1   114.2100488 537.225600
   4801   4800   4804     1   109.6600471 523.836800
   4801   4800   4807     1   109.6600471 523.836800
   4801   4813   4825     1   111.5100476 526.347200
   4804   4800   4807     1   109.6600471 523.836800
   4804   4816   4822     1   111.5100476 526.347200
   4807   4810   4819     1   111.5100476 526.347200
   4810   4819   4828     1   107.9700462 569.024000
   4813   4825   8769     1   107.9700462 569.024000
   4816   4822   8746     1   107.9700462 569.024000
   4822   8746   8742     1   112.4800480 524.673600
   4825   8769   8765     1   112.4800480 524.673600
   4830   4831   4843     1   114.2100488 537.225600
   4830   4834   4846     1   114.2100488 537.225600
   4830   4837   4840     1   114.2100488 537.225600
   4831   4830   4834     1   109.6600471 523.836800
   4831   4830   4837     1   109.6600471 523.836800
   4831   4843   4855     1   111.5100476 526.347200
   4834   4830   4837     1   109.6600471 523.836800
   4834   4846   4852     1   111.5100476 526.347200
   4837   4840   4849     1   111.5100476 526.347200
   4840   4849   4858     1   107.9700462 569.024000
   4843   4855   8815     1   107.9700462 569.024000
   4846   4852   8792     1   107.9700462 569.024000
   4852   8792   8788     1   112.4800480 524.673600
   4855   8815   8811     1   112.4800480 524.673600
   4860   4861   4873     1   114.2100488 537.225600
   4860   4864   4876     1   114.2100488 537.225600
   4860   4867   4870     1   114.2100488 537.225600
   4861   4860   4864     1   109.6600471 523.836800
   4861   4860   4867     1   109.6600471 523.836800
   4861   4873   4885     1   111.5100476 526.347200
   4864   4860   4867     1   109.6600471 523.836800
   4864   4876   4882     1   111.5100476 526.347200
   4867   4870   4879     1   111.5100476 526.347200
   4870   4879   4888     1   107.9700462 569.024000
   4873   4885   8861     1   107.9700462 569.024000
   4876   4882   8838     1   107.9700462 569.024000
   4882   8838   8834     1   112.4800480 524.673600
   4885   8861   8857     1   112.4800480 524.673600
   4890   4891   4903     1   114.2100488 537.225600
   4890   4894   4906     1   114.2100488 537.225600
   4890   4897   4900     1   114.2100488 537.225600
   4891   4890   4894     1   109.6600471 523.836800
   4891   4890   4897     1   109.6600471 523.836800
   4891   4903   4915     1   111.5100476 526.347200
   4894   4890   4897     1   109.6600471 523.836800
   4894   4906   4912     1   111.5100476 526.347200
   4897   4900   4909     1   111.5100476 526.347200
   4900   4909   4918     1   107.9700462 569.024000
   4903   4915   8907     1   107.9700462 569.024000
   4906   4912   8884     1   107.9700462 569.024000
   4912   8884   8880     1   112.4800480 524.673600
   4915   8907   8903     1   112.4800480 524.673600
   4920   4921   4933     1   114.2100488 537.225600
   4920   4924   4936     1   114.2100488 537.225600
   4920   4927   4930     1   114.2100488 537.225600
   4921   4920   4924     1   109.6600471 523.836800
   4921   4920   4927     1   109.6600471 523.836800
   4921   4933   4945     1   111.5100476 526.347200
   4924   4920   4927     1   109.6600471 523.836800
   4924   4936   4942     1   111.5100476 526.347200
   4927   4930   4939     1   111.5100476 526.347200
   4930   4939   4948     1   107.9700462 569.024000
   4933   4945   8953     1   107.9700462 569.024000
   4936   4942   8930     1   107.9700462 569.024000
   4942   8930   8926     1   112.4800480 524.673600
   4945   8953   8949     1   112.4800480 524.673600
   4950   4951   4963     1   114.2100488 537.225600
   4950   4954   4966     1   114.2100488 537.225600
   4950   4957   4960     1   114.2100488 537.225600
   4951   4950   4954     1   109.6600471 523.836800
   4951   4950   4957     1   109.6600471 523.836800
   4951   4963   4975     1   111.5100476 526.347200
   4954   4950   4957     1   109.6600471 523.836800
   4954   4966   4972     1   111.5100476 526.347200
   4957   4960   4969     1   111.5100476 526.347200
   4960   4969   4978     1   107.9700462 569.024000
   4963   4975   8999     1   107.9700462 569.024000
   4966   4972   8976     1   107.9700462 569.024000
   4972   8976   8972     1   112.4800480 524.673600
   4975   8999   8995     1   112.4800480 524.673600
   4980   4981   4993     1   114.2100488 537.225600
   4980   4984   4996     1   114.2100488 537.225600
   4980   4987   4990     1   114.2100488 537.225600
   4981   4980   4984     1   109.6600471 523.836800
   4981   4980   4987     1   109.6600471 523.836800
   4981   4993   5005     1   111.5100476 526.347200
   4984   4980   4987     1   109.6600471 523.836800
   4984   4996   5002     1   111.5100476 526.347200
   4987   4990   4999     1   111.5100476 526.347200
   4990   4999   5008     1   107.9700462 569.024000
   4993   5005   9045     1   107.9700462 569.024000
   4996   5002   9022     1   107.9700462 569.024000
   5002   9022   9018     1   112.4800480 524.673600
   5005   9045   9041     1   112.4800480 524.673600
   5010   5011   5023     1   114.2100488 537.225600
   5010   5014   5026     1   114.2100488 537.225600
   5010   5017   5020     1   114.2100488 537.225600
   5011   5010   5014     1   109.6600471 523.836800
   5011   5010   5017     1   109.6600471 523.836800
   5011   5023   5035     1   111.5100476 526.347200
   5014   5010   5017     1   109.6600471 523.836800
   5014   5026   5032     1   111.5100476 526.347200
   5017   5020   5029     1   111.5100476 526.347200
   5020   5029   5038     1   107.9700462 569.024000
   5023   5035   9091     1   107.9700462 569.024000
   5026   5032   9068     1   107.9700462 569.024000
   5032   9068   9064     1   112.4800480 524.673600
   5035   9091   9087     1   112.4800480 524.673600
   5040   5041   5053     1   114.2100488 537.225600
   5040   5044   5056     1   114.2100488 537.225600
   5040   5047   5050     1   114.2100488 537.225600
   5041   5040   5044     1   109.6600471 523.836800
   5041   5040   5047     1   109.6600471 523.836800
   5041   5053   5065     1   111.5100476 526.347200
   5044   5040   5047     1   109.6600471 523.836800
   5044   5056   5062     1   111.5100476 526.347200
   5047   5050   5059     1   111.5100476 526.347200
   5050   5059   5068     1   107.9700462 569.024000
   5053   5065   9137     1   107.9700462 569.024000
   5056   5062   9114     1   107.9700462 569.024000
   5062   9114   9110     1   112.4800480 524.673600
   5065   9137   9133     1   112.4800480 524.673600
   5070   5071   5083     1   114.2100488 537.225600
   5070   5074   5086     1   114.2100488 537.225600
   5070   5077   5080     1   114.2100488 537.225600
   5071   5070   5074     1   109.6600471 523.836800
   5071   5070   5077     1   109.6600471 523.836800
   5071   5083   5095     1   111.5100476 526.347200
   5074   5070   5077     1   109.6600471 523.836800
   5074   5086   5092     1   111.5100476 526.347200
   5077   5080   5089     1   111.5100476 526.347200
   5080   5089   5098     1   107.9700462 569.024000
   5083   5095   9183     1   107.9700462 569.024000
   5086   5092   9160     1   107.9700462 569.024000
   5092   9160   9156     1   112.4800480 524.673600
   5095   9183   9179     1   112.4800480 524.673600
   5100   5101   5113     1   114.2100488 537.225600
   5100   5104   5116     1   114.2100488 537.225600
   5100   5107   5110     1   114.2100488 537.225600
   5101   5100   5104     1   109.6600471 523.836800
   5101   5100   5107     1   109.6600471 523.836800
   5101   5113   5125     1   111.5100476 526.347200
   5104   5100   5107     1   109.6600471 523.836800
   5104   5116   5122     1   111.5100476 526.347200
   5107   5110   5119     1   111.5100476 526.347200
   5110   5119   5128     1   107.9700462 569.024000
   5113   5125   9229     1   107.9700462 569.024000
   5116   5122   9206     1   107.9700462 569.024000
   5122   9206   9202     1   112.4800480 524.673600
   5125   9229   9225     1   112.4800480 524.673600
   5130   5131   5143     1   114.2100488 537.225600
   5130   5134   5146     1   114.2100488 537.225600
   5130   5137   5140     1   114.2100488 537.225600
   5131   5130   5134     1   109.6600471 523.836800
   5131   5130   5137     1   109.6600471 523.836800
   5131   5143   5155     1   111.5100476 526.347200
   5134   5130   5137     1   109.6600471 523.836800
   5134   5146   5152     1   111.5100476 526.347200
   5137   5140   5149     1   111.5100476 526.347200
   5140   5149   5158     1   107.9700462 569.024000
   5143   5155   9275     1   107.9700462 569.024000
   5146   5152   9252     1   107.9700462 569.024000
   5152   9252   9248     1   112.4800480 524.673600
   5155   9275   9271     1   112.4800480 524.673600
   5160   5161   5173     1   114.2100488 537.225600
   5160   5164   5176     1   114.2100488 537.225600
   5160   5167   5170     1   114.2100488 537.225600
   5161   5160   5164     1   109.6600471 523.836800
   5161   5160   5167     1   109.6600471 523.836800
   5161   5173   5185     1   111.5100476 526.347200
   5164   5160   5167     1   109.6600471 523.836800
   5164   5176   5182     1   111.5100476 526.347200
   5167   5170   5179     1   111.5100476 526.347200
   5170   5179   5188     1   107.9700462 569.024000
   5173   5185   9321     1   107.9700462 569.024000
   5176   5182   9298     1   107.9700462 569.024000
   5182   9298   9294     1   112.4800480 524.673600
   5185   9321   9317     1   112.4800480 524.673600
   5190   5191   5203     1   114.2100488 537.225600
   5190   5194   5206     1   114.2100488 537.225600
   5190   5197   5200     1   114.2100488 537.225600
   5191   5190   5194     1   109.6600471 523.836800
   5191   5190   5197     1   109.6600471 523.836800
   5191   5203   5215     1   111.5100476 526.347200
   5194   5190   5197     1   109.6600471 523.836800
   5194   5206   5212     1   111.5100476 526.347200
   5197   5200   5209     1   111.5100476 526.347200
   5200   5209   5218     1   107.9700462 569.024000
   5203   5215   9367     1   107.9700462 569.024000
   5206   5212   9344     1   107.9700462 569.024000
   5212   9344   9340     1   112.4800480 524.673600
   5215   9367   9363     1   112.4800480 524.673600
   5220   5221   5233     1   114.2100488 537.225600
   5220   5224   5236     1   114.2100488 537.225600
   5220   5227   5230     1   114.2100488 537.225600
   5221   5220   5224     1   109.6600471 523.836800
   5221   5220   5227     1   109.6600471 523.836800
   5221   5233   5245     1   111.5100476 526.347200
   5224   5220   5227     1   109.6600471 523.836800
   5224   5236   5242     1   111.5100476 526.347200
   5227   5230   5239     1   111.5100476 526.347200
   5230   5239   5248     1   107.9700462 569.024000
   5233   5245   9413     1   107.9700462 569.024000
   5236   5242   9390     1   107.9700462 569.024000
   5242   9390   9386     1   112.4800480 524.673600
   5245   9413   9409     1   112.4800480 524.673600
   5250   5251   5263     1   114.2100488 537.225600
   5250   5254   5266     1   114.2100488 537.225600
   5250   5257   5260     1   114.2100488 537.225600
   5251   5250   5254     1   109.6600471 523.836800
   5251   5250   5257     1   109.6600471 523.836800
   5251   5263   5275     1   111.5100476 526.347200
   5254   5250   5257     1   109.6600471 523.836800
   5254   5266   5272     1   111.5100476 526.347200
   5257   5260   5269     1   111.5100476 526.347200
   5260   5269   5278     1   107.9700462 569.024000
   5263   5275   9459     1   107.9700462 569.024000
   5266   5272   9436     1   107.9700462 569.024000
   5272   9436   9432     1   112.4800480 524.673600
   5275   9459   9455     1   112.4800480 524.673600
   5280   5281   5293     1   114.2100488 537.225600
   5280   5284   5296     1   114.2100488 537.225600
   5280   5287   5290     1   114.2100488 537.225600
   5281   5280   5284     1   109.6600471 523.836800
   5281   5280   5287     1   109.6600471 523.836800
   5281   5293   5305     1   111.5100476 526.347200
   5284   5280   5287     1   109.6600471 523.836800
   5284   5296   5302     1   111.5100476 526.347200
   5287   5290   5299     1   111.5100476 526.347200
   5290   5299   5308     1   107.9700462 569.024000
   5293   5305   9505     1   107.9700462 569.024000
   5296   5302   9482     1   107.9700462 569.024000
   5302   9482   9478     1   112.4800480 524.673600
   5305   9505   9501     1   112.4800480 524.673600
   5310   5311   5323     1   114.2100488 537.225600
   5310   5314   5326     1   114.2100488 537.225600
   5310   5317   5320     1   114.2100488 537.225600
   5311   5310   5314     1   109.6600471 523.836800
   5311   5310   5317     1   109.6600471 523.836800
   5311   5323   5335     1   111.5100476 526.347200
   5314   5310   5317     1   109.6600471 523.836800
   5314   5326   5332     1   111.5100476 526.347200
   5317   5320   5329     1   111.5100476 526.347200
   5320   5329   5338     1   107.9700462 569.024000
   5323   5335   9551     1   107.9700462 569.024000
   5326   5332   9528     1   107.9700462 569.024000
   5332   9528   9524     1   112.4800480 524.673600
   5335   9551   9547     1   112.4800480 524.673600
   5340   5341   5353     1   114.2100488 537.225600
   5340   5344   5356     1   114.2100488 537.225600
   5340   5347   5350     1   114.2100488 537.225600
   5341   5340   5344     1   109.6600471 523.836800
   5341   5340   5347     1   109.6600471 523.836800
   5341   5353   5365     1   111.5100476 526.347200
   5344   5340   5347     1   109.6600471 523.836800
   5344   5356   5362     1   111.5100476 526.347200
   5347   5350   5359     1   111.5100476 526.347200
   5350   5359   5368     1   107.9700462 569.024000
   5353   5365   9597     1   107.9700462 569.024000
   5356   5362   9574     1   107.9700462 569.024000
   5362   9574   9570     1   112.4800480 524.673600
   5365   9597   9593     1   112.4800480 524.673600
   5370   5371   5383     1   114.2100488 537.225600
   5370   5374   5386     1   114.2100488 537.225600
   5370   5377   5380     1   114.2100488 537.225600
   5371   5370   5374     1   109.6600471 523.836800
   5371   5370   5377     1   109.6600471 523.836800
   5371   5383   5395     1   111.5100476 526.347200
   5374   5370   5377     1   109.6600471 523.836800
   5374   5386   5392     1   111.5100476 526.347200
   5377   5380   5389     1   111.5100476 526.347200
   5380   5389   5398     1   107.9700462 569.024000
   5383   5395   9643     1   107.9700462 569.024000
   5386   5392   9620     1   107.9700462 569.024000
   5392   9620   9616     1   112.4800480 524.673600
   5395   9643   9639     1   112.4800480 524.673600
   5400   5401   5413     1   114.2100488 537.225600
   5400   5404   5416     1   114.2100488 537.225600
   5400   5407   5410     1   114.2100488 537.225600
   5401   5400   5404     1   109.6600471 523.836800
   5401   5400   5407     1   109.6600471 523.836800
   5401   5413   5425     1   111.5100476 526.347200
   5404   5400   5407     1   109.6600471 523.836800
   5404   5416   5422     1   111.5100476 526.347200
   5407   5410   5419     1   111.5100476 526.347200
   5410   5419   5428     1   107.9700462 569.024000
   5413   5425   9689     1   107.9700462 569.024000
   5416   5422   9666     1   107.9700462 569.024000
   5422   9666   9662     1   112.4800480 524.673600
   5425   9689   9685     1   112.4800480 524.673600
   5430   5431   5443     1   114.2100488 537.225600
   5430   5434   5446     1   114.2100488 537.225600
   5430   5437   5440     1   114.2100488 537.225600
   5431   5430   5434     1   109.6600471 523.836800
   5431   5430   5437     1   109.6600471 523.836800
   5431   5443   5455     1   111.5100476 526.347200
   5434   5430   5437     1   109.6600471 523.836800
   5434   5446   5452     1   111.5100476 526.347200
   5437   5440   5449     1   111.5100476 526.347200
   5440   5449   5458     1   107.9700462 569.024000
   5443   5455   9735     1   107.9700462 569.024000
   5446   5452   9712     1   107.9700462 569.024000
   5452   9712   9708     1   112.4800480 524.673600
   5455   9735   9731     1   112.4800480 524.673600
   5460   5461   5473     1   114.2100488 537.225600
   5460   5464   5476     1   114.2100488 537.225600
   5460   5467   5470     1   114.2100488 537.225600
   5461   5460   5464     1   109.6600471 523.836800
   5461   5460   5467     1   109.6600471 523.836800
   5461   5473   5485     1   111.5100476 526.347200
   5464   5460   5467     1   109.6600471 523.836800
   5464   5476   5482     1   111.5100476 526.347200
   5467   5470   5479     1   111.5100476 526.347200
   5470   5479   5488     1   107.9700462 569.024000
   5473   5485   9781     1   107.9700462 569.024000
   5476   5482   9758     1   107.9700462 569.024000
   5482   9758   9754     1   112.4800480 524.673600
   5485   9781   9777     1   112.4800480 524.673600
   5490   5491   5503     1   114.2100488 537.225600
   5490   5494   5506     1   114.2100488 537.225600
   5490   5497   5500     1   114.2100488 537.225600
   5491   5490   5494     1   109.6600471 523.836800
   5491   5490   5497     1   109.6600471 523.836800
   5491   5503   5515     1   111.5100476 526.347200
   5494   5490   5497     1   109.6600471 523.836800
   5494   5506   5512     1   111.5100476 526.347200
   5497   5500   5509     1   111.5100476 526.347200
   5500   5509   5518     1   107.9700462 569.024000
   5503   5515   9827     1   107.9700462 569.024000
   5506   5512   9804     1   107.9700462 569.024000
   5512   9804   9800     1   112.4800480 524.673600
   5515   9827   9823     1   112.4800480 524.673600
   5520   5521   5533     1   114.2100488 537.225600
   5520   5524   5536     1   114.2100488 537.225600
   5520   5527   5530     1   114.2100488 537.225600
   5521   5520   5524     1   109.6600471 523.836800
   5521   5520   5527     1   109.6600471 523.836800
   5521   5533   5545     1   111.5100476 526.347200
   5524   5520   5527     1   109.6600471 523.836800
   5524   5536   5542     1   111.5100476 526.347200
   5527   5530   5539     1   111.5100476 526.347200
   5530   5539   5548     1   107.9700462 569.024000
   5533   5545   9873     1   107.9700462 569.024000
   5536   5542   9850     1   107.9700462 569.024000
   5542   9850   9846     1   112.4800480 524.673600
   5545   9873   9869     1   112.4800480 524.673600
   5550   5551   5563     1   114.2100488 537.225600
   5550   5554   5566     1   114.2100488 537.225600
   5550   5557   5560     1   114.2100488 537.225600
   5551   5550   5554     1   109.6600471 523.836800
   5551   5550   5557     1   109.6600471 523.836800
   5551   5563   5575     1   111.5100476 526.347200
   5554   5550   5557     1   109.6600471 523.836800
   5554   5566   5572     1   111.5100476 526.347200
   5557   5560   5569     1   111.5100476 526.347200
   5560   5569   5578     1   107.9700462 569.024000
   5563   5575   9919     1   107.9700462 569.024000
   5566   5572   9896     1   107.9700462 569.024000
   5572   9896   9892     1   112.4800480 524.673600
   5575   9919   9915     1   112.4800480 524.673600
   5580   5581   5593     1   114.2100488 537.225600
   5580   5584   5596     1   114.2100488 537.225600
   5580   5587   5590     1   114.2100488 537.225600
   5581   5580   5584     1   109.6600471 523.836800
   5581   5580   5587     1   109.6600471 523.836800
   5581   5593   5605     1   111.5100476 526.347200
   5584   5580   5587     1   109.6600471 523.836800
   5584   5596   5602     1   111.5100476 526.347200
   5587   5590   5599     1   111.5100476 526.347200
   5590   5599   5608     1   107.9700462 569.024000
   5593   5605   9965     1   107.9700462 569.024000
   5596   5602   9942     1   107.9700462 569.024000
   5602   9942   9938     1   112.4800480 524.673600
   5605   9965   9961     1   112.4800480 524.673600
   5610   5611   5623     1   114.2100488 537.225600
   5610   5614   5626     1   114.2100488 537.225600
   5610   5617   5620     1   114.2100488 537.225600
   5611   5610   5614     1   109.6600471 523.836800
   5611   5610   5617     1   109.6600471 523.836800
   5611   5623   5635     1   111.5100476 526.347200
   5614   5610   5617     1   109.6600471 523.836800
   5614   5626   5632     1   111.5100476 526.347200
   5617   5620   5629     1   111.5100476 526.347200
   5620   5629   5638     1   107.9700462 569.024000
   5623   5635  10011     1   107.9700462 569.024000
   5626   5632   9988     1   107.9700462 569.024000
   5632   9988   9984     1   112.4800480 524.673600
   5635  10011  10007     1   112.4800480 524.673600
   5640   5641   5653     1   114.2100488 537.225600
   5640   5644   5656     1   114.2100488 537.225600
   5640   5647   5650     1   114.2100488 537.225600
   5641   5640   5644     1   109.6600471 523.836800
   5641   5640   5647     1   109.6600471 523.836800
   5641   5653   5665     1   111.5100476 526.347200
   5644   5640   5647     1   109.6600471 523.836800
   5644   5656   5662     1   111.5100476 526.347200
   5647   5650   5659     1   111.5100476 526.347200
   5650   5659   5668     1   107.9700462 569.024000
   5653   5665  10057     1   107.9700462 569.024000
   5656   5662  10034     1   107.9700462 569.024000
   5662  10034  10030     1   112.4800480 524.673600
   5665  10057  10053     1   112.4800480 524.673600
   5670   5671   5683     1   114.2100488 537.225600
   5670   5674   5686     1   114.2100488 537.225600
   5670   5677   5680     1   114.2100488 537.225600
   5671   5670   5674     1   109.6600471 523.836800
   5671   5670   5677     1   109.6600471 523.836800
   5671   5683   5695     1   111.5100476 526.347200
   5674   5670   5677     1   109.6600471 523.836800
   5674   5686   5692     1   111.5100476 526.347200
   5677   5680   5689     1   111.5100476 526.347200
   5680   5689   5698     1   107.9700462 569.024000
   5683   5695  10103     1   107.9700462 569.024000
   5686   5692  10080     1   107.9700462 569.024000
   5692  10080  10076     1   112.4800480 524.673600
   5695  10103  10099     1   112.4800480 524.673600
   5700   5701   5704     1   111.5100476 526.347200
   5700   5701   5713     1   110.1900474 564.840000
   5700   5714   5720     1   110.1900474 564.840000
   5700   5722   5706     1   112.4800480 524.673600
   5701   5700   5714     1   111.5100476 526.347200
   5701   5700   5722     1   107.9700462 569.024000
   5701   5704   5705     1   111.5100476 526.347200
   5701   5704   5712     1   110.1900474 564.840000
   5704   5701   5713     1   110.1900474 564.840000
   5704   5705   5706     1   111.5100476 526.347200
   5704   5705   5711     1   110.1900474 564.840000
   5705   5704   5712     1   110.1900474 564.840000
   5705   5706   5710     1   107.9700462 569.024000
   5705   5706   5722     1   107.9700462 569.024000
   5706   5705   5711     1   110.1900474 564.840000
   5710   5706   5722     1   108.2900466 608.353600
   5714   5700   5722     1   107.9700462 569.024000
   5723   5724   5727     1   111.5100476 526.347200
   5723   5724   5736     1   110.1900474 564.840000
   5723   5737   5743     1   110.1900474 564.840000
   5723   5745   5729     1   112.4800480 524.673600
   5724   5727   5728     1   111.5100476 526.347200
   5724   5727   5735     1   110.1900474 564.840000
   5724   5723   5737     1   111.5100476 526.347200
   5724   5723   5745     1   107.9700462 569.024000
   5727   5728   5729     1   111.5100476 526.347200
   5727   5728   5734     1   110.1900474 564.840000
   5727   5724   5736     1   110.1900474 564.840000
   5728   5729   5733     1   107.9700462 569.024000
   5728   5729   5745     1   107.9700462 569.024000
   5728   5727   5735     1   110.1900474 564.840000
   5729   5728   5734     1   110.1900474 564.840000
   5733   5729   5745     1   108.2900466 608.353600
   5737   5723   5745     1   107.9700462 569.024000
   5746   5747   5750     1   111.5100476 526.347200
   5746   5747   5759     1   110.1900474 564.840000
   5746   5760   5766     1   110.1900474 564.840000
   5746   5768   5752     1   112.4800480 524.673600
   5747   5746   5760     1   111.5100476 526.347200
   5747   5746   5768     1   107.9700462 569.024000
   5747   5750   5751     1   111.5100476 526.347200
   5747   5750   5758     1   110.1900474 564.840000
   5750   5747   5759     1   110.1900474 564.840000
   5750   5751   5752     1   111.5100476 526.347200
   5750   5751   5757     1   110.1900474 564.840000
   5751   5750   5758     1   110.1900474 564.840000
   5751   5752   5756     1   107.9700462 569.024000
   5751   5752   5768     1   107.9700462 569.024000
   5752   5751   5757     1   110.1900474 564.840000
   5756   5752   5768     1   108.2900466 608.353600
   5760   5746   5768     1   107.9700462 569.024000
   5769   5770   5773     1   111.5100476 526.347200
   5769   5770   5782     1   110.1900474 564.840000
   5769   5783   5789     1   110.1900474 564.840000
   5769   5791   5775     1   112.4800480 524.673600
   5770   5773   5774     1   111.5100476 526.347200
   5770   5773   5781     1   110.1900474 564.840000
   5770   5769   5783     1   111.5100476 526.347200
   5770   5769   5791     1   107.9700462 569.024000
   5773   5774   5775     1   111.5100476 526.347200
   5773   5774   5780     1   110.1900474 564.840000
   5773   5770   5782     1   110.1900474 564.840000
   5774   5775   5779     1   107.9700462 569.024000
   5774   5775   5791     1   107.9700462 569.024000
   5774   5773   5781     1   110.1900474 564.840000
   5775   5774   5780     1   110.1900474 564.840000
   5779   5775   5791     1   108.2900466 608.353600
   5783   5769   5791     1   107.9700462 569.024000
   5792   5793   5796     1   111.5100476 526.347200
   5792   5793   5805     1   110.1900474 564.840000
   5792   5806   5812     1   110.1900474 564.840000
   5792   5814   5798     1   112.4800480 524.673600
   5793   5792   5806     1   111.5100476 526.347200
   5793   5792   5814     1   107.9700462 569.024000
   5793   5796   5797     1   111.5100476 526.347200
   5793   5796   5804     1   110.1900474 564.840000
   5796   5793   5805     1   110.1900474 564.840000
   5796   5797   5798     1   111.5100476 526.347200
   5796   5797   5803     1   110.1900474 564.840000
   5797   5796   5804     1   110.1900474 564.840000
   5797   5798   5802     1   107.9700462 569.024000
   5797   5798   5814     1   107.9700462 569.024000
   5798   5797   5803     1   110.1900474 564.840000
   5802   5798   5814     1   108.2900466 608.353600
   5806   5792   5814     1   107.9700462 569.024000
   5815   5816   5819     1   111.5100476 526.347200
   5815   5816   5828     1   110.1900474 564.840000
   5815   5829   5835     1   110.1900474 564.840000
   5815   5837   5821     1   112.4800480 524.673600
   5816   5819   5820     1   111.5100476 526.347200
   5816   5819   5827     1   110.1900474 564.840000
   5816   5815   5829     1   111.5100476 526.347200
   5816   5815   5837     1   107.9700462 569.024000
   5819   5820   5821     1   111.5100476 526.347200
   5819   5820   5826     1   110.1900474 564.840000
   5819   5816   5828     1   110.1900474 564.840000
   5820   5821   5825     1   107.9700462 569.024000
   5820   5821   5837     1   107.9700462 569.024000
   5820   5819   5827     1   110.1900474 564.840000
   5821   5820   5826     1   110.1900474 564.840000
   5825   5821   5837     1   108.2900466 608.353600
   5829   5815   5837     1   107.9700462 569.024000
   5838   5839   5842     1   111.5100476 526.347200
   5838   5839   5851     1   110.1900474 564.840000
   5838   5852   5858     1   110.1900474 564.840000
   5838   5860   5844     1   112.4800480 524.673600
   5839   5838   5852     1   111.5100476 526.347200
   5839   5838   5860     1   107.9700462 569.024000
   5839   5842   5843     1   111.5100476 526.347200
   5839   5842   5850     1   110.1900474 564.840000
   5842   5839   5851     1   110.1900474 564.840000
   5842   5843   5844     1   111.5100476 526.347200
   5842   5843   5849     1   110.1900474 564.840000
   5843   5842   5850     1   110.1900474 564.840000
   5843   5844   5848     1   107.9700462 569.024000
   5843   5844   5860     1   107.9700462 569.024000
   5844   5843   5849     1   110.1900474 564.840000
   5848   5844   5860     1   108.2900466 608.353600
   5852   5838   5860     1   107.9700462 569.024000
   5861   5862   5865     1   111.5100476 526.347200
   5861   5862   5874     1   110.1900474 564.840000
   5861   5875   5881     1   110.1900474 564.840000
   5861   5883   5867     1   112.4800480 524.673600
   5862   5865   5866     1   111.5100476 526.347200
   5862   5865   5873     1   110.1900474 564.840000
   5862   5861   5875     1   111.5100476 526.347200
   5862   5861   5883     1   107.9700462 569.024000
   5865   5866   5867     1   111.5100476 526.347200
   5865   5866   5872     1   110.1900474 564.840000
   5865   5862   5874     1   110.1900474 564.840000
   5866   5867   5871     1   107.9700462 569.024000
   5866   5867   5883     1   107.9700462 569.024000
   5866   5865   5873     1   110.1900474 564.840000
   5867   5866   5872     1   110.1900474 564.840000
   5871   5867   5883     1   108.2900466 608.353600
   5875   5861   5883     1   107.9700462 569.024000
   5884   5885   5888     1   111.5100476 526.347200
   5884   5885   5897     1   110.1900474 564.840000
   5884   5898   5904     1   110.1900474 564.840000
   5884   5906   5890     1   112.4800480 524.673600
   5885   5884   5898     1   111.5100476 526.347200
   5885   5884   5906     1   107.9700462 569.024000
   5885   5888   5889     1   111.5100476 526.347200
   5885   5888   5896     1   110.1900474 564.840000
   5888   5885   5897     1   110.1900474 564.840000
   5888   5889   5890     1   111.5100476 526.347200
   5888   5889   5895     1   110.1900474 564.840000
   5889   5888   5896     1   110.1900474 564.840000
   5889   5890   5894     1   107.9700462 569.024000
   5889   5890   5906     1   107.9700462 569.024000
   5890   5889   5895     1   110.1900474 564.840000
   5894   5890   5906     1   108.2900466 608.353600
   5898   5884   5906     1   107.9700462 569.024000
   5907   5908   5911     1   111.5100476 526.347200
   5907   5908   5920     1   110.1900474 564.840000
   5907   5921   5927     1   110.1900474 564.840000
   5907   5929   5913     1   112.4800480 524.673600
   5908   5911   5912     1   111.5100476 526.347200
   5908   5911   5919     1   110.1900474 564.840000
   5908   5907   5921     1   111.5100476 526.347200
   5908   5907   5929     1   107.9700462 569.024000
   5911   5912   5913     1   111.5100476 526.347200
   5911   5912   5918     1   110.1900474 564.840000
   5911   5908   5920     1   110.1900474 564.840000
   5912   5913   5917     1   107.9700462 569.024000
   5912   5913   5929     1   107.9700462 569.024000
   5912   5911   5919     1   110.1900474 564.840000
   5913   5912   5918     1   110.1900474 564.840000
   5917   5913   5929     1   108.2900466 608.353600
   5921   5907   5929     1   107.9700462 569.024000
   5930   5931   5934     1   111.5100476 526.347200
   5930   5931   5943     1   110.1900474 564.840000
   5930   5944   5950     1   110.1900474 564.840000
   5930   5952   5936     1   112.4800480 524.673600
   5931   5930   5944     1   111.5100476 526.347200
   5931   5930   5952     1   107.9700462 569.024000
   5931   5934   5935     1   111.5100476 526.347200
   5931   5934   5942     1   110.1900474 564.840000
   5934   5931   5943     1   110.1900474 564.840000
   5934   5935   5936     1   111.5100476 526.347200
   5934   5935   5941     1   110.1900474 564.840000
   5935   5934   5942     1   110.1900474 564.840000
   5935   5936   5940     1   107.9700462 569.024000
   5935   5936   5952     1   107.9700462 569.024000
   5936   5935   5941     1   110.1900474 564.840000
   5940   5936   5952     1   108.2900466 608.353600
   5944   5930   5952     1   107.9700462 569.024000
   5953   5954   5957     1   111.5100476 526.347200
   5953   5954   5966     1   110.1900474 564.840000
   5953   5967   5973     1   110.1900474 564.840000
   5953   5975   5959     1   112.4800480 524.673600
   5954   5957   5958     1   111.5100476 526.347200
   5954   5957   5965     1   110.1900474 564.840000
   5954   5953   5967     1   111.5100476 526.347200
   5954   5953   5975     1   107.9700462 569.024000
   5957   5958   5959     1   111.5100476 526.347200
   5957   5958   5964     1   110.1900474 564.840000
   5957   5954   5966     1   110.1900474 564.840000
   5958   5959   5963     1   107.9700462 569.024000
   5958   5959   5975     1   107.9700462 569.024000
   5958   5957   5965     1   110.1900474 564.840000
   5959   5958   5964     1   110.1900474 564.840000
   5963   5959   5975     1   108.2900466 608.353600
   5967   5953   5975     1   107.9700462 569.024000
   5976   5977   5980     1   111.5100476 526.347200
   5976   5977   5989     1   110.1900474 564.840000
   5976   5990   5996     1   110.1900474 564.840000
   5976   5998   5982     1   112.4800480 524.673600
   5977   5976   5990     1   111.5100476 526.347200
   5977   5976   5998     1   107.9700462 569.024000
   5977   5980   5981     1   111.5100476 526.347200
   5977   5980   5988     1   110.1900474 564.840000
   5980   5977   5989     1   110.1900474 564.840000
   5980   5981   5982     1   111.5100476 526.347200
   5980   5981   5987     1   110.1900474 564.840000
   5981   5980   5988     1   110.1900474 564.840000
   5981   5982   5986     1   107.9700462 569.024000
   5981   5982   5998     1   107.9700462 569.024000
   5982   5981   5987     1   110.1900474 564.840000
   5986   5982   5998     1   108.2900466 608.353600
   5990   5976   5998     1   107.9700462 569.024000
   5999   6000   6003     1   111.5100476 526.347200
   5999   6000   6012     1   110.1900474 564.840000
   5999   6013   6019     1   110.1900474 564.840000
   5999   6021   6005     1   112.4800480 524.673600
   6000   6003   6004     1   111.5100476 526.347200
   6000   6003   6011     1   110.1900474 564.840000
   6000   5999   6013     1   111.5100476 526.347200
   6000   5999   6021     1   107.9700462 569.024000
   6003   6004   6005     1   111.5100476 526.347200
   6003   6004   6010     1   110.1900474 564.840000
   6003   6000   6012     1   110.1900474 564.840000
   6004   6005   6009     1   107.9700462 569.024000
   6004   6005   6021     1   107.9700462 569.024000
   6004   6003   6011     1   110.1900474 564.840000
   6005   6004   6010     1   110.1900474 564.840000
   6009   6005   6021     1   108.2900466 608.353600
   6013   5999   6021     1   107.9700462 569.024000
   6022   6023   6026     1   111.5100476 526.347200
   6022   6023   6035     1   110.1900474 564.840000
   6022   6036   6042     1   110.1900474 564.840000
   6022   6044   6028     1   112.4800480 524.673600
   6023   6022   6036     1   111.5100476 526.347200
   6023   6022   6044     1   107.9700462 569.024000
   6023   6026   6027     1   111.5100476 526.347200
   6023   6026   6034     1   110.1900474 564.840000
   6026   6023   6035     1   110.1900474 564.840000
   6026   6027   6028     1   111.5100476 526.347200
   6026   6027   6033     1   110.1900474 564.840000
   6027   6026   6034     1   110.1900474 564.840000
   6027   6028   6032     1   107.9700462 569.024000
   6027   6028   6044     1   107.9700462 569.024000
   6028   6027   6033     1   110.1900474 564.840000
   6032   6028   6044     1   108.2900466 608.353600
   6036   6022   6044     1   107.9700462 569.024000
   6045   6046   6049     1   111.5100476 526.347200
   6045   6046   6058     1   110.1900474 564.840000
   6045   6059   6065     1   110.1900474 564.840000
   6045   6067   6051     1   112.4800480 524.673600
   6046   6049   6050     1   111.5100476 526.347200
   6046   6049   6057     1   110.1900474 564.840000
   6046   6045   6059     1   111.5100476 526.347200
   6046   6045   6067     1   107.9700462 569.024000
   6049   6050   6051     1   111.5100476 526.347200
   6049   6050   6056     1   110.1900474 564.840000
   6049   6046   6058     1   110.1900474 564.840000
   6050   6051   6055     1   107.9700462 569.024000
   6050   6051   6067     1   107.9700462 569.024000
   6050   6049   6057     1   110.1900474 564.840000
   6051   6050   6056     1   110.1900474 564.840000
   6055   6051   6067     1   108.2900466 608.353600
   6059   6045   6067     1   107.9700462 569.024000
   6068   6069   6072     1   111.5100476 526.347200
   6068   6069   6081     1   110.1900474 564.840000
   6068   6082   6088     1   110.1900474 564.840000
   6068   6090   6074     1   112.4800480 524.673600
   6069   6068   6082     1   111.5100476 526.347200
   6069   6068   6090     1   107.9700462 569.024000
   6069   6072   6073     1   111.5100476 526.347200
   6069   6072   6080     1   110.1900474 564.840000
   6072   6069   6081     1   110.1900474 564.840000
   6072   6073   6074     1   111.5100476 526.347200
   6072   6073   6079     1   110.1900474 564.840000
   6073   6072   6080     1   110.1900474 564.840000
   6073   6074   6078     1   107.9700462 569.024000
   6073   6074   6090     1   107.9700462 569.024000
   6074   6073   6079     1   110.1900474 564.840000
   6078   6074   6090     1   108.2900466 608.353600
   6082   6068   6090     1   107.9700462 569.024000
   6091   6092   6095     1   111.5100476 526.347200
   6091   6092   6104     1   110.1900474 564.840000
   6091   6105   6111     1   110.1900474 564.840000
   6091   6113   6097     1   112.4800480 524.673600
   6092   6095   6096     1   111.5100476 526.347200
   6092   6095   6103     1   110.1900474 564.840000
   6092   6091   6105     1   111.5100476 526.347200
   6092   6091   6113     1   107.9700462 569.024000
   6095   6096   6097     1   111.5100476 526.347200
   6095   6096   6102     1   110.1900474 564.840000
   6095   6092   6104     1   110.1900474 564.840000
   6096   6097   6101     1   107.9700462 569.024000
   6096   6097   6113     1   107.9700462 569.024000
   6096   6095   6103     1   110.1900474 564.840000
   6097   6096   6102     1   110.1900474 564.840000
   6101   6097   6113     1   108.2900466 608.353600
   6105   6091   6113     1   107.9700462 569.024000
   6114   6115   6118     1   111.5100476 526.347200
   6114   6115   6127     1   110.1900474 564.840000
   6114   6128   6134     1   110.1900474 564.840000
   6114   6136   6120     1   112.4800480 524.673600
   6115   6114   6128     1   111.5100476 526.347200
   6115   6114   6136     1   107.9700462 569.024000
   6115   6118   6119     1   111.5100476 526.347200
   6115   6118   6126     1   110.1900474 564.840000
   6118   6115   6127     1   110.1900474 564.840000
   6118   6119   6120     1   111.5100476 526.347200
   6118   6119   6125     1   110.1900474 564.840000
   6119   6118   6126     1   110.1900474 564.840000
   6119   6120   6124     1   107.9700462 569.024000
   6119   6120   6136     1   107.9700462 569.024000
   6120   6119   6125     1   110.1900474 564.840000
   6124   6120   6136     1   108.2900466 608.353600
   6128   6114   6136     1   107.9700462 569.024000
   6137   6138   6141     1   111.5100476 526.347200
   6137   6138   6150     1   110.1900474 564.840000
   6137   6151   6157     1   110.1900474 564.840000
   6137   6159   6143     1   112.4800480 524.673600
   6138   6141   6142     1   111.5100476 526.347200
   6138   6141   6149     1   110.1900474 564.840000
   6138   6137   6151     1   111.5100476 526.347200
   6138   6137   6159     1   107.9700462 569.024000
   6141   6142   6143     1   111.5100476 526.347200
   6141   6142   6148     1   110.1900474 564.840000
   6141   6138   6150     1   110.1900474 564.840000
   6142   6143   6147     1   107.9700462 569.024000
   6142   6143   6159     1   107.9700462 569.024000
   6142   6141   6149     1   110.1900474 564.840000
   6143   6142   6148     1   110.1900474 564.840000
   6147   6143   6159     1   108.2900466 608.353600
   6151   6137   6159     1   107.9700462 569.024000
   6160   6161   6164     1   111.5100476 526.347200
   6160   6161   6173     1   110.1900474 564.840000
   6160   6174   6180     1   110.1900474 564.840000
   6160   6182   6166     1   112.4800480 524.673600
   6161   6160   6174     1   111.5100476 526.347200
   6161   6160   6182     1   107.9700462 569.024000
   6161   6164   6165     1   111.5100476 526.347200
   6161   6164   6172     1   110.1900474 564.840000
   6164   6161   6173     1   110.1900474 564.840000
   6164   6165   6166     1   111.5100476 526.347200
   6164   6165   6171     1   110.1900474 564.840000
   6165   6164   6172     1   110.1900474 564.840000
   6165   6166   6170     1   107.9700462 569.024000
   6165   6166   6182     1   107.9700462 569.024000
   6166   6165   6171     1   110.1900474 564.840000
   6170   6166   6182     1   108.2900466 608.353600
   6174   6160   6182     1   107.9700462 569.024000
   6183   6184   6187     1   111.5100476 526.347200
   6183   6184   6196     1   110.1900474 564.840000
   6183   6197   6203     1   110.1900474 564.840000
   6183   6205   6189     1   112.4800480 524.673600
   6184   6187   6188     1   111.5100476 526.347200
   6184   6187   6195     1   110.1900474 564.840000
   6184   6183   6197     1   111.5100476 526.347200
   6184   6183   6205     1   107.9700462 569.024000
   6187   6188   6189     1   111.5100476 526.347200
   6187   6188   6194     1   110.1900474 564.840000
   6187   6184   6196     1   110.1900474 564.840000
   6188   6189   6193     1   107.9700462 569.024000
   6188   6189   6205     1   107.9700462 569.024000
   6188   6187   6195     1   110.1900474 564.840000
   6189   6188   6194     1   110.1900474 564.840000
   6193   6189   6205     1   108.2900466 608.353600
   6197   6183   6205     1   107.9700462 569.024000
   6206   6207   6210     1   111.5100476 526.347200
   6206   6207   6219     1   110.1900474 564.840000
   6206   6220   6226     1   110.1900474 564.840000
   6206   6228   6212     1   112.4800480 524.673600
   6207   6206   6220     1   111.5100476 526.347200
   6207   6206   6228     1   107.9700462 569.024000
   6207   6210   6211     1   111.5100476 526.347200
   6207   6210   6218     1   110.1900474 564.840000
   6210   6207   6219     1   110.1900474 564.840000
   6210   6211   6212     1   111.5100476 526.347200
   6210   6211   6217     1   110.1900474 564.840000
   6211   6210   6218     1   110.1900474 564.840000
   6211   6212   6216     1   107.9700462 569.024000
   6211   6212   6228     1   107.9700462 569.024000
   6212   6211   6217     1   110.1900474 564.840000
   6216   6212   6228     1   108.2900466 608.353600
   6220   6206   6228     1   107.9700462 569.024000
   6229   6230   6233     1   111.5100476 526.347200
   6229   6230   6242     1   110.1900474 564.840000
   6229   6243   6249     1   110.1900474 564.840000
   6229   6251   6235     1   112.4800480 524.673600
   6230   6233   6234     1   111.5100476 526.347200
   6230   6233   6241     1   110.1900474 564.840000
   6230   6229   6243     1   111.5100476 526.347200
   6230   6229   6251     1   107.9700462 569.024000
   6233   6234   6235     1   111.5100476 526.347200
   6233   6234   6240     1   110.1900474 564.840000
   6233   6230   6242     1   110.1900474 564.840000
   6234   6235   6239     1   107.9700462 569.024000
   6234   6235   6251     1   107.9700462 569.024000
   6234   6233   6241     1   110.1900474 564.840000
   6235   6234   6240     1   110.1900474 564.840000
   6239   6235   6251     1   108.2900466 608.353600
   6243   6229   6251     1   107.9700462 569.024000
   6252   6253   6256     1   111.5100476 526.347200
   6252   6253   6265     1   110.1900474 564.840000
   6252   6266   6272     1   110.1900474 564.840000
   6252   6274   6258     1   112.4800480 524.673600
   6253   6252   6266     1   111.5100476 526.347200
   6253   6252   6274     1   107.9700462 569.024000
   6253   6256   6257     1   111.5100476 526.347200
   6253   6256   6264     1   110.1900474 564.840000
   6256   6253   6265     1   110.1900474 564.840000
   6256   6257   6258     1   111.5100476 526.347200
   6256   6257   6263     1   110.1900474 564.840000
   6257   6256   6264     1   110.1900474 564.840000
   6257   6258   6262     1   107.9700462 569.024000
   6257   6258   6274     1   107.9700462 569.024000
   6258   6257   6263     1   110.1900474 564.840000
   6262   6258   6274     1   108.2900466 608.353600
   6266   6252   6274     1   107.9700462 569.024000
   6275   6276   6279     1   111.5100476 526.347200
   6275   6276   6288     1   110.1900474 564.840000
   6275   6289   6295     1   110.1900474 564.840000
   6275   6297   6281     1   112.4800480 524.673600
   6276   6279   6280     1   111.5100476 526.347200
   6276   6279   6287     1   110.1900474 564.840000
   6276   6275   6289     1   111.5100476 526.347200
   6276   6275   6297     1   107.9700462 569.024000
   6279   6280   6281     1   111.5100476 526.347200
   6279   6280   6286     1   110.1900474 564.840000
   6279   6276   6288     1   110.1900474 564.840000
   6280   6281   6285     1   107.9700462 569.024000
   6280   6281   6297     1   107.9700462 569.024000
   6280   6279   6287     1   110.1900474 564.840000
   6281   6280   6286     1   110.1900474 564.840000
   6285   6281   6297     1   108.2900466 608.353600
   6289   6275   6297     1   107.9700462 569.024000
   6298   6299   6302     1   111.5100476 526.347200
   6298   6299   6311     1   110.1900474 564.840000
   6298   6312   6318     1   110.1900474 564.840000
   6298   6320   6304     1   112.4800480 524.673600
   6299   6298   6312     1   111.5100476 526.347200
   6299   6298   6320     1   107.9700462 569.024000
   6299   6302   6303     1   111.5100476 526.347200
   6299   6302   6310     1   110.1900474 564.840000
   6302   6299   6311     1   110.1900474 564.840000
   6302   6303   6304     1   111.5100476 526.347200
   6302   6303   6309     1   110.1900474 564.840000
   6303   6302   6310     1   110.1900474 564.840000
   6303   6304   6308     1   107.9700462 569.024000
   6303   6304   6320     1   107.9700462 569.024000
   6304   6303   6309     1   110.1900474 564.840000
   6308   6304   6320     1   108.2900466 608.353600
   6312   6298   6320     1   107.9700462 569.024000
   6321   6322   6325     1   111.5100476 526.347200
   6321   6322   6334     1   110.1900474 564.840000
   6321   6335   6341     1   110.1900474 564.840000
   6321   6343   6327     1   112.4800480 524.673600
   6322   6325   6326     1   111.5100476 526.347200
   6322   6325   6333     1   110.1900474 564.840000
   6322   6321   6335     1   111.5100476 526.347200
   6322   6321   6343     1   107.9700462 569.024000
   6325   6326   6327     1   111.5100476 526.347200
   6325   6326   6332     1   110.1900474 564.840000
   6325   6322   6334     1   110.1900474 564.840000
   6326   6327   6331     1   107.9700462 569.024000
   6326   6327   6343     1   107.9700462 569.024000
   6326   6325   6333     1   110.1900474 564.840000
   6327   6326   6332     1   110.1900474 564.840000
   6331   6327   6343     1   108.2900466 608.353600
   6335   6321   6343     1   107.9700462 569.024000
   6344   6345   6348     1   111.5100476 526.347200
   6344   6345   6357     1   110.1900474 564.840000
   6344   6358   6364     1   110.1900474 564.840000
   6344   6366   6350     1   112.4800480 524.673600
   6345   6344   6358     1   111.5100476 526.347200
   6345   6344   6366     1   107.9700462 569.024000
   6345   6348   6349     1   111.5100476 526.347200
   6345   6348   6356     1   110.1900474 564.840000
   6348   6345   6357     1   110.1900474 564.840000
   6348   6349   6350     1   111.5100476 526.347200
   6348   6349   6355     1   110.1900474 564.840000
   6349   6348   6356     1   110.1900474 564.840000
   6349   6350   6354     1   107.9700462 569.024000
   6349   6350   6366     1   107.9700462 569.024000
   6350   6349   6355     1   110.1900474 564.840000
   6354   6350   6366     1   108.2900466 608.353600
   6358   6344   6366     1   107.9700462 569.024000
   6367   6368   6371     1   111.5100476 526.347200
   6367   6368   6380     1   110.1900474 564.840000
   6367   6381   6387     1   110.1900474 564.840000
   6367   6389   6373     1   112.4800480 524.673600
   6368   6371   6372     1   111.5100476 526.347200
   6368   6371   6379     1   110.1900474 564.840000
   6368   6367   6381     1   111.5100476 526.347200
   6368   6367   6389     1   107.9700462 569.024000
   6371   6372   6373     1   111.5100476 526.347200
   6371   6372   6378     1   110.1900474 564.840000
   6371   6368   6380     1   110.1900474 564.840000
   6372   6373   6377     1   107.9700462 569.024000
   6372   6373   6389     1   107.9700462 569.024000
   6372   6371   6379     1   110.1900474 564.840000
   6373   6372   6378     1   110.1900474 564.840000
   6377   6373   6389     1   108.2900466 608.353600
   6381   6367   6389     1   107.9700462 569.024000
   6390   6391   6394     1   111.5100476 526.347200
   6390   6391   6403     1   110.1900474 564.840000
   6390   6404   6410     1   110.1900474 564.840000
   6390   6412   6396     1   112.4800480 524.673600
   6391   6390   6404     1   111.5100476 526.347200
   6391   6390   6412     1   107.9700462 569.024000
   6391   6394   6395     1   111.5100476 526.347200
   6391   6394   6402     1   110.1900474 564.840000
   6394   6391   6403     1   110.1900474 564.840000
   6394   6395   6396     1   111.5100476 526.347200
   6394   6395   6401     1   110.1900474 564.840000
   6395   6394   6402     1   110.1900474 564.840000
   6395   6396   6400     1   107.9700462 569.024000
   6395   6396   6412     1   107.9700462 569.024000
   6396   6395   6401     1   110.1900474 564.840000
   6400   6396   6412     1   108.2900466 608.353600
   6404   6390   6412     1   107.9700462 569.024000
   6413   6414   6417     1   111.5100476 526.347200
   6413   6414   6426     1   110.1900474 564.840000
   6413   6427   6433     1   110.1900474 564.840000
   6413   6435   6419     1   112.4800480 524.673600
   6414   6417   6418     1   111.5100476 526.347200
   6414   6417   6425     1   110.1900474 564.840000
   6414   6413   6427     1   111.5100476 526.347200
   6414   6413   6435     1   107.9700462 569.024000
   6417   6418   6419     1   111.5100476 526.347200
   6417   6418   6424     1   110.1900474 564.840000
   6417   6414   6426     1   110.1900474 564.840000
   6418   6419   6423     1   107.9700462 569.024000
   6418   6419   6435     1   107.9700462 569.024000
   6418   6417   6425     1   110.1900474 564.840000
   6419   6418   6424     1   110.1900474 564.840000
   6423   6419   6435     1   108.2900466 608.353600
   6427   6413   6435     1   107.9700462 569.024000
   6436   6437   6440     1   111.5100476 526.347200
   6436   6437   6449     1   110.1900474 564.840000
   6436   6450   6456     1   110.1900474 564.840000
   6436   6458   6442     1   112.4800480 524.673600
   6437   6436   6450     1   111.5100476 526.347200
   6437   6436   6458     1   107.9700462 569.024000
   6437   6440   6441     1   111.5100476 526.347200
   6437   6440   6448     1   110.1900474 564.840000
   6440   6437   6449     1   110.1900474 564.840000
   6440   6441   6442     1   111.5100476 526.347200
   6440   6441   6447     1   110.1900474 564.840000
   6441   6440   6448     1   110.1900474 564.840000
   6441   6442   6446     1   107.9700462 569.024000
   6441   6442   6458     1   107.9700462 569.024000
   6442   6441   6447     1   110.1900474 564.840000
   6446   6442   6458     1   108.2900466 608.353600
   6450   6436   6458     1   107.9700462 569.024000
   6459   6460   6463     1   111.5100476 526.347200
   6459   6460   6472     1   110.1900474 564.840000
   6459   6473   6479     1   110.1900474 564.840000
   6459   6481   6465     1   112.4800480 524.673600
   6460   6463   6464     1   111.5100476 526.347200
   6460   6463   6471     1   110.1900474 564.840000
   6460   6459   6473     1   111.5100476 526.347200
   6460   6459   6481     1   107.9700462 569.024000
   6463   6464   6465     1   111.5100476 526.347200
   6463   6464   6470     1   110.1900474 564.840000
   6463   6460   6472     1   110.1900474 564.840000
   6464   6465   6469     1   107.9700462 569.024000
   6464   6465   6481     1   107.9700462 569.024000
   6464   6463   6471     1   110.1900474 564.840000
   6465   6464   6470     1   110.1900474 564.840000
   6469   6465   6481     1   108.2900466 608.353600
   6473   6459   6481     1   107.9700462 569.024000
   6482   6483   6486     1   111.5100476 526.347200
   6482   6483   6495     1   110.1900474 564.840000
   6482   6496   6502     1   110.1900474 564.840000
   6482   6504   6488     1   112.4800480 524.673600
   6483   6482   6496     1   111.5100476 526.347200
   6483   6482   6504     1   107.9700462 569.024000
   6483   6486   6487     1   111.5100476 526.347200
   6483   6486   6494     1   110.1900474 564.840000
   6486   6483   6495     1   110.1900474 564.840000
   6486   6487   6488     1   111.5100476 526.347200
   6486   6487   6493     1   110.1900474 564.840000
   6487   6486   6494     1   110.1900474 564.840000
   6487   6488   6492     1   107.9700462 569.024000
   6487   6488   6504     1   107.9700462 569.024000
   6488   6487   6493     1   110.1900474 564.840000
   6492   6488   6504     1   108.2900466 608.353600
   6496   6482   6504     1   107.9700462 569.024000
   6505   6506   6509     1   111.5100476 526.347200
   6505   6506   6518     1   110.1900474 564.840000
   6505   6519   6525     1   110.1900474 564.840000
   6505   6527   6511     1   112.4800480 524.673600
   6506   6509   6510     1   111.5100476 526.347200
   6506   6509   6517     1   110.1900474 564.840000
   6506   6505   6519     1   111.5100476 526.347200
   6506   6505   6527     1   107.9700462 569.024000
   6509   6510   6511     1   111.5100476 526.347200
   6509   6510   6516     1   110.1900474 564.840000
   6509   6506   6518     1   110.1900474 564.840000
   6510   6511   6515     1   107.9700462 569.024000
   6510   6511   6527     1   107.9700462 569.024000
   6510   6509   6517     1   110.1900474 564.840000
   6511   6510   6516     1   110.1900474 564.840000
   6515   6511   6527     1   108.2900466 608.353600
   6519   6505   6527     1   107.9700462 569.024000
   6528   6529   6532     1   111.5100476 526.347200
   6528   6529   6541     1   110.1900474 564.840000
   6528   6542   6548     1   110.1900474 564.840000
   6528   6550   6534     1   112.4800480 524.673600
   6529   6528   6542     1   111.5100476 526.347200
   6529   6528   6550     1   107.9700462 569.024000
   6529   6532   6533     1   111.5100476 526.347200
   6529   6532   6540     1   110.1900474 564.840000
   6532   6529   6541     1   110.1900474 564.840000
   6532   6533   6534     1   111.5100476 526.347200
   6532   6533   6539     1   110.1900474 564.840000
   6533   6532   6540     1   110.1900474 564.840000
   6533   6534   6538     1   107.9700462 569.024000
   6533   6534   6550     1   107.9700462 569.024000
   6534   6533   6539     1   110.1900474 564.840000
   6538   6534   6550     1   108.2900466 608.353600
   6542   6528   6550     1   107.9700462 569.024000
   6551   6552   6555     1   111.5100476 526.347200
   6551   6552   6564     1   110.1900474 564.840000
   6551   6565   6571     1   110.1900474 564.840000
   6551   6573   6557     1   112.4800480 524.673600
   6552   6555   6556     1   111.5100476 526.347200
   6552   6555   6563     1   110.1900474 564.840000
   6552   6551   6565     1   111.5100476 526.347200
   6552   6551   6573     1   107.9700462 569.024000
   6555   6556   6557     1   111.5100476 526.347200
   6555   6556   6562     1   110.1900474 564.840000
   6555   6552   6564     1   110.1900474 564.840000
   6556   6557   6561     1   107.9700462 569.024000
   6556   6557   6573     1   107.9700462 569.024000
   6556   6555   6563     1   110.1900474 564.840000
   6557   6556   6562     1   110.1900474 564.840000
   6561   6557   6573     1   108.2900466 608.353600
   6565   6551   6573     1   107.9700462 569.024000
   6574   6575   6578     1   111.5100476 526.347200
   6574   6575   6587     1   110.1900474 564.840000
   6574   6588   6594     1   110.1900474 564.840000
   6574   6596   6580     1   112.4800480 524.673600
   6575   6574   6588     1   111.5100476 526.347200
   6575   6574   6596     1   107.9700462 569.024000
   6575   6578   6579     1   111.5100476 526.347200
   6575   6578   6586     1   110.1900474 564.840000
   6578   6575   6587     1   110.1900474 564.840000
   6578   6579   6580     1   111.5100476 526.347200
   6578   6579   6585     1   110.1900474 564.840000
   6579   6578   6586     1   110.1900474 564.840000
   6579   6580   6584     1   107.9700462 569.024000
   6579   6580   6596     1   107.9700462 569.024000
   6580   6579   6585     1   110.1900474 564.840000
   6584   6580   6596     1   108.2900466 608.353600
   6588   6574   6596     1   107.9700462 569.024000
   6597   6598   6601     1   111.5100476 526.347200
   6597   6598   6610     1   110.1900474 564.840000
   6597   6611   6617     1   110.1900474 564.840000
   6597   6619   6603     1   112.4800480 524.673600
   6598   6601   6602     1   111.5100476 526.347200
   6598   6601   6609     1   110.1900474 564.840000
   6598   6597   6611     1   111.5100476 526.347200
   6598   6597   6619     1   107.9700462 569.024000
   6601   6602   6603     1   111.5100476 526.347200
   6601   6602   6608     1   110.1900474 564.840000
   6601   6598   6610     1   110.1900474 564.840000
   6602   6603   6607     1   107.9700462 569.024000
   6602   6603   6619     1   107.9700462 569.024000
   6602   6601   6609     1   110.1900474 564.840000
   6603   6602   6608     1   110.1900474 564.840000
   6607   6603   6619     1   108.2900466 608.353600
   6611   6597   6619     1   107.9700462 569.024000
   6620   6621   6624     1   111.5100476 526.347200
   6620   6621   6633     1   110.1900474 564.840000
   6620   6634   6640     1   110.1900474 564.840000
   6620   6642   6626     1   112.4800480 524.673600
   6621   6620   6634     1   111.5100476 526.347200
   6621   6620   6642     1   107.9700462 569.024000
   6621   6624   6625     1   111.5100476 526.347200
   6621   6624   6632     1   110.1900474 564.840000
   6624   6621   6633     1   110.1900474 564.840000
   6624   6625   6626     1   111.5100476 526.347200
   6624   6625   6631     1   110.1900474 564.840000
   6625   6624   6632     1   110.1900474 564.840000
   6625   6626   6630     1   107.9700462 569.024000
   6625   6626   6642     1   107.9700462 569.024000
   6626   6625   6631     1   110.1900474 564.840000
   6630   6626   6642     1   108.2900466 608.353600
   6634   6620   6642     1   107.9700462 569.024000
   6643   6644   6647     1   111.5100476 526.347200
   6643   6644   6656     1   110.1900474 564.840000
   6643   6657   6663     1   110.1900474 564.840000
   6643   6665   6649     1   112.4800480 524.673600
   6644   6647   6648     1   111.5100476 526.347200
   6644   6647   6655     1   110.1900474 564.840000
   6644   6643   6657     1   111.5100476 526.347200
   6644   6643   6665     1   107.9700462 569.024000
   6647   6648   6649     1   111.5100476 526.347200
   6647   6648   6654     1   110.1900474 564.840000
   6647   6644   6656     1   110.1900474 564.840000
   6648   6649   6653     1   107.9700462 569.024000
   6648   6649   6665     1   107.9700462 569.024000
   6648   6647   6655     1   110.1900474 564.840000
   6649   6648   6654     1   110.1900474 564.840000
   6653   6649   6665     1   108.2900466 608.353600
   6657   6643   6665     1   107.9700462 569.024000
   6666   6667   6670     1   111.5100476 526.347200
   6666   6667   6679     1   110.1900474 564.840000
   6666   6680   6686     1   110.1900474 564.840000
   6666   6688   6672     1   112.4800480 524.673600
   6667   6666   6680     1   111.5100476 526.347200
   6667   6666   6688     1   107.9700462 569.024000
   6667   6670   6671     1   111.5100476 526.347200
   6667   6670   6678     1   110.1900474 564.840000
   6670   6667   6679     1   110.1900474 564.840000
   6670   6671   6672     1   111.5100476 526.347200
   6670   6671   6677     1   110.1900474 564.840000
   6671   6670   6678     1   110.1900474 564.840000
   6671   6672   6676     1   107.9700462 569.024000
   6671   6672   6688     1   107.9700462 569.024000
   6672   6671   6677     1   110.1900474 564.840000
   6676   6672   6688     1   108.2900466 608.353600
   6680   6666   6688     1   107.9700462 569.024000
   6689   6690   6693     1   111.5100476 526.347200
   6689   6690   6702     1   110.1900474 564.840000
   6689   6703   6709     1   110.1900474 564.840000
   6689   6711   6695     1   112.4800480 524.673600
   6690   6693   6694     1   111.5100476 526.347200
   6690   6693   6701     1   110.1900474 564.840000
   6690   6689   6703     1   111.5100476 526.347200
   6690   6689   6711     1   107.9700462 569.024000
   6693   6694   6695     1   111.5100476 526.347200
   6693   6694   6700     1   110.1900474 564.840000
   6693   6690   6702     1   110.1900474 564.840000
   6694   6695   6699     1   107.9700462 569.024000
   6694   6695   6711     1   107.9700462 569.024000
   6694   6693   6701     1   110.1900474 564.840000
   6695   6694   6700     1   110.1900474 564.840000
   6699   6695   6711     1   108.2900466 608.353600
   6703   6689   6711     1   107.9700462 569.024000
   6712   6713   6716     1   111.5100476 526.347200
   6712   6713   6725     1   110.1900474 564.840000
   6712   6726   6732     1   110.1900474 564.840000
   6712   6734   6718     1   112.4800480 524.673600
   6713   6712   6726     1   111.5100476 526.347200
   6713   6712   6734     1   107.9700462 569.024000
   6713   6716   6717     1   111.5100476 526.347200
   6713   6716   6724     1   110.1900474 564.840000
   6716   6713   6725     1   110.1900474 564.840000
   6716   6717   6718     1   111.5100476 526.347200
   6716   6717   6723     1   110.1900474 564.840000
   6717   6716   6724     1   110.1900474 564.840000
   6717   6718   6722     1   107.9700462 569.024000
   6717   6718   6734     1   107.9700462 569.024000
   6718   6717   6723     1   110.1900474 564.840000
   6722   6718   6734     1   108.2900466 608.353600
   6726   6712   6734     1   107.9700462 569.024000
   6735   6736   6739     1   111.5100476 526.347200
   6735   6736   6748     1   110.1900474 564.840000
   6735   6749   6755     1   110.1900474 564.840000
   6735   6757   6741     1   112.4800480 524.673600
   6736   6739   6740     1   111.5100476 526.347200
   6736   6739   6747     1   110.1900474 564.840000
   6736   6735   6749     1   111.5100476 526.347200
   6736   6735   6757     1   107.9700462 569.024000
   6739   6740   6741     1   111.5100476 526.347200
   6739   6740   6746     1   110.1900474 564.840000
   6739   6736   6748     1   110.1900474 564.840000
   6740   6741   6745     1   107.9700462 569.024000
   6740   6741   6757     1   107.9700462 569.024000
   6740   6739   6747     1   110.1900474 564.840000
   6741   6740   6746     1   110.1900474 564.840000
   6745   6741   6757     1   108.2900466 608.353600
   6749   6735   6757     1   107.9700462 569.024000
   6758   6759   6762     1   111.5100476 526.347200
   6758   6759   6771     1   110.1900474 564.840000
   6758   6772   6778     1   110.1900474 564.840000
   6758   6780   6764     1   112.4800480 524.673600
   6759   6758   6772     1   111.5100476 526.347200
   6759   6758   6780     1   107.9700462 569.024000
   6759   6762   6763     1   111.5100476 526.347200
   6759   6762   6770     1   110.1900474 564.840000
   6762   6759   6771     1   110.1900474 564.840000
   6762   6763   6764     1   111.5100476 526.347200
   6762   6763   6769     1   110.1900474 564.840000
   6763   6762   6770     1   110.1900474 564.840000
   6763   6764   6768     1   107.9700462 569.024000
   6763   6764   6780     1   107.9700462 569.024000
   6764   6763   6769     1   110.1900474 564.840000
   6768   6764   6780     1   108.2900466 608.353600
   6772   6758   6780     1   107.9700462 569.024000
   6781   6782   6785     1   111.5100476 526.347200
   6781   6782   6794     1   110.1900474 564.840000
   6781   6795   6801     1   110.1900474 564.840000
   6781   6803   6787     1   112.4800480 524.673600
   6782   6785   6786     1   111.5100476 526.347200
   6782   6785   6793     1   110.1900474 564.840000
   6782   6781   6795     1   111.5100476 526.347200
   6782   6781   6803     1   107.9700462 569.024000
   6785   6786   6787     1   111.5100476 526.347200
   6785   6786   6792     1   110.1900474 564.840000
   6785   6782   6794     1   110.1900474 564.840000
   6786   6787   6791     1   107.9700462 569.024000
   6786   6787   6803     1   107.9700462 569.024000
   6786   6785   6793     1   110.1900474 564.840000
   6787   6786   6792     1   110.1900474 564.840000
   6791   6787   6803     1   108.2900466 608.353600
   6795   6781   6803     1   107.9700462 569.024000
   6804   6805   6808     1   111.5100476 526.347200
   6804   6805   6817     1   110.1900474 564.840000
   6804   6818   6824     1   110.1900474 564.840000
   6804   6826   6810     1   112.4800480 524.673600
   6805   6804   6818     1   111.5100476 526.347200
   6805   6804   6826     1   107.9700462 569.024000
   6805   6808   6809     1   111.5100476 526.347200
   6805   6808   6816     1   110.1900474 564.840000
   6808   6805   6817     1   110.1900474 564.840000
   6808   6809   6810     1   111.5100476 526.347200
   6808   6809   6815     1   110.1900474 564.840000
   6809   6808   6816     1   110.1900474 564.840000
   6809   6810   6814     1   107.9700462 569.024000
   6809   6810   6826     1   107.9700462 569.024000
   6810   6809   6815     1   110.1900474 564.840000
   6814   6810   6826     1   108.2900466 608.353600
   6818   6804   6826     1   107.9700462 569.024000
   6827   6828   6831     1   111.5100476 526.347200
   6827   6828   6840     1   110.1900474 564.840000
   6827   6841   6847     1   110.1900474 564.840000
   6827   6849   6833     1   112.4800480 524.673600
   6828   6831   6832     1   111.5100476 526.347200
   6828   6831   6839     1   110.1900474 564.840000
   6828   6827   6841     1   111.5100476 526.347200
   6828   6827   6849     1   107.9700462 569.024000
   6831   6832   6833     1   111.5100476 526.347200
   6831   6832   6838     1   110.1900474 564.840000
   6831   6828   6840     1   110.1900474 564.840000
   6832   6833   6837     1   107.9700462 569.024000
   6832   6833   6849     1   107.9700462 569.024000
   6832   6831   6839     1   110.1900474 564.840000
   6833   6832   6838     1   110.1900474 564.840000
   6837   6833   6849     1   108.2900466 608.353600
   6841   6827   6849     1   107.9700462 569.024000
   6850   6851   6854     1   111.5100476 526.347200
   6850   6851   6863     1   110.1900474 564.840000
   6850   6864   6870     1   110.1900474 564.840000
   6850   6872   6856     1   112.4800480 524.673600
   6851   6850   6864     1   111.5100476 526.347200
   6851   6850   6872     1   107.9700462 569.024000
   6851   6854   6855     1   111.5100476 526.347200
   6851   6854   6862     1   110.1900474 564.840000
   6854   6851   6863     1   110.1900474 564.840000
   6854   6855   6856     1   111.5100476 526.347200
   6854   6855   6861     1   110.1900474 564.840000
   6855   6854   6862     1   110.1900474 564.840000
   6855   6856   6860     1   107.9700462 569.024000
   6855   6856   6872     1   107.9700462 569.024000
   6856   6855   6861     1   110.1900474 564.840000
   6860   6856   6872     1   108.2900466 608.353600
   6864   6850   6872     1   107.9700462 569.024000
   6873   6874   6877     1   111.5100476 526.347200
   6873   6874   6886     1   110.1900474 564.840000
   6873   6887   6893     1   110.1900474 564.840000
   6873   6895   6879     1   112.4800480 524.673600
   6874   6877   6878     1   111.5100476 526.347200
   6874   6877   6885     1   110.1900474 564.840000
   6874   6873   6887     1   111.5100476 526.347200
   6874   6873   6895     1   107.9700462 569.024000
   6877   6878   6879     1   111.5100476 526.347200
   6877   6878   6884     1   110.1900474 564.840000
   6877   6874   6886     1   110.1900474 564.840000
   6878   6879   6883     1   107.9700462 569.024000
   6878   6879   6895     1   107.9700462 569.024000
   6878   6877   6885     1   110.1900474 564.840000
   6879   6878   6884     1   110.1900474 564.840000
   6883   6879   6895     1   108.2900466 608.353600
   6887   6873   6895     1   107.9700462 569.024000
   6896   6897   6900     1   111.5100476 526.347200
   6896   6897   6909     1   110.1900474 564.840000
   6896   6910   6916     1   110.1900474 564.840000
   6896   6918   6902     1   112.4800480 524.673600
   6897   6896   6910     1   111.5100476 526.347200
   6897   6896   6918     1   107.9700462 569.024000
   6897   6900   6901     1   111.5100476 526.347200
   6897   6900   6908     1   110.1900474 564.840000
   6900   6897   6909     1   110.1900474 564.840000
   6900   6901   6902     1   111.5100476 526.347200
   6900   6901   6907     1   110.1900474 564.840000
   6901   6900   6908     1   110.1900474 564.840000
   6901   6902   6906     1   107.9700462 569.024000
   6901   6902   6918     1   107.9700462 569.024000
   6902   6901   6907     1   110.1900474 564.840000
   6906   6902   6918     1   108.2900466 608.353600
   6910   6896   6918     1   107.9700462 569.024000
   6919   6920   6923     1   111.5100476 526.347200
   6919   6920   6932     1   110.1900474 564.840000
   6919   6933   6939     1   110.1900474 564.840000
   6919   6941   6925     1   112.4800480 524.673600
   6920   6923   6924     1   111.5100476 526.347200
   6920   6923   6931     1   110.1900474 564.840000
   6920   6919   6933     1   111.5100476 526.347200
   6920   6919   6941     1   107.9700462 569.024000
   6923   6924   6925     1   111.5100476 526.347200
   6923   6924   6930     1   110.1900474 564.840000
   6923   6920   6932     1   110.1900474 564.840000
   6924   6925   6929     1   107.9700462 569.024000
   6924   6925   6941     1   107.9700462 569.024000
   6924   6923   6931     1   110.1900474 564.840000
   6925   6924   6930     1   110.1900474 564.840000
   6929   6925   6941     1   108.2900466 608.353600
   6933   6919   6941     1   107.9700462 569.024000
   6942   6943   6946     1   111.5100476 526.347200
   6942   6943   6955     1   110.1900474 564.840000
   6942   6956   6962     1   110.1900474 564.840000
   6942   6964   6948     1   112.4800480 524.673600
   6943   6942   6956     1   111.5100476 526.347200
   6943   6942   6964     1   107.9700462 569.024000
   6943   6946   6947     1   111.5100476 526.347200
   6943   6946   6954     1   110.1900474 564.840000
   6946   6943   6955     1   110.1900474 564.840000
   6946   6947   6948     1   111.5100476 526.347200
   6946   6947   6953     1   110.1900474 564.840000
   6947   6946   6954     1   110.1900474 564.840000
   6947   6948   6952     1   107.9700462 569.024000
   6947   6948   6964     1   107.9700462 569.024000
   6948   6947   6953     1   110.1900474 564.840000
   6952   6948   6964     1   108.2900466 608.353600
   6956   6942   6964     1   107.9700462 569.024000
   6965   6966   6969     1   111.5100476 526.347200
   6965   6966   6978     1   110.1900474 564.840000
   6965   6979   6985     1   110.1900474 564.840000
   6965   6987   6971     1   112.4800480 524.673600
   6966   6969   6970     1   111.5100476 526.347200
   6966   6969   6977     1   110.1900474 564.840000
   6966   6965   6979     1   111.5100476 526.347200
   6966   6965   6987     1   107.9700462 569.024000
   6969   6970   6971     1   111.5100476 526.347200
   6969   6970   6976     1   110.1900474 564.840000
   6969   6966   6978     1   110.1900474 564.840000
   6970   6971   6975     1   107.9700462 569.024000
   6970   6971   6987     1   107.9700462 569.024000
   6970   6969   6977     1   110.1900474 564.840000
   6971   6970   6976     1   110.1900474 564.840000
   6975   6971   6987     1   108.2900466 608.353600
   6979   6965   6987     1   107.9700462 569.024000
   6988   6989   6992     1   111.5100476 526.347200
   6988   6989   7001     1   110.1900474 564.840000
   6988   7002   7008     1   110.1900474 564.840000
   6988   7010   6994     1   112.4800480 524.673600
   6989   6988   7002     1   111.5100476 526.347200
   6989   6988   7010     1   107.9700462 569.024000
   6989   6992   6993     1   111.5100476 526.347200
   6989   6992   7000     1   110.1900474 564.840000
   6992   6989   7001     1   110.1900474 564.840000
   6992   6993   6994     1   111.5100476 526.347200
   6992   6993   6999     1   110.1900474 564.840000
   6993   6992   7000     1   110.1900474 564.840000
   6993   6994   6998     1   107.9700462 569.024000
   6993   6994   7010     1   107.9700462 569.024000
   6994   6993   6999     1   110.1900474 564.840000
   6998   6994   7010     1   108.2900466 608.353600
   7002   6988   7010     1   107.9700462 569.024000
   7011   7012   7015     1   111.5100476 526.347200
   7011   7012   7024     1   110.1900474 564.840000
   7011   7025   7031     1   110.1900474 564.840000
   7011   7033   7017     1   112.4800480 524.673600
   7012   7015   7016     1   111.5100476 526.347200
   7012   7015   7023     1   110.1900474 564.840000
   7012   7011   7025     1   111.5100476 526.347200
   7012   7011   7033     1   107.9700462 569.024000
   7015   7016   7017     1   111.5100476 526.347200
   7015   7016   7022     1   110.1900474 564.840000
   7015   7012   7024     1   110.1900474 564.840000
   7016   7017   7021     1   107.9700462 569.024000
   7016   7017   7033     1   107.9700462 569.024000
   7016   7015   7023     1   110.1900474 564.840000
   7017   7016   7022     1   110.1900474 564.840000
   7021   7017   7033     1   108.2900466 608.353600
   7025   7011   7033     1   107.9700462 569.024000
   7034   7035   7038     1   111.5100476 526.347200
   7034   7035   7047     1   110.1900474 564.840000
   7034   7048   7054     1   110.1900474 564.840000
   7034   7056   7040     1   112.4800480 524.673600
   7035   7034   7048     1   111.5100476 526.347200
   7035   7034   7056     1   107.9700462 569.024000
   7035   7038   7039     1   111.5100476 526.347200
   7035   7038   7046     1   110.1900474 564.840000
   7038   7035   7047     1   110.1900474 564.840000
   7038   7039   7040     1   111.5100476 526.347200
   7038   7039   7045     1   110.1900474 564.840000
   7039   7038   7046     1   110.1900474 564.840000
   7039   7040   7044     1   107.9700462 569.024000
   7039   7040   7056     1   107.9700462 569.024000
   7040   7039   7045     1   110.1900474 564.840000
   7044   7040   7056     1   108.2900466 608.353600
   7048   7034   7056     1   107.9700462 569.024000
   7057   7058   7061     1   111.5100476 526.347200
   7057   7058   7070     1   110.1900474 564.840000
   7057   7071   7077     1   110.1900474 564.840000
   7057   7079   7063     1   112.4800480 524.673600
   7058   7061   7062     1   111.5100476 526.347200
   7058   7061   7069     1   110.1900474 564.840000
   7058   7057   7071     1   111.5100476 526.347200
   7058   7057   7079     1   107.9700462 569.024000
   7061   7062   7063     1   111.5100476 526.347200
   7061   7062   7068     1   110.1900474 564.840000
   7061   7058   7070     1   110.1900474 564.840000
   7062   7063   7067     1   107.9700462 569.024000
   7062   7063   7079     1   107.9700462 569.024000
   7062   7061   7069     1   110.1900474 564.840000
   7063   7062   7068     1   110.1900474 564.840000
   7067   7063   7079     1   108.2900466 608.353600
   7071   7057   7079     1   107.9700462 569.024000
   7080   7081   7084     1   111.5100476 526.347200
   7080   7081   7093     1   110.1900474 564.840000
   7080   7094   7100     1   110.1900474 564.840000
   7080   7102   7086     1   112.4800480 524.673600
   7081   7080   7094     1   111.5100476 526.347200
   7081   7080   7102     1   107.9700462 569.024000
   7081   7084   7085     1   111.5100476 526.347200
   7081   7084   7092     1   110.1900474 564.840000
   7084   7081   7093     1   110.1900474 564.840000
   7084   7085   7086     1   111.5100476 526.347200
   7084   7085   7091     1   110.1900474 564.840000
   7085   7084   7092     1   110.1900474 564.840000
   7085   7086   7090     1   107.9700462 569.024000
   7085   7086   7102     1   107.9700462 569.024000
   7086   7085   7091     1   110.1900474 564.840000
   7090   7086   7102     1   108.2900466 608.353600
   7094   7080   7102     1   107.9700462 569.024000
   7103   7104   7107     1   111.5100476 526.347200
   7103   7104   7116     1   110.1900474 564.840000
   7103   7117   7123     1   110.1900474 564.840000
   7103   7125   7109     1   112.4800480 524.673600
   7104   7107   7108     1   111.5100476 526.347200
   7104   7107   7115     1   110.1900474 564.840000
   7104   7103   7117     1   111.5100476 526.347200
   7104   7103   7125     1   107.9700462 569.024000
   7107   7108   7109     1   111.5100476 526.347200
   7107   7108   7114     1   110.1900474 564.840000
   7107   7104   7116     1   110.1900474 564.840000
   7108   7109   7113     1   107.9700462 569.024000
   7108   7109   7125     1   107.9700462 569.024000
   7108   7107   7115     1   110.1900474 564.840000
   7109   7108   7114     1   110.1900474 564.840000
   7113   7109   7125     1   108.2900466 608.353600
   7117   7103   7125     1   107.9700462 569.024000
   7126   7127   7130     1   111.5100476 526.347200
   7126   7127   7139     1   110.1900474 564.840000
   7126   7140   7146     1   110.1900474 564.840000
   7126   7148   7132     1   112.4800480 524.673600
   7127   7126   7140     1   111.5100476 526.347200
   7127   7126   7148     1   107.9700462 569.024000
   7127   7130   7131     1   111.5100476 526.347200
   7127   7130   7138     1   110.1900474 564.840000
   7130   7127   7139     1   110.1900474 564.840000
   7130   7131   7132     1   111.5100476 526.347200
   7130   7131   7137     1   110.1900474 564.840000
   7131   7130   7138     1   110.1900474 564.840000
   7131   7132   7136     1   107.9700462 569.024000
   7131   7132   7148     1   107.9700462 569.024000
   7132   7131   7137     1   110.1900474 564.840000
   7136   7132   7148     1   108.2900466 608.353600
   7140   7126   7148     1   107.9700462 569.024000
   7149   7150   7153     1   111.5100476 526.347200
   7149   7150   7162     1   110.1900474 564.840000
   7149   7163   7169     1   110.1900474 564.840000
   7149   7171   7155     1   112.4800480 524.673600
   7150   7153   7154     1   111.5100476 526.347200
   7150   7153   7161     1   110.1900474 564.840000
   7150   7149   7163     1   111.5100476 526.347200
   7150   7149   7171     1   107.9700462 569.024000
   7153   7154   7155     1   111.5100476 526.347200
   7153   7154   7160     1   110.1900474 564.840000
   7153   7150   7162     1   110.1900474 564.840000
   7154   7155   7159     1   107.9700462 569.024000
   7154   7155   7171     1   107.9700462 569.024000
   7154   7153   7161     1   110.1900474 564.840000
   7155   7154   7160     1   110.1900474 564.840000
   7159   7155   7171     1   108.2900466 608.353600
   7163   7149   7171     1   107.9700462 569.024000
   7172   7173   7176     1   111.5100476 526.347200
   7172   7173   7185     1   110.1900474 564.840000
   7172   7186   7192     1   110.1900474 564.840000
   7172   7194   7178     1   112.4800480 524.673600
   7173   7172   7186     1   111.5100476 526.347200
   7173   7172   7194     1   107.9700462 569.024000
   7173   7176   7177     1   111.5100476 526.347200
   7173   7176   7184     1   110.1900474 564.840000
   7176   7173   7185     1   110.1900474 564.840000
   7176   7177   7178     1   111.5100476 526.347200
   7176   7177   7183     1   110.1900474 564.840000
   7177   7176   7184     1   110.1900474 564.840000
   7177   7178   7182     1   107.9700462 569.024000
   7177   7178   7194     1   107.9700462 569.024000
   7178   7177   7183     1   110.1900474 564.840000
   7182   7178   7194     1   108.2900466 608.353600
   7186   7172   7194     1   107.9700462 569.024000
   7195   7196   7199     1   111.5100476 526.347200
   7195   7196   7208     1   110.1900474 564.840000
   7195   7209   7215     1   110.1900474 564.840000
   7195   7217   7201     1   112.4800480 524.673600
   7196   7199   7200     1   111.5100476 526.347200
   7196   7199   7207     1   110.1900474 564.840000
   7196   7195   7209     1   111.5100476 526.347200
   7196   7195   7217     1   107.9700462 569.024000
   7199   7200   7201     1   111.5100476 526.347200
   7199   7200   7206     1   110.1900474 564.840000
   7199   7196   7208     1   110.1900474 564.840000
   7200   7201   7205     1   107.9700462 569.024000
   7200   7201   7217     1   107.9700462 569.024000
   7200   7199   7207     1   110.1900474 564.840000
   7201   7200   7206     1   110.1900474 564.840000
   7205   7201   7217     1   108.2900466 608.353600
   7209   7195   7217     1   107.9700462 569.024000
   7218   7219   7222     1   111.5100476 526.347200
   7218   7219   7231     1   110.1900474 564.840000
   7218   7232   7238     1   110.1900474 564.840000
   7218   7240   7224     1   112.4800480 524.673600
   7219   7218   7232     1   111.5100476 526.347200
   7219   7218   7240     1   107.9700462 569.024000
   7219   7222   7223     1   111.5100476 526.347200
   7219   7222   7230     1   110.1900474 564.840000
   7222   7219   7231     1   110.1900474 564.840000
   7222   7223   7224     1   111.5100476 526.347200
   7222   7223   7229     1   110.1900474 564.840000
   7223   7222   7230     1   110.1900474 564.840000
   7223   7224   7228     1   107.9700462 569.024000
   7223   7224   7240     1   107.9700462 569.024000
   7224   7223   7229     1   110.1900474 564.840000
   7228   7224   7240     1   108.2900466 608.353600
   7232   7218   7240     1   107.9700462 569.024000
   7241   7242   7245     1   111.5100476 526.347200
   7241   7242   7254     1   110.1900474 564.840000
   7241   7255   7261     1   110.1900474 564.840000
   7241   7263   7247     1   112.4800480 524.673600
   7242   7245   7246     1   111.5100476 526.347200
   7242   7245   7253     1   110.1900474 564.840000
   7242   7241   7255     1   111.5100476 526.347200
   7242   7241   7263     1   107.9700462 569.024000
   7245   7246   7247     1   111.5100476 526.347200
   7245   7246   7252     1   110.1900474 564.840000
   7245   7242   7254     1   110.1900474 564.840000
   7246   7247   7251     1   107.9700462 569.024000
   7246   7247   7263     1   107.9700462 569.024000
   7246   7245   7253     1   110.1900474 564.840000
   7247   7246   7252     1   110.1900474 564.840000
   7251   7247   7263     1   108.2900466 608.353600
   7255   7241   7263     1   107.9700462 569.024000
   7264   7265   7268     1   111.5100476 526.347200
   7264   7265   7277     1   110.1900474 564.840000
   7264   7278   7284     1   110.1900474 564.840000
   7264   7286   7270     1   112.4800480 524.673600
   7265   7264   7278     1   111.5100476 526.347200
   7265   7264   7286     1   107.9700462 569.024000
   7265   7268   7269     1   111.5100476 526.347200
   7265   7268   7276     1   110.1900474 564.840000
   7268   7265   7277     1   110.1900474 564.840000
   7268   7269   7270     1   111.5100476 526.347200
   7268   7269   7275     1   110.1900474 564.840000
   7269   7268   7276     1   110.1900474 564.840000
   7269   7270   7274     1   107.9700462 569.024000
   7269   7270   7286     1   107.9700462 569.024000
   7270   7269   7275     1   110.1900474 564.840000
   7274   7270   7286     1   108.2900466 608.353600
   7278   7264   7286     1   107.9700462 569.024000
   7287   7288   7291     1   111.5100476 526.347200
   7287   7288   7300     1   110.1900474 564.840000
   7287   7301   7307     1   110.1900474 564.840000
   7287   7309   7293     1   112.4800480 524.673600
   7288   7291   7292     1   111.5100476 526.347200
   7288   7291   7299     1   110.1900474 564.840000
   7288   7287   7301     1   111.5100476 526.347200
   7288   7287   7309     1   107.9700462 569.024000
   7291   7292   7293     1   111.5100476 526.347200
   7291   7292   7298     1   110.1900474 564.840000
   7291   7288   7300     1   110.1900474 564.840000
   7292   7293   7297     1   107.9700462 569.024000
   7292   7293   7309     1   107.9700462 569.024000
   7292   7291   7299     1   110.1900474 564.840000
   7293   7292   7298     1   110.1900474 564.840000
   7297   7293   7309     1   108.2900466 608.353600
   7301   7287   7309     1   107.9700462 569.024000
   7310   7311   7314     1   111.5100476 526.347200
   7310   7311   7323     1   110.1900474 564.840000
   7310   7324   7330     1   110.1900474 564.840000
   7310   7332   7316     1   112.4800480 524.673600
   7311   7310   7324     1   111.5100476 526.347200
   7311   7310   7332     1   107.9700462 569.024000
   7311   7314   7315     1   111.5100476 526.347200
   7311   7314   7322     1   110.1900474 564.840000
   7314   7311   7323     1   110.1900474 564.840000
   7314   7315   7316     1   111.5100476 526.347200
   7314   7315   7321     1   110.1900474 564.840000
   7315   7314   7322     1   110.1900474 564.840000
   7315   7316   7320     1   107.9700462 569.024000
   7315   7316   7332     1   107.9700462 569.024000
   7316   7315   7321     1   110.1900474 564.840000
   7320   7316   7332     1   108.2900466 608.353600
   7324   7310   7332     1   107.9700462 569.024000
   7333   7334   7337     1   111.5100476 526.347200
   7333   7334   7346     1   110.1900474 564.840000
   7333   7347   7353     1   110.1900474 564.840000
   7333   7355   7339     1   112.4800480 524.673600
   7334   7337   7338     1   111.5100476 526.347200
   7334   7337   7345     1   110.1900474 564.840000
   7334   7333   7347     1   111.5100476 526.347200
   7334   7333   7355     1   107.9700462 569.024000
   7337   7338   7339     1   111.5100476 526.347200
   7337   7338   7344     1   110.1900474 564.840000
   7337   7334   7346     1   110.1900474 564.840000
   7338   7339   7343     1   107.9700462 569.024000
   7338   7339   7355     1   107.9700462 569.024000
   7338   7337   7345     1   110.1900474 564.840000
   7339   7338   7344     1   110.1900474 564.840000
   7343   7339   7355     1   108.2900466 608.353600
   7347   7333   7355     1   107.9700462 569.024000
   7356   7357   7360     1   111.5100476 526.347200
   7356   7357   7369     1   110.1900474 564.840000
   7356   7370   7376     1   110.1900474 564.840000
   7356   7378   7362     1   112.4800480 524.673600
   7357   7356   7370     1   111.5100476 526.347200
   7357   7356   7378     1   107.9700462 569.024000
   7357   7360   7361     1   111.5100476 526.347200
   7357   7360   7368     1   110.1900474 564.840000
   7360   7357   7369     1   110.1900474 564.840000
   7360   7361   7362     1   111.5100476 526.347200
   7360   7361   7367     1   110.1900474 564.840000
   7361   7360   7368     1   110.1900474 564.840000
   7361   7362   7366     1   107.9700462 569.024000
   7361   7362   7378     1   107.9700462 569.024000
   7362   7361   7367     1   110.1900474 564.840000
   7366   7362   7378     1   108.2900466 608.353600
   7370   7356   7378     1   107.9700462 569.024000
   7379   7380   7383     1   111.5100476 526.347200
   7379   7380   7392     1   110.1900474 564.840000
   7379   7393   7399     1   110.1900474 564.840000
   7379   7401   7385     1   112.4800480 524.673600
   7380   7383   7384     1   111.5100476 526.347200
   7380   7383   7391     1   110.1900474 564.840000
   7380   7379   7393     1   111.5100476 526.347200
   7380   7379   7401     1   107.9700462 569.024000
   7383   7384   7385     1   111.5100476 526.347200
   7383   7384   7390     1   110.1900474 564.840000
   7383   7380   7392     1   110.1900474 564.840000
   7384   7385   7389     1   107.9700462 569.024000
   7384   7385   7401     1   107.9700462 569.024000
   7384   7383   7391     1   110.1900474 564.840000
   7385   7384   7390     1   110.1900474 564.840000
   7389   7385   7401     1   108.2900466 608.353600
   7393   7379   7401     1   107.9700462 569.024000
   7402   7403   7406     1   111.5100476 526.347200
   7402   7403   7415     1   110.1900474 564.840000
   7402   7416   7422     1   110.1900474 564.840000
   7402   7424   7408     1   112.4800480 524.673600
   7403   7402   7416     1   111.5100476 526.347200
   7403   7402   7424     1   107.9700462 569.024000
   7403   7406   7407     1   111.5100476 526.347200
   7403   7406   7414     1   110.1900474 564.840000
   7406   7403   7415     1   110.1900474 564.840000
   7406   7407   7408     1   111.5100476 526.347200
   7406   7407   7413     1   110.1900474 564.840000
   7407   7406   7414     1   110.1900474 564.840000
   7407   7408   7412     1   107.9700462 569.024000
   7407   7408   7424     1   107.9700462 569.024000
   7408   7407   7413     1   110.1900474 564.840000
   7412   7408   7424     1   108.2900466 608.353600
   7416   7402   7424     1   107.9700462 569.024000
   7425   7426   7429     1   111.5100476 526.347200
   7425   7426   7438     1   110.1900474 564.840000
   7425   7439   7445     1   110.1900474 564.840000
   7425   7447   7431     1   112.4800480 524.673600
   7426   7429   7430     1   111.5100476 526.347200
   7426   7429   7437     1   110.1900474 564.840000
   7426   7425   7439     1   111.5100476 526.347200
   7426   7425   7447     1   107.9700462 569.024000
   7429   7430   7431     1   111.5100476 526.347200
   7429   7430   7436     1   110.1900474 564.840000
   7429   7426   7438     1   110.1900474 564.840000
   7430   7431   7435     1   107.9700462 569.024000
   7430   7431   7447     1   107.9700462 569.024000
   7430   7429   7437     1   110.1900474 564.840000
   7431   7430   7436     1   110.1900474 564.840000
   7435   7431   7447     1   108.2900466 608.353600
   7439   7425   7447     1   107.9700462 569.024000
   7448   7449   7452     1   111.5100476 526.347200
   7448   7449   7461     1   110.1900474 564.840000
   7448   7462   7468     1   110.1900474 564.840000
   7448   7470   7454     1   112.4800480 524.673600
   7449   7448   7462     1   111.5100476 526.347200
   7449   7448   7470     1   107.9700462 569.024000
   7449   7452   7453     1   111.5100476 526.347200
   7449   7452   7460     1   110.1900474 564.840000
   7452   7449   7461     1   110.1900474 564.840000
   7452   7453   7454     1   111.5100476 526.347200
   7452   7453   7459     1   110.1900474 564.840000
   7453   7452   7460     1   110.1900474 564.840000
   7453   7454   7458     1   107.9700462 569.024000
   7453   7454   7470     1   107.9700462 569.024000
   7454   7453   7459     1   110.1900474 564.840000
   7458   7454   7470     1   108.2900466 608.353600
   7462   7448   7470     1   107.9700462 569.024000
   7471   7472   7475     1   111.5100476 526.347200
   7471   7472   7484     1   110.1900474 564.840000
   7471   7485   7491     1   110.1900474 564.840000
   7471   7493   7477     1   112.4800480 524.673600
   7472   7475   7476     1   111.5100476 526.347200
   7472   7475   7483     1   110.1900474 564.840000
   7472   7471   7485     1   111.5100476 526.347200
   7472   7471   7493     1   107.9700462 569.024000
   7475   7476   7477     1   111.5100476 526.347200
   7475   7476   7482     1   110.1900474 564.840000
   7475   7472   7484     1   110.1900474 564.840000
   7476   7477   7481     1   107.9700462 569.024000
   7476   7477   7493     1   107.9700462 569.024000
   7476   7475   7483     1   110.1900474 564.840000
   7477   7476   7482     1   110.1900474 564.840000
   7481   7477   7493     1   108.2900466 608.353600
   7485   7471   7493     1   107.9700462 569.024000
   7494   7495   7498     1   111.5100476 526.347200
   7494   7495   7507     1   110.1900474 564.840000
   7494   7508   7514     1   110.1900474 564.840000
   7494   7516   7500     1   112.4800480 524.673600
   7495   7494   7508     1   111.5100476 526.347200
   7495   7494   7516     1   107.9700462 569.024000
   7495   7498   7499     1   111.5100476 526.347200
   7495   7498   7506     1   110.1900474 564.840000
   7498   7495   7507     1   110.1900474 564.840000
   7498   7499   7500     1   111.5100476 526.347200
   7498   7499   7505     1   110.1900474 564.840000
   7499   7498   7506     1   110.1900474 564.840000
   7499   7500   7504     1   107.9700462 569.024000
   7499   7500   7516     1   107.9700462 569.024000
   7500   7499   7505     1   110.1900474 564.840000
   7504   7500   7516     1   108.2900466 608.353600
   7508   7494   7516     1   107.9700462 569.024000
   7517   7518   7521     1   111.5100476 526.347200
   7517   7518   7530     1   110.1900474 564.840000
   7517   7531   7537     1   110.1900474 564.840000
   7517   7539   7523     1   112.4800480 524.673600
   7518   7521   7522     1   111.5100476 526.347200
   7518   7521   7529     1   110.1900474 564.840000
   7518   7517   7531     1   111.5100476 526.347200
   7518   7517   7539     1   107.9700462 569.024000
   7521   7522   7523     1   111.5100476 526.347200
   7521   7522   7528     1   110.1900474 564.840000
   7521   7518   7530     1   110.1900474 564.840000
   7522   7523   7527     1   107.9700462 569.024000
   7522   7523   7539     1   107.9700462 569.024000
   7522   7521   7529     1   110.1900474 564.840000
   7523   7522   7528     1   110.1900474 564.840000
   7527   7523   7539     1   108.2900466 608.353600
   7531   7517   7539     1   107.9700462 569.024000
   7540   7541   7544     1   111.5100476 526.347200
   7540   7541   7553     1   110.1900474 564.840000
   7540   7554   7560     1   110.1900474 564.840000
   7540   7562   7546     1   112.4800480 524.673600
   7541   7540   7554     1   111.5100476 526.347200
   7541   7540   7562     1   107.9700462 569.024000
   7541   7544   7545     1   111.5100476 526.347200
   7541   7544   7552     1   110.1900474 564.840000
   7544   7541   7553     1   110.1900474 564.840000
   7544   7545   7546     1   111.5100476 526.347200
   7544   7545   7551     1   110.1900474 564.840000
   7545   7544   7552     1   110.1900474 564.840000
   7545   7546   7550     1   107.9700462 569.024000
   7545   7546   7562     1   107.9700462 569.024000
   7546   7545   7551     1   110.1900474 564.840000
   7550   7546   7562     1   108.2900466 608.353600
   7554   7540   7562     1   107.9700462 569.024000
   7563   7564   7567     1   111.5100476 526.347200
   7563   7564   7576     1   110.1900474 564.840000
   7563   7577   7583     1   110.1900474 564.840000
   7563   7585   7569     1   112.4800480 524.673600
   7564   7567   7568     1   111.5100476 526.347200
   7564   7567   7575     1   110.1900474 564.840000
   7564   7563   7577     1   111.5100476 526.347200
   7564   7563   7585     1   107.9700462 569.024000
   7567   7568   7569     1   111.5100476 526.347200
   7567   7568   7574     1   110.1900474 564.840000
   7567   7564   7576     1   110.1900474 564.840000
   7568   7569   7573     1   107.9700462 569.024000
   7568   7569   7585     1   107.9700462 569.024000
   7568   7567   7575     1   110.1900474 564.840000
   7569   7568   7574     1   110.1900474 564.840000
   7573   7569   7585     1   108.2900466 608.353600
   7577   7563   7585     1   107.9700462 569.024000
   7586   7587   7590     1   111.5100476 526.347200
   7586   7587   7599     1   110.1900474 564.840000
   7586   7600   7606     1   110.1900474 564.840000
   7586   7608   7592     1   112.4800480 524.673600
   7587   7586   7600     1   111.5100476 526.347200
   7587   7586   7608     1   107.9700462 569.024000
   7587   7590   7591     1   111.5100476 526.347200
   7587   7590   7598     1   110.1900474 564.840000
   7590   7587   7599     1   110.1900474 564.840000
   7590   7591   7592     1   111.5100476 526.347200
   7590   7591   7597     1   110.1900474 564.840000
   7591   7590   7598     1   110.1900474 564.840000
   7591   7592   7596     1   107.9700462 569.024000
   7591   7592   7608     1   107.9700462 569.024000
   7592   7591   7597     1   110.1900474 564.840000
   7596   7592   7608     1   108.2900466 608.353600
   7600   7586   7608     1   107.9700462 569.024000
   7609   7610   7613     1   111.5100476 526.347200
   7609   7610   7622     1   110.1900474 564.840000
   7609   7623   7629     1   110.1900474 564.840000
   7609   7631   7615     1   112.4800480 524.673600
   7610   7613   7614     1   111.5100476 526.347200
   7610   7613   7621     1   110.1900474 564.840000
   7610   7609   7623     1   111.5100476 526.347200
   7610   7609   7631     1   107.9700462 569.024000
   7613   7614   7615     1   111.5100476 526.347200
   7613   7614   7620     1   110.1900474 564.840000
   7613   7610   7622     1   110.1900474 564.840000
   7614   7615   7619     1   107.9700462 569.024000
   7614   7615   7631     1   107.9700462 569.024000
   7614   7613   7621     1   110.1900474 564.840000
   7615   7614   7620     1   110.1900474 564.840000
   7619   7615   7631     1   108.2900466 608.353600
   7623   7609   7631     1   107.9700462 569.024000
   7632   7633   7636     1   111.5100476 526.347200
   7632   7633   7645     1   110.1900474 564.840000
   7632   7646   7652     1   110.1900474 564.840000
   7632   7654   7638     1   112.4800480 524.673600
   7633   7632   7646     1   111.5100476 526.347200
   7633   7632   7654     1   107.9700462 569.024000
   7633   7636   7637     1   111.5100476 526.347200
   7633   7636   7644     1   110.1900474 564.840000
   7636   7633   7645     1   110.1900474 564.840000
   7636   7637   7638     1   111.5100476 526.347200
   7636   7637   7643     1   110.1900474 564.840000
   7637   7636   7644     1   110.1900474 564.840000
   7637   7638   7642     1   107.9700462 569.024000
   7637   7638   7654     1   107.9700462 569.024000
   7638   7637   7643     1   110.1900474 564.840000
   7642   7638   7654     1   108.2900466 608.353600
   7646   7632   7654     1   107.9700462 569.024000
   7655   7656   7659     1   111.5100476 526.347200
   7655   7656   7668     1   110.1900474 564.840000
   7655   7669   7675     1   110.1900474 564.840000
   7655   7677   7661     1   112.4800480 524.673600
   7656   7659   7660     1   111.5100476 526.347200
   7656   7659   7667     1   110.1900474 564.840000
   7656   7655   7669     1   111.5100476 526.347200
   7656   7655   7677     1   107.9700462 569.024000
   7659   7660   7661     1   111.5100476 526.347200
   7659   7660   7666     1   110.1900474 564.840000
   7659   7656   7668     1   110.1900474 564.840000
   7660   7661   7665     1   107.9700462 569.024000
   7660   7661   7677     1   107.9700462 569.024000
   7660   7659   7667     1   110.1900474 564.840000
   7661   7660   7666     1   110.1900474 564.840000
   7665   7661   7677     1   108.2900466 608.353600
   7669   7655   7677     1   107.9700462 569.024000
   7678   7679   7682     1   111.5100476 526.347200
   7678   7679   7691     1   110.1900474 564.840000
   7678   7692   7698     1   110.1900474 564.840000
   7678   7700   7684     1   112.4800480 524.673600
   7679   7678   7692     1   111.5100476 526.347200
   7679   7678   7700     1   107.9700462 569.024000
   7679   7682   7683     1   111.5100476 526.347200
   7679   7682   7690     1   110.1900474 564.840000
   7682   7679   7691     1   110.1900474 564.840000
   7682   7683   7684     1   111.5100476 526.347200
   7682   7683   7689     1   110.1900474 564.840000
   7683   7682   7690     1   110.1900474 564.840000
   7683   7684   7688     1   107.9700462 569.024000
   7683   7684   7700     1   107.9700462 569.024000
   7684   7683   7689     1   110.1900474 564.840000
   7688   7684   7700     1   108.2900466 608.353600
   7692   7678   7700     1   107.9700462 569.024000
   7701   7702   7705     1   111.5100476 526.347200
   7701   7702   7714     1   110.1900474 564.840000
   7701   7715   7721     1   110.1900474 564.840000
   7701   7723   7707     1   112.4800480 524.673600
   7702   7705   7706     1   111.5100476 526.347200
   7702   7705   7713     1   110.1900474 564.840000
   7702   7701   7715     1   111.5100476 526.347200
   7702   7701   7723     1   107.9700462 569.024000
   7705   7706   7707     1   111.5100476 526.347200
   7705   7706   7712     1   110.1900474 564.840000
   7705   7702   7714     1   110.1900474 564.840000
   7706   7707   7711     1   107.9700462 569.024000
   7706   7707   7723     1   107.9700462 569.024000
   7706   7705   7713     1   110.1900474 564.840000
   7707   7706   7712     1   110.1900474 564.840000
   7711   7707   7723     1   108.2900466 608.353600
   7715   7701   7723     1   107.9700462 569.024000
   7724   7725   7728     1   111.5100476 526.347200
   7724   7725   7737     1   110.1900474 564.840000
   7724   7738   7744     1   110.1900474 564.840000
   7724   7746   7730     1   112.4800480 524.673600
   7725   7724   7738     1   111.5100476 526.347200
   7725   7724   7746     1   107.9700462 569.024000
   7725   7728   7729     1   111.5100476 526.347200
   7725   7728   7736     1   110.1900474 564.840000
   7728   7725   7737     1   110.1900474 564.840000
   7728   7729   7730     1   111.5100476 526.347200
   7728   7729   7735     1   110.1900474 564.840000
   7729   7728   7736     1   110.1900474 564.840000
   7729   7730   7734     1   107.9700462 569.024000
   7729   7730   7746     1   107.9700462 569.024000
   7730   7729   7735     1   110.1900474 564.840000
   7734   7730   7746     1   108.2900466 608.353600
   7738   7724   7746     1   107.9700462 569.024000
   7747   7748   7751     1   111.5100476 526.347200
   7747   7748   7760     1   110.1900474 564.840000
   7747   7761   7767     1   110.1900474 564.840000
   7747   7769   7753     1   112.4800480 524.673600
   7748   7751   7752     1   111.5100476 526.347200
   7748   7751   7759     1   110.1900474 564.840000
   7748   7747   7761     1   111.5100476 526.347200
   7748   7747   7769     1   107.9700462 569.024000
   7751   7752   7753     1   111.5100476 526.347200
   7751   7752   7758     1   110.1900474 564.840000
   7751   7748   7760     1   110.1900474 564.840000
   7752   7753   7757     1   107.9700462 569.024000
   7752   7753   7769     1   107.9700462 569.024000
   7752   7751   7759     1   110.1900474 564.840000
   7753   7752   7758     1   110.1900474 564.840000
   7757   7753   7769     1   108.2900466 608.353600
   7761   7747   7769     1   107.9700462 569.024000
   7770   7771   7774     1   111.5100476 526.347200
   7770   7771   7783     1   110.1900474 564.840000
   7770   7784   7790     1   110.1900474 564.840000
   7770   7792   7776     1   112.4800480 524.673600
   7771   7770   7784     1   111.5100476 526.347200
   7771   7770   7792     1   107.9700462 569.024000
   7771   7774   7775     1   111.5100476 526.347200
   7771   7774   7782     1   110.1900474 564.840000
   7774   7771   7783     1   110.1900474 564.840000
   7774   7775   7776     1   111.5100476 526.347200
   7774   7775   7781     1   110.1900474 564.840000
   7775   7774   7782     1   110.1900474 564.840000
   7775   7776   7780     1   107.9700462 569.024000
   7775   7776   7792     1   107.9700462 569.024000
   7776   7775   7781     1   110.1900474 564.840000
   7780   7776   7792     1   108.2900466 608.353600
   7784   7770   7792     1   107.9700462 569.024000
   7793   7794   7797     1   111.5100476 526.347200
   7793   7794   7806     1   110.1900474 564.840000
   7793   7807   7813     1   110.1900474 564.840000
   7793   7815   7799     1   112.4800480 524.673600
   7794   7797   7798     1   111.5100476 526.347200
   7794   7797   7805     1   110.1900474 564.840000
   7794   7793   7807     1   111.5100476 526.347200
   7794   7793   7815     1   107.9700462 569.024000
   7797   7798   7799     1   111.5100476 526.347200
   7797   7798   7804     1   110.1900474 564.840000
   7797   7794   7806     1   110.1900474 564.840000
   7798   7799   7803     1   107.9700462 569.024000
   7798   7799   7815     1   107.9700462 569.024000
   7798   7797   7805     1   110.1900474 564.840000
   7799   7798   7804     1   110.1900474 564.840000
   7803   7799   7815     1   108.2900466 608.353600
   7807   7793   7815     1   107.9700462 569.024000
   7816   7817   7820     1   111.5100476 526.347200
   7816   7817   7829     1   110.1900474 564.840000
   7816   7830   7836     1   110.1900474 564.840000
   7816   7838   7822     1   112.4800480 524.673600
   7817   7816   7830     1   111.5100476 526.347200
   7817   7816   7838     1   107.9700462 569.024000
   7817   7820   7821     1   111.5100476 526.347200
   7817   7820   7828     1   110.1900474 564.840000
   7820   7817   7829     1   110.1900474 564.840000
   7820   7821   7822     1   111.5100476 526.347200
   7820   7821   7827     1   110.1900474 564.840000
   7821   7820   7828     1   110.1900474 564.840000
   7821   7822   7826     1   107.9700462 569.024000
   7821   7822   7838     1   107.9700462 569.024000
   7822   7821   7827     1   110.1900474 564.840000
   7826   7822   7838     1   108.2900466 608.353600
   7830   7816   7838     1   107.9700462 569.024000
   7839   7840   7843     1   111.5100476 526.347200
   7839   7840   7852     1   110.1900474 564.840000
   7839   7853   7859     1   110.1900474 564.840000
   7839   7861   7845     1   112.4800480 524.673600
   7840   7843   7844     1   111.5100476 526.347200
   7840   7843   7851     1   110.1900474 564.840000
   7840   7839   7853     1   111.5100476 526.347200
   7840   7839   7861     1   107.9700462 569.024000
   7843   7844   7845     1   111.5100476 526.347200
   7843   7844   7850     1   110.1900474 564.840000
   7843   7840   7852     1   110.1900474 564.840000
   7844   7845   7849     1   107.9700462 569.024000
   7844   7845   7861     1   107.9700462 569.024000
   7844   7843   7851     1   110.1900474 564.840000
   7845   7844   7850     1   110.1900474 564.840000
   7849   7845   7861     1   108.2900466 608.353600
   7853   7839   7861     1   107.9700462 569.024000
   7862   7863   7866     1   111.5100476 526.347200
   7862   7863   7875     1   110.1900474 564.840000
   7862   7876   7882     1   110.1900474 564.840000
   7862   7884   7868     1   112.4800480 524.673600
   7863   7862   7876     1   111.5100476 526.347200
   7863   7862   7884     1   107.9700462 569.024000
   7863   7866   7867     1   111.5100476 526.347200
   7863   7866   7874     1   110.1900474 564.840000
   7866   7863   7875     1   110.1900474 564.840000
   7866   7867   7868     1   111.5100476 526.347200
   7866   7867   7873     1   110.1900474 564.840000
   7867   7866   7874     1   110.1900474 564.840000
   7867   7868   7872     1   107.9700462 569.024000
   7867   7868   7884     1   107.9700462 569.024000
   7868   7867   7873     1   110.1900474 564.840000
   7872   7868   7884     1   108.2900466 608.353600
   7876   7862   7884     1   107.9700462 569.024000
   7885   7886   7889     1   111.5100476 526.347200
   7885   7886   7898     1   110.1900474 564.840000
   7885   7899   7905     1   110.1900474 564.840000
   7885   7907   7891     1   112.4800480 524.673600
   7886   7889   7890     1   111.5100476 526.347200
   7886   7889   7897     1   110.1900474 564.840000
   7886   7885   7899     1   111.5100476 526.347200
   7886   7885   7907     1   107.9700462 569.024000
   7889   7890   7891     1   111.5100476 526.347200
   7889   7890   7896     1   110.1900474 564.840000
   7889   7886   7898     1   110.1900474 564.840000
   7890   7891   7895     1   107.9700462 569.024000
   7890   7891   7907     1   107.9700462 569.024000
   7890   7889   7897     1   110.1900474 564.840000
   7891   7890   7896     1   110.1900474 564.840000
   7895   7891   7907     1   108.2900466 608.353600
   7899   7885   7907     1   107.9700462 569.024000
   7908   7909   7912     1   111.5100476 526.347200
   7908   7909   7921     1   110.1900474 564.840000
   7908   7922   7928     1   110.1900474 564.840000
   7908   7930   7914     1   112.4800480 524.673600
   7909   7908   7922     1   111.5100476 526.347200
   7909   7908   7930     1   107.9700462 569.024000
   7909   7912   7913     1   111.5100476 526.347200
   7909   7912   7920     1   110.1900474 564.840000
   7912   7909   7921     1   110.1900474 564.840000
   7912   7913   7914     1   111.5100476 526.347200
   7912   7913   7919     1   110.1900474 564.840000
   7913   7912   7920     1   110.1900474 564.840000
   7913   7914   7918     1   107.9700462 569.024000
   7913   7914   7930     1   107.9700462 569.024000
   7914   7913   7919     1   110.1900474 564.840000
   7918   7914   7930     1   108.2900466 608.353600
   7922   7908   7930     1   107.9700462 569.024000
   7931   7932   7935     1   111.5100476 526.347200
   7931   7932   7944     1   110.1900474 564.840000
   7931   7945   7951     1   110.1900474 564.840000
   7931   7953   7937     1   112.4800480 524.673600
   7932   7935   7936     1   111.5100476 526.347200
   7932   7935   7943     1   110.1900474 564.840000
   7932   7931   7945     1   111.5100476 526.347200
   7932   7931   7953     1   107.9700462 569.024000
   7935   7936   7937     1   111.5100476 526.347200
   7935   7936   7942     1   110.1900474 564.840000
   7935   7932   7944     1   110.1900474 564.840000
   7936   7937   7941     1   107.9700462 569.024000
   7936   7937   7953     1   107.9700462 569.024000
   7936   7935   7943     1   110.1900474 564.840000
   7937   7936   7942     1   110.1900474 564.840000
   7941   7937   7953     1   108.2900466 608.353600
   7945   7931   7953     1   107.9700462 569.024000
   7954   7955   7958     1   111.5100476 526.347200
   7954   7955   7967     1   110.1900474 564.840000
   7954   7968   7974     1   110.1900474 564.840000
   7954   7976   7960     1   112.4800480 524.673600
   7955   7954   7968     1   111.5100476 526.347200
   7955   7954   7976     1   107.9700462 569.024000
   7955   7958   7959     1   111.5100476 526.347200
   7955   7958   7966     1   110.1900474 564.840000
   7958   7955   7967     1   110.1900474 564.840000
   7958   7959   7960     1   111.5100476 526.347200
   7958   7959   7965     1   110.1900474 564.840000
   7959   7958   7966     1   110.1900474 564.840000
   7959   7960   7964     1   107.9700462 569.024000
   7959   7960   7976     1   107.9700462 569.024000
   7960   7959   7965     1   110.1900474 564.840000
   7964   7960   7976     1   108.2900466 608.353600
   7968   7954   7976     1   107.9700462 569.024000
   7977   7978   7981     1   111.5100476 526.347200
   7977   7978   7990     1   110.1900474 564.840000
   7977   7991   7997     1   110.1900474 564.840000
   7977   7999   7983     1   112.4800480 524.673600
   7978   7981   7982     1   111.5100476 526.347200
   7978   7981   7989     1   110.1900474 564.840000
   7978   7977   7991     1   111.5100476 526.347200
   7978   7977   7999     1   107.9700462 569.024000
   7981   7982   7983     1   111.5100476 526.347200
   7981   7982   7988     1   110.1900474 564.840000
   7981   7978   7990     1   110.1900474 564.840000
   7982   7983   7987     1   107.9700462 569.024000
   7982   7983   7999     1   107.9700462 569.024000
   7982   7981   7989     1   110.1900474 564.840000
   7983   7982   7988     1   110.1900474 564.840000
   7987   7983   7999     1   108.2900466 608.353600
   7991   7977   7999     1   107.9700462 569.024000
   8000   8001   8004     1   111.5100476 526.347200
   8000   8001   8013     1   110.1900474 564.840000
   8000   8014   8020     1   110.1900474 564.840000
   8000   8022   8006     1   112.4800480 524.673600
   8001   8000   8014     1   111.5100476 526.347200
   8001   8000   8022     1   107.9700462 569.024000
   8001   8004   8005     1   111.5100476 526.347200
   8001   8004   8012     1   110.1900474 564.840000
   8004   8001   8013     1   110.1900474 564.840000
   8004   8005   8006     1   111.5100476 526.347200
   8004   8005   8011     1   110.1900474 564.840000
   8005   8004   8012     1   110.1900474 564.840000
   8005   8006   8010     1   107.9700462 569.024000
   8005   8006   8022     1   107.9700462 569.024000
   8006   8005   8011     1   110.1900474 564.840000
   8010   8006   8022     1   108.2900466 608.353600
   8014   8000   8022     1   107.9700462 569.024000
   8023   8024   8027     1   111.5100476 526.347200
   8023   8024   8036     1   110.1900474 564.840000
   8023   8037   8043     1   110.1900474 564.840000
   8023   8045   8029     1   112.4800480 524.673600
   8024   8027   8028     1   111.5100476 526.347200
   8024   8027   8035     1   110.1900474 564.840000
   8024   8023   8037     1   111.5100476 526.347200
   8024   8023   8045     1   107.9700462 569.024000
   8027   8028   8029     1   111.5100476 526.347200
   8027   8028   8034     1   110.1900474 564.840000
   8027   8024   8036     1   110.1900474 564.840000
   8028   8029   8033     1   107.9700462 569.024000
   8028   8029   8045     1   107.9700462 569.024000
   8028   8027   8035     1   110.1900474 564.840000
   8029   8028   8034     1   110.1900474 564.840000
   8033   8029   8045     1   108.2900466 608.353600
   8037   8023   8045     1   107.9700462 569.024000
   8046   8047   8050     1   111.5100476 526.347200
   8046   8047   8059     1   110.1900474 564.840000
   8046   8060   8066     1   110.1900474 564.840000
   8046   8068   8052     1   112.4800480 524.673600
   8047   8046   8060     1   111.5100476 526.347200
   8047   8046   8068     1   107.9700462 569.024000
   8047   8050   8051     1   111.5100476 526.347200
   8047   8050   8058     1   110.1900474 564.840000
   8050   8047   8059     1   110.1900474 564.840000
   8050   8051   8052     1   111.5100476 526.347200
   8050   8051   8057     1   110.1900474 564.840000
   8051   8050   8058     1   110.1900474 564.840000
   8051   8052   8056     1   107.9700462 569.024000
   8051   8052   8068     1   107.9700462 569.024000
   8052   8051   8057     1   110.1900474 564.840000
   8056   8052   8068     1   108.2900466 608.353600
   8060   8046   8068     1   107.9700462 569.024000
   8069   8070   8073     1   111.5100476 526.347200
   8069   8070   8082     1   110.1900474 564.840000
   8069   8083   8089     1   110.1900474 564.840000
   8069   8091   8075     1   112.4800480 524.673600
   8070   8073   8074     1   111.5100476 526.347200
   8070   8073   8081     1   110.1900474 564.840000
   8070   8069   8083     1   111.5100476 526.347200
   8070   8069   8091     1   107.9700462 569.024000
   8073   8074   8075     1   111.5100476 526.347200
   8073   8074   8080     1   110.1900474 564.840000
   8073   8070   8082     1   110.1900474 564.840000
   8074   8075   8079     1   107.9700462 569.024000
   8074   8075   8091     1   107.9700462 569.024000
   8074   8073   8081     1   110.1900474 564.840000
   8075   8074   8080     1   110.1900474 564.840000
   8079   8075   8091     1   108.2900466 608.353600
   8083   8069   8091     1   107.9700462 569.024000
   8092   8093   8096     1   111.5100476 526.347200
   8092   8093   8105     1   110.1900474 564.840000
   8092   8106   8112     1   110.1900474 564.840000
   8092   8114   8098     1   112.4800480 524.673600
   8093   8092   8106     1   111.5100476 526.347200
   8093   8092   8114     1   107.9700462 569.024000
   8093   8096   8097     1   111.5100476 526.347200
   8093   8096   8104     1   110.1900474 564.840000
   8096   8093   8105     1   110.1900474 564.840000
   8096   8097   8098     1   111.5100476 526.347200
   8096   8097   8103     1   110.1900474 564.840000
   8097   8096   8104     1   110.1900474 564.840000
   8097   8098   8102     1   107.9700462 569.024000
   8097   8098   8114     1   107.9700462 569.024000
   8098   8097   8103     1   110.1900474 564.840000
   8102   8098   8114     1   108.2900466 608.353600
   8106   8092   8114     1   107.9700462 569.024000
   8115   8116   8119     1   111.5100476 526.347200
   8115   8116   8128     1   110.1900474 564.840000
   8115   8129   8135     1   110.1900474 564.840000
   8115   8137   8121     1   112.4800480 524.673600
   8116   8119   8120     1   111.5100476 526.347200
   8116   8119   8127     1   110.1900474 564.840000
   8116   8115   8129     1   111.5100476 526.347200
   8116   8115   8137     1   107.9700462 569.024000
   8119   8120   8121     1   111.5100476 526.347200
   8119   8120   8126     1   110.1900474 564.840000
   8119   8116   8128     1   110.1900474 564.840000
   8120   8121   8125     1   107.9700462 569.024000
   8120   8121   8137     1   107.9700462 569.024000
   8120   8119   8127     1   110.1900474 564.840000
   8121   8120   8126     1   110.1900474 564.840000
   8125   8121   8137     1   108.2900466 608.353600
   8129   8115   8137     1   107.9700462 569.024000
   8138   8139   8142     1   111.5100476 526.347200
   8138   8139   8151     1   110.1900474 564.840000
   8138   8152   8158     1   110.1900474 564.840000
   8138   8160   8144     1   112.4800480 524.673600
   8139   8138   8152     1   111.5100476 526.347200
   8139   8138   8160     1   107.9700462 569.024000
   8139   8142   8143     1   111.5100476 526.347200
   8139   8142   8150     1   110.1900474 564.840000
   8142   8139   8151     1   110.1900474 564.840000
   8142   8143   8144     1   111.5100476 526.347200
   8142   8143   8149     1   110.1900474 564.840000
   8143   8142   8150     1   110.1900474 564.840000
   8143   8144   8148     1   107.9700462 569.024000
   8143   8144   8160     1   107.9700462 569.024000
   8144   8143   8149     1   110.1900474 564.840000
   8148   8144   8160     1   108.2900466 608.353600
   8152   8138   8160     1   107.9700462 569.024000
   8161   8162   8165     1   111.5100476 526.347200
   8161   8162   8174     1   110.1900474 564.840000
   8161   8175   8181     1   110.1900474 564.840000
   8161   8183   8167     1   112.4800480 524.673600
   8162   8165   8166     1   111.5100476 526.347200
   8162   8165   8173     1   110.1900474 564.840000
   8162   8161   8175     1   111.5100476 526.347200
   8162   8161   8183     1   107.9700462 569.024000
   8165   8166   8167     1   111.5100476 526.347200
   8165   8166   8172     1   110.1900474 564.840000
   8165   8162   8174     1   110.1900474 564.840000
   8166   8167   8171     1   107.9700462 569.024000
   8166   8167   8183     1   107.9700462 569.024000
   8166   8165   8173     1   110.1900474 564.840000
   8167   8166   8172     1   110.1900474 564.840000
   8171   8167   8183     1   108.2900466 608.353600
   8175   8161   8183     1   107.9700462 569.024000
   8184   8185   8188     1   111.5100476 526.347200
   8184   8185   8197     1   110.1900474 564.840000
   8184   8198   8204     1   110.1900474 564.840000
   8184   8206   8190     1   112.4800480 524.673600
   8185   8184   8198     1   111.5100476 526.347200
   8185   8184   8206     1   107.9700462 569.024000
   8185   8188   8189     1   111.5100476 526.347200
   8185   8188   8196     1   110.1900474 564.840000
   8188   8185   8197     1   110.1900474 564.840000
   8188   8189   8190     1   111.5100476 526.347200
   8188   8189   8195     1   110.1900474 564.840000
   8189   8188   8196     1   110.1900474 564.840000
   8189   8190   8194     1   107.9700462 569.024000
   8189   8190   8206     1   107.9700462 569.024000
   8190   8189   8195     1   110.1900474 564.840000
   8194   8190   8206     1   108.2900466 608.353600
   8198   8184   8206     1   107.9700462 569.024000
   8207   8208   8211     1   111.5100476 526.347200
   8207   8208   8220     1   110.1900474 564.840000
   8207   8221   8227     1   110.1900474 564.840000
   8207   8229   8213     1   112.4800480 524.673600
   8208   8211   8212     1   111.5100476 526.347200
   8208   8211   8219     1   110.1900474 564.840000
   8208   8207   8221     1   111.5100476 526.347200
   8208   8207   8229     1   107.9700462 569.024000
   8211   8212   8213     1   111.5100476 526.347200
   8211   8212   8218     1   110.1900474 564.840000
   8211   8208   8220     1   110.1900474 564.840000
   8212   8213   8217     1   107.9700462 569.024000
   8212   8213   8229     1   107.9700462 569.024000
   8212   8211   8219     1   110.1900474 564.840000
   8213   8212   8218     1   110.1900474 564.840000
   8217   8213   8229     1   108.2900466 608.353600
   8221   8207   8229     1   107.9700462 569.024000
   8230   8231   8234     1   111.5100476 526.347200
   8230   8231   8243     1   110.1900474 564.840000
   8230   8244   8250     1   110.1900474 564.840000
   8230   8252   8236     1   112.4800480 524.673600
   8231   8230   8244     1   111.5100476 526.347200
   8231   8230   8252     1   107.9700462 569.024000
   8231   8234   8235     1   111.5100476 526.347200
   8231   8234   8242     1   110.1900474 564.840000
   8234   8231   8243     1   110.1900474 564.840000
   8234   8235   8236     1   111.5100476 526.347200
   8234   8235   8241     1   110.1900474 564.840000
   8235   8234   8242     1   110.1900474 564.840000
   8235   8236   8240     1   107.9700462 569.024000
   8235   8236   8252     1   107.9700462 569.024000
   8236   8235   8241     1   110.1900474 564.840000
   8240   8236   8252     1   108.2900466 608.353600
   8244   8230   8252     1   107.9700462 569.024000
   8253   8254   8257     1   111.5100476 526.347200
   8253   8254   8266     1   110.1900474 564.840000
   8253   8267   8273     1   110.1900474 564.840000
   8253   8275   8259     1   112.4800480 524.673600
   8254   8257   8258     1   111.5100476 526.347200
   8254   8257   8265     1   110.1900474 564.840000
   8254   8253   8267     1   111.5100476 526.347200
   8254   8253   8275     1   107.9700462 569.024000
   8257   8258   8259     1   111.5100476 526.347200
   8257   8258   8264     1   110.1900474 564.840000
   8257   8254   8266     1   110.1900474 564.840000
   8258   8259   8263     1   107.9700462 569.024000
   8258   8259   8275     1   107.9700462 569.024000
   8258   8257   8265     1   110.1900474 564.840000
   8259   8258   8264     1   110.1900474 564.840000
   8263   8259   8275     1   108.2900466 608.353600
   8267   8253   8275     1   107.9700462 569.024000
   8276   8277   8280     1   111.5100476 526.347200
   8276   8277   8289     1   110.1900474 564.840000
   8276   8290   8296     1   110.1900474 564.840000
   8276   8298   8282     1   112.4800480 524.673600
   8277   8276   8290     1   111.5100476 526.347200
   8277   8276   8298     1   107.9700462 569.024000
   8277   8280   8281     1   111.5100476 526.347200
   8277   8280   8288     1   110.1900474 564.840000
   8280   8277   8289     1   110.1900474 564.840000
   8280   8281   8282     1   111.5100476 526.347200
   8280   8281   8287     1   110.1900474 564.840000
   8281   8280   8288     1   110.1900474 564.840000
   8281   8282   8286     1   107.9700462 569.024000
   8281   8282   8298     1   107.9700462 569.024000
   8282   8281   8287     1   110.1900474 564.840000
   8286   8282   8298     1   108.2900466 608.353600
   8290   8276   8298     1   107.9700462 569.024000
   8299   8300   8303     1   111.5100476 526.347200
   8299   8300   8312     1   110.1900474 564.840000
   8299   8313   8319     1   110.1900474 564.840000
   8299   8321   8305     1   112.4800480 524.673600
   8300   8303   8304     1   111.5100476 526.347200
   8300   8303   8311     1   110.1900474 564.840000
   8300   8299   8313     1   111.5100476 526.347200
   8300   8299   8321     1   107.9700462 569.024000
   8303   8304   8305     1   111.5100476 526.347200
   8303   8304   8310     1   110.1900474 564.840000
   8303   8300   8312     1   110.1900474 564.840000
   8304   8305   8309     1   107.9700462 569.024000
   8304   8305   8321     1   107.9700462 569.024000
   8304   8303   8311     1   110.1900474 564.840000
   8305   8304   8310     1   110.1900474 564.840000
   8309   8305   8321     1   108.2900466 608.353600
   8313   8299   8321     1   107.9700462 569.024000
   8322   8323   8326     1   111.5100476 526.347200
   8322   8323   8335     1   110.1900474 564.840000
   8322   8336   8342     1   110.1900474 564.840000
   8322   8344   8328     1   112.4800480 524.673600
   8323   8322   8336     1   111.5100476 526.347200
   8323   8322   8344     1   107.9700462 569.024000
   8323   8326   8327     1   111.5100476 526.347200
   8323   8326   8334     1   110.1900474 564.840000
   8326   8323   8335     1   110.1900474 564.840000
   8326   8327   8328     1   111.5100476 526.347200
   8326   8327   8333     1   110.1900474 564.840000
   8327   8326   8334     1   110.1900474 564.840000
   8327   8328   8332     1   107.9700462 569.024000
   8327   8328   8344     1   107.9700462 569.024000
   8328   8327   8333     1   110.1900474 564.840000
   8332   8328   8344     1   108.2900466 608.353600
   8336   8322   8344     1   107.9700462 569.024000
   8345   8346   8349     1   111.5100476 526.347200
   8345   8346   8358     1   110.1900474 564.840000
   8345   8359   8365     1   110.1900474 564.840000
   8345   8367   8351     1   112.4800480 524.673600
   8346   8349   8350     1   111.5100476 526.347200
   8346   8349   8357     1   110.1900474 564.840000
   8346   8345   8359     1   111.5100476 526.347200
   8346   8345   8367     1   107.9700462 569.024000
   8349   8350   8351     1   111.5100476 526.347200
   8349   8350   8356     1   110.1900474 564.840000
   8349   8346   8358     1   110.1900474 564.840000
   8350   8351   8355     1   107.9700462 569.024000
   8350   8351   8367     1   107.9700462 569.024000
   8350   8349   8357     1   110.1900474 564.840000
   8351   8350   8356     1   110.1900474 564.840000
   8355   8351   8367     1   108.2900466 608.353600
   8359   8345   8367     1   107.9700462 569.024000
   8368   8369   8372     1   111.5100476 526.347200
   8368   8369   8381     1   110.1900474 564.840000
   8368   8382   8388     1   110.1900474 564.840000
   8368   8390   8374     1   112.4800480 524.673600
   8369   8368   8382     1   111.5100476 526.347200
   8369   8368   8390     1   107.9700462 569.024000
   8369   8372   8373     1   111.5100476 526.347200
   8369   8372   8380     1   110.1900474 564.840000
   8372   8369   8381     1   110.1900474 564.840000
   8372   8373   8374     1   111.5100476 526.347200
   8372   8373   8379     1   110.1900474 564.840000
   8373   8372   8380     1   110.1900474 564.840000
   8373   8374   8378     1   107.9700462 569.024000
   8373   8374   8390     1   107.9700462 569.024000
   8374   8373   8379     1   110.1900474 564.840000
   8378   8374   8390     1   108.2900466 608.353600
   8382   8368   8390     1   107.9700462 569.024000
   8391   8392   8395     1   111.5100476 526.347200
   8391   8392   8404     1   110.1900474 564.840000
   8391   8405   8411     1   110.1900474 564.840000
   8391   8413   8397     1   112.4800480 524.673600
   8392   8395   8396     1   111.5100476 526.347200
   8392   8395   8403     1   110.1900474 564.840000
   8392   8391   8405     1   111.5100476 526.347200
   8392   8391   8413     1   107.9700462 569.024000
   8395   8396   8397     1   111.5100476 526.347200
   8395   8396   8402     1   110.1900474 564.840000
   8395   8392   8404     1   110.1900474 564.840000
   8396   8397   8401     1   107.9700462 569.024000
   8396   8397   8413     1   107.9700462 569.024000
   8396   8395   8403     1   110.1900474 564.840000
   8397   8396   8402     1   110.1900474 564.840000
   8401   8397   8413     1   108.2900466 608.353600
   8405   8391   8413     1   107.9700462 569.024000
   8414   8415   8418     1   111.5100476 526.347200
   8414   8415   8427     1   110.1900474 564.840000
   8414   8428   8434     1   110.1900474 564.840000
   8414   8436   8420     1   112.4800480 524.673600
   8415   8414   8428     1   111.5100476 526.347200
   8415   8414   8436     1   107.9700462 569.024000
   8415   8418   8419     1   111.5100476 526.347200
   8415   8418   8426     1   110.1900474 564.840000
   8418   8415   8427     1   110.1900474 564.840000
   8418   8419   8420     1   111.5100476 526.347200
   8418   8419   8425     1   110.1900474 564.840000
   8419   8418   8426     1   110.1900474 564.840000
   8419   8420   8424     1   107.9700462 569.024000
   8419   8420   8436     1   107.9700462 569.024000
   8420   8419   8425     1   110.1900474 564.840000
   8424   8420   8436     1   108.2900466 608.353600
   8428   8414   8436     1   107.9700462 569.024000
   8437   8438   8441     1   111.5100476 526.347200
   8437   8438   8450     1   110.1900474 564.840000
   8437   8451   8457     1   110.1900474 564.840000
   8437   8459   8443     1   112.4800480 524.673600
   8438   8441   8442     1   111.5100476 526.347200
   8438   8441   8449     1   110.1900474 564.840000
   8438   8437   8451     1   111.5100476 526.347200
   8438   8437   8459     1   107.9700462 569.024000
   8441   8442   8443     1   111.5100476 526.347200
   8441   8442   8448     1   110.1900474 564.840000
   8441   8438   8450     1   110.1900474 564.840000
   8442   8443   8447     1   107.9700462 569.024000
   8442   8443   8459     1   107.9700462 569.024000
   8442   8441   8449     1   110.1900474 564.840000
   8443   8442   8448     1   110.1900474 564.840000
   8447   8443   8459     1   108.2900466 608.353600
   8451   8437   8459     1   107.9700462 569.024000
   8460   8461   8464     1   111.5100476 526.347200
   8460   8461   8473     1   110.1900474 564.840000
   8460   8474   8480     1   110.1900474 564.840000
   8460   8482   8466     1   112.4800480 524.673600
   8461   8460   8474     1   111.5100476 526.347200
   8461   8460   8482     1   107.9700462 569.024000
   8461   8464   8465     1   111.5100476 526.347200
   8461   8464   8472     1   110.1900474 564.840000
   8464   8461   8473     1   110.1900474 564.840000
   8464   8465   8466     1   111.5100476 526.347200
   8464   8465   8471     1   110.1900474 564.840000
   8465   8464   8472     1   110.1900474 564.840000
   8465   8466   8470     1   107.9700462 569.024000
   8465   8466   8482     1   107.9700462 569.024000
   8466   8465   8471     1   110.1900474 564.840000
   8470   8466   8482     1   108.2900466 608.353600
   8474   8460   8482     1   107.9700462 569.024000
   8483   8484   8487     1   111.5100476 526.347200
   8483   8484   8496     1   110.1900474 564.840000
   8483   8497   8503     1   110.1900474 564.840000
   8483   8505   8489     1   112.4800480 524.673600
   8484   8487   8488     1   111.5100476 526.347200
   8484   8487   8495     1   110.1900474 564.840000
   8484   8483   8497     1   111.5100476 526.347200
   8484   8483   8505     1   107.9700462 569.024000
   8487   8488   8489     1   111.5100476 526.347200
   8487   8488   8494     1   110.1900474 564.840000
   8487   8484   8496     1   110.1900474 564.840000
   8488   8489   8493     1   107.9700462 569.024000
   8488   8489   8505     1   107.9700462 569.024000
   8488   8487   8495     1   110.1900474 564.840000
   8489   8488   8494     1   110.1900474 564.840000
   8493   8489   8505     1   108.2900466 608.353600
   8497   8483   8505     1   107.9700462 569.024000
   8506   8507   8510     1   111.5100476 526.347200
   8506   8507   8519     1   110.1900474 564.840000
   8506   8520   8526     1   110.1900474 564.840000
   8506   8528   8512     1   112.4800480 524.673600
   8507   8506   8520     1   111.5100476 526.347200
   8507   8506   8528     1   107.9700462 569.024000
   8507   8510   8511     1   111.5100476 526.347200
   8507   8510   8518     1   110.1900474 564.840000
   8510   8507   8519     1   110.1900474 564.840000
   8510   8511   8512     1   111.5100476 526.347200
   8510   8511   8517     1   110.1900474 564.840000
   8511   8510   8518     1   110.1900474 564.840000
   8511   8512   8516     1   107.9700462 569.024000
   8511   8512   8528     1   107.9700462 569.024000
   8512   8511   8517     1   110.1900474 564.840000
   8516   8512   8528     1   108.2900466 608.353600
   8520   8506   8528     1   107.9700462 569.024000
   8529   8530   8533     1   111.5100476 526.347200
   8529   8530   8542     1   110.1900474 564.840000
   8529   8543   8549     1   110.1900474 564.840000
   8529   8551   8535     1   112.4800480 524.673600
   8530   8533   8534     1   111.5100476 526.347200
   8530   8533   8541     1   110.1900474 564.840000
   8530   8529   8543     1   111.5100476 526.347200
   8530   8529   8551     1   107.9700462 569.024000
   8533   8534   8535     1   111.5100476 526.347200
   8533   8534   8540     1   110.1900474 564.840000
   8533   8530   8542     1   110.1900474 564.840000
   8534   8535   8539     1   107.9700462 569.024000
   8534   8535   8551     1   107.9700462 569.024000
   8534   8533   8541     1   110.1900474 564.840000
   8535   8534   8540     1   110.1900474 564.840000
   8539   8535   8551     1   108.2900466 608.353600
   8543   8529   8551     1   107.9700462 569.024000
   8552   8553   8556     1   111.5100476 526.347200
   8552   8553   8565     1   110.1900474 564.840000
   8552   8566   8572     1   110.1900474 564.840000
   8552   8574   8558     1   112.4800480 524.673600
   8553   8552   8566     1   111.5100476 526.347200
   8553   8552   8574     1   107.9700462 569.024000
   8553   8556   8557     1   111.5100476 526.347200
   8553   8556   8564     1   110.1900474 564.840000
   8556   8553   8565     1   110.1900474 564.840000
   8556   8557   8558     1   111.5100476 526.347200
   8556   8557   8563     1   110.1900474 564.840000
   8557   8556   8564     1   110.1900474 564.840000
   8557   8558   8562     1   107.9700462 569.024000
   8557   8558   8574     1   107.9700462 569.024000
   8558   8557   8563     1   110.1900474 564.840000
   8562   8558   8574     1   108.2900466 608.353600
   8566   8552   8574     1   107.9700462 569.024000
   8575   8576   8579     1   111.5100476 526.347200
   8575   8576   8588     1   110.1900474 564.840000
   8575   8589   8595     1   110.1900474 564.840000
   8575   8597   8581     1   112.4800480 524.673600
   8576   8579   8580     1   111.5100476 526.347200
   8576   8579   8587     1   110.1900474 564.840000
   8576   8575   8589     1   111.5100476 526.347200
   8576   8575   8597     1   107.9700462 569.024000
   8579   8580   8581     1   111.5100476 526.347200
   8579   8580   8586     1   110.1900474 564.840000
   8579   8576   8588     1   110.1900474 564.840000
   8580   8581   8585     1   107.9700462 569.024000
   8580   8581   8597     1   107.9700462 569.024000
   8580   8579   8587     1   110.1900474 564.840000
   8581   8580   8586     1   110.1900474 564.840000
   8585   8581   8597     1   108.2900466 608.353600
   8589   8575   8597     1   107.9700462 569.024000
   8598   8599   8602     1   111.5100476 526.347200
   8598   8599   8611     1   110.1900474 564.840000
   8598   8612   8618     1   110.1900474 564.840000
   8598   8620   8604     1   112.4800480 524.673600
   8599   8598   8612     1   111.5100476 526.347200
   8599   8598   8620     1   107.9700462 569.024000
   8599   8602   8603     1   111.5100476 526.347200
   8599   8602   8610     1   110.1900474 564.840000
   8602   8599   8611     1   110.1900474 564.840000
   8602   8603   8604     1   111.5100476 526.347200
   8602   8603   8609     1   110.1900474 564.840000
   8603   8602   8610     1   110.1900474 564.840000
   8603   8604   8608     1   107.9700462 569.024000
   8603   8604   8620     1   107.9700462 569.024000
   8604   8603   8609     1   110.1900474 564.840000
   8608   8604   8620     1   108.2900466 608.353600
   8612   8598   8620     1   107.9700462 569.024000
   8621   8622   8625     1   111.5100476 526.347200
   8621   8622   8634     1   110.1900474 564.840000
   8621   8635   8641     1   110.1900474 564.840000
   8621   8643   8627     1   112.4800480 524.673600
   8622   8625   8626     1   111.5100476 526.347200
   8622   8625   8633     1   110.1900474 564.840000
   8622   8621   8635     1   111.5100476 526.347200
   8622   8621   8643     1   107.9700462 569.024000
   8625   8626   8627     1   111.5100476 526.347200
   8625   8626   8632     1   110.1900474 564.840000
   8625   8622   8634     1   110.1900474 564.840000
   8626   8627   8631     1   107.9700462 569.024000
   8626   8627   8643     1   107.9700462 569.024000
   8626   8625   8633     1   110.1900474 564.840000
   8627   8626   8632     1   110.1900474 564.840000
   8631   8627   8643     1   108.2900466 608.353600
   8635   8621   8643     1   107.9700462 569.024000
   8644   8645   8648     1   111.5100476 526.347200
   8644   8645   8657     1   110.1900474 564.840000
   8644   8658   8664     1   110.1900474 564.840000
   8644   8666   8650     1   112.4800480 524.673600
   8645   8644   8658     1   111.5100476 526.347200
   8645   8644   8666     1   107.9700462 569.024000
   8645   8648   8649     1   111.5100476 526.347200
   8645   8648   8656     1   110.1900474 564.840000
   8648   8645   8657     1   110.1900474 564.840000
   8648   8649   8650     1   111.5100476 526.347200
   8648   8649   8655     1   110.1900474 564.840000
   8649   8648   8656     1   110.1900474 564.840000
   8649   8650   8654     1   107.9700462 569.024000
   8649   8650   8666     1   107.9700462 569.024000
   8650   8649   8655     1   110.1900474 564.840000
   8654   8650   8666     1   108.2900466 608.353600
   8658   8644   8666     1   107.9700462 569.024000
   8667   8668   8671     1   111.5100476 526.347200
   8667   8668   8680     1   110.1900474 564.840000
   8667   8681   8687     1   110.1900474 564.840000
   8667   8689   8673     1   112.4800480 524.673600
   8668   8671   8672     1   111.5100476 526.347200
   8668   8671   8679     1   110.1900474 564.840000
   8668   8667   8681     1   111.5100476 526.347200
   8668   8667   8689     1   107.9700462 569.024000
   8671   8672   8673     1   111.5100476 526.347200
   8671   8672   8678     1   110.1900474 564.840000
   8671   8668   8680     1   110.1900474 564.840000
   8672   8673   8677     1   107.9700462 569.024000
   8672   8673   8689     1   107.9700462 569.024000
   8672   8671   8679     1   110.1900474 564.840000
   8673   8672   8678     1   110.1900474 564.840000
   8677   8673   8689     1   108.2900466 608.353600
   8681   8667   8689     1   107.9700462 569.024000
   8690   8691   8694     1   111.5100476 526.347200
   8690   8691   8703     1   110.1900474 564.840000
   8690   8704   8710     1   110.1900474 564.840000
   8690   8712   8696     1   112.4800480 524.673600
   8691   8690   8704     1   111.5100476 526.347200
   8691   8690   8712     1   107.9700462 569.024000
   8691   8694   8695     1   111.5100476 526.347200
   8691   8694   8702     1   110.1900474 564.840000
   8694   8691   8703     1   110.1900474 564.840000
   8694   8695   8696     1   111.5100476 526.347200
   8694   8695   8701     1   110.1900474 564.840000
   8695   8694   8702     1   110.1900474 564.840000
   8695   8696   8700     1   107.9700462 569.024000
   8695   8696   8712     1   107.9700462 569.024000
   8696   8695   8701     1   110.1900474 564.840000
   8700   8696   8712     1   108.2900466 608.353600
   8704   8690   8712     1   107.9700462 569.024000
   8713   8714   8717     1   111.5100476 526.347200
   8713   8714   8726     1   110.1900474 564.840000
   8713   8727   8733     1   110.1900474 564.840000
   8713   8735   8719     1   112.4800480 524.673600
   8714   8717   8718     1   111.5100476 526.347200
   8714   8717   8725     1   110.1900474 564.840000
   8714   8713   8727     1   111.5100476 526.347200
   8714   8713   8735     1   107.9700462 569.024000
   8717   8718   8719     1   111.5100476 526.347200
   8717   8718   8724     1   110.1900474 564.840000
   8717   8714   8726     1   110.1900474 564.840000
   8718   8719   8723     1   107.9700462 569.024000
   8718   8719   8735     1   107.9700462 569.024000
   8718   8717   8725     1   110.1900474 564.840000
   8719   8718   8724     1   110.1900474 564.840000
   8723   8719   8735     1   108.2900466 608.353600
   8727   8713   8735     1   107.9700462 569.024000
   8736   8737   8740     1   111.5100476 526.347200
   8736   8737   8749     1   110.1900474 564.840000
   8736   8750   8756     1   110.1900474 564.840000
   8736   8758   8742     1   112.4800480 524.673600
   8737   8736   8750     1   111.5100476 526.347200
   8737   8736   8758     1   107.9700462 569.024000
   8737   8740   8741     1   111.5100476 526.347200
   8737   8740   8748     1   110.1900474 564.840000
   8740   8737   8749     1   110.1900474 564.840000
   8740   8741   8742     1   111.5100476 526.347200
   8740   8741   8747     1   110.1900474 564.840000
   8741   8740   8748     1   110.1900474 564.840000
   8741   8742   8746     1   107.9700462 569.024000
   8741   8742   8758     1   107.9700462 569.024000
   8742   8741   8747     1   110.1900474 564.840000
   8746   8742   8758     1   108.2900466 608.353600
   8750   8736   8758     1   107.9700462 569.024000
   8759   8760   8763     1   111.5100476 526.347200
   8759   8760   8772     1   110.1900474 564.840000
   8759   8773   8779     1   110.1900474 564.840000
   8759   8781   8765     1   112.4800480 524.673600
   8760   8763   8764     1   111.5100476 526.347200
   8760   8763   8771     1   110.1900474 564.840000
   8760   8759   8773     1   111.5100476 526.347200
   8760   8759   8781     1   107.9700462 569.024000
   8763   8764   8765     1   111.5100476 526.347200
   8763   8764   8770     1   110.1900474 564.840000
   8763   8760   8772     1   110.1900474 564.840000
   8764   8765   8769     1   107.9700462 569.024000
   8764   8765   8781     1   107.9700462 569.024000
   8764   8763   8771     1   110.1900474 564.840000
   8765   8764   8770     1   110.1900474 564.840000
   8769   8765   8781     1   108.2900466 608.353600
   8773   8759   8781     1   107.9700462 569.024000
   8782   8783   8786     1   111.5100476 526.347200
   8782   8783   8795     1   110.1900474 564.840000
   8782   8796   8802     1   110.1900474 564.840000
   8782   8804   8788     1   112.4800480 524.673600
   8783   8782   8796     1   111.5100476 526.347200
   8783   8782   8804     1   107.9700462 569.024000
   8783   8786   8787     1   111.5100476 526.347200
   8783   8786   8794     1   110.1900474 564.840000
   8786   8783   8795     1   110.1900474 564.840000
   8786   8787   8788     1   111.5100476 526.347200
   8786   8787   8793     1   110.1900474 564.840000
   8787   8786   8794     1   110.1900474 564.840000
   8787   8788   8792     1   107.9700462 569.024000
   8787   8788   8804     1   107.9700462 569.024000
   8788   8787   8793     1   110.1900474 564.840000
   8792   8788   8804     1   108.2900466 608.353600
   8796   8782   8804     1   107.9700462 569.024000
   8805   8806   8809     1   111.5100476 526.347200
   8805   8806   8818     1   110.1900474 564.840000
   8805   8819   8825     1   110.1900474 564.840000
   8805   8827   8811     1   112.4800480 524.673600
   8806   8809   8810     1   111.5100476 526.347200
   8806   8809   8817     1   110.1900474 564.840000
   8806   8805   8819     1   111.5100476 526.347200
   8806   8805   8827     1   107.9700462 569.024000
   8809   8810   8811     1   111.5100476 526.347200
   8809   8810   8816     1   110.1900474 564.840000
   8809   8806   8818     1   110.1900474 564.840000
   8810   8811   8815     1   107.9700462 569.024000
   8810   8811   8827     1   107.9700462 569.024000
   8810   8809   8817     1   110.1900474 564.840000
   8811   8810   8816     1   110.1900474 564.840000
   8815   8811   8827     1   108.2900466 608.353600
   8819   8805   8827     1   107.9700462 569.024000
   8828   8829   8832     1   111.5100476 526.347200
   8828   8829   8841     1   110.1900474 564.840000
   8828   8842   8848     1   110.1900474 564.840000
   8828   8850   8834     1   112.4800480 524.673600
   8829   8828   8842     1   111.5100476 526.347200
   8829   8828   8850     1   107.9700462 569.024000
   8829   8832   8833     1   111.5100476 526.347200
   8829   8832   8840     1   110.1900474 564.840000
   8832   8829   8841     1   110.1900474 564.840000
   8832   8833   8834     1   111.5100476 526.347200
   8832   8833   8839     1   110.1900474 564.840000
   8833   8832   8840     1   110.1900474 564.840000
   8833   8834   8838     1   107.9700462 569.024000
   8833   8834   8850     1   107.9700462 569.024000
   8834   8833   8839     1   110.1900474 564.840000
   8838   8834   8850     1   108.2900466 608.353600
   8842   8828   8850     1   107.9700462 569.024000
   8851   8852   8855     1   111.5100476 526.347200
   8851   8852   8864     1   110.1900474 564.840000
   8851   8865   8871     1   110.1900474 564.840000
   8851   8873   8857     1   112.4800480 524.673600
   8852   8855   8856     1   111.5100476 526.347200
   8852   8855   8863     1   110.1900474 564.840000
   8852   8851   8865     1   111.5100476 526.347200
   8852   8851   8873     1   107.9700462 569.024000
   8855   8856   8857     1   111.5100476 526.347200
   8855   8856   8862     1   110.1900474 564.840000
   8855   8852   8864     1   110.1900474 564.840000
   8856   8857   8861     1   107.9700462 569.024000
   8856   8857   8873     1   107.9700462 569.024000
   8856   8855   8863     1   110.1900474 564.840000
   8857   8856   8862     1   110.1900474 564.840000
   8861   8857   8873     1   108.2900466 608.353600
   8865   8851   8873     1   107.9700462 569.024000
   8874   8875   8878     1   111.5100476 526.347200
   8874   8875   8887     1   110.1900474 564.840000
   8874   8888   8894     1   110.1900474 564.840000
   8874   8896   8880     1   112.4800480 524.673600
   8875   8874   8888     1   111.5100476 526.347200
   8875   8874   8896     1   107.9700462 569.024000
   8875   8878   8879     1   111.5100476 526.347200
   8875   8878   8886     1   110.1900474 564.840000
   8878   8875   8887     1   110.1900474 564.840000
   8878   8879   8880     1   111.5100476 526.347200
   8878   8879   8885     1   110.1900474 564.840000
   8879   8878   8886     1   110.1900474 564.840000
   8879   8880   8884     1   107.9700462 569.024000
   8879   8880   8896     1   107.9700462 569.024000
   8880   8879   8885     1   110.1900474 564.840000
   8884   8880   8896     1   108.2900466 608.353600
   8888   8874   8896     1   107.9700462 569.024000
   8897   8898   8901     1   111.5100476 526.347200
   8897   8898   8910     1   110.1900474 564.840000
   8897   8911   8917     1   110.1900474 564.840000
   8897   8919   8903     1   112.4800480 524.673600
   8898   8901   8902     1   111.5100476 526.347200
   8898   8901   8909     1   110.1900474 564.840000
   8898   8897   8911     1   111.5100476 526.347200
   8898   8897   8919     1   107.9700462 569.024000
   8901   8902   8903     1   111.5100476 526.347200
   8901   8902   8908     1   110.1900474 564.840000
   8901   8898   8910     1   110.1900474 564.840000
   8902   8903   8907     1   107.9700462 569.024000
   8902   8903   8919     1   107.9700462 569.024000
   8902   8901   8909     1   110.1900474 564.840000
   8903   8902   8908     1   110.1900474 564.840000
   8907   8903   8919     1   108.2900466 608.353600
   8911   8897   8919     1   107.9700462 569.024000
   8920   8921   8924     1   111.5100476 526.347200
   8920   8921   8933     1   110.1900474 564.840000
   8920   8934   8940     1   110.1900474 564.840000
   8920   8942   8926     1   112.4800480 524.673600
   8921   8920   8934     1   111.5100476 526.347200
   8921   8920   8942     1   107.9700462 569.024000
   8921   8924   8925     1   111.5100476 526.347200
   8921   8924   8932     1   110.1900474 564.840000
   8924   8921   8933     1   110.1900474 564.840000
   8924   8925   8926     1   111.5100476 526.347200
   8924   8925   8931     1   110.1900474 564.840000
   8925   8924   8932     1   110.1900474 564.840000
   8925   8926   8930     1   107.9700462 569.024000
   8925   8926   8942     1   107.9700462 569.024000
   8926   8925   8931     1   110.1900474 564.840000
   8930   8926   8942     1   108.2900466 608.353600
   8934   8920   8942     1   107.9700462 569.024000
   8943   8944   8947     1   111.5100476 526.347200
   8943   8944   8956     1   110.1900474 564.840000
   8943   8957   8963     1   110.1900474 564.840000
   8943   8965   8949     1   112.4800480 524.673600
   8944   8947   8948     1   111.5100476 526.347200
   8944   8947   8955     1   110.1900474 564.840000
   8944   8943   8957     1   111.5100476 526.347200
   8944   8943   8965     1   107.9700462 569.024000
   8947   8948   8949     1   111.5100476 526.347200
   8947   8948   8954     1   110.1900474 564.840000
   8947   8944   8956     1   110.1900474 564.840000
   8948   8949   8953     1   107.9700462 569.024000
   8948   8949   8965     1   107.9700462 569.024000
   8948   8947   8955     1   110.1900474 564.840000
   8949   8948   8954     1   110.1900474 564.840000
   8953   8949   8965     1   108.2900466 608.353600
   8957   8943   8965     1   107.9700462 569.024000
   8966   8967   8970     1   111.5100476 526.347200
   8966   8967   8979     1   110.1900474 564.840000
   8966   8980   8986     1   110.1900474 564.840000
   8966   8988   8972     1   112.4800480 524.673600
   8967   8966   8980     1   111.5100476 526.347200
   8967   8966   8988     1   107.9700462 569.024000
   8967   8970   8971     1   111.5100476 526.347200
   8967   8970   8978     1   110.1900474 564.840000
   8970   8967   8979     1   110.1900474 564.840000
   8970   8971   8972     1   111.5100476 526.347200
   8970   8971   8977     1   110.1900474 564.840000
   8971   8970   8978     1   110.1900474 564.840000
   8971   8972   8976     1   107.9700462 569.024000
   8971   8972   8988     1   107.9700462 569.024000
   8972   8971   8977     1   110.1900474 564.840000
   8976   8972   8988     1   108.2900466 608.353600
   8980   8966   8988     1   107.9700462 569.024000
   8989   8990   8993     1   111.5100476 526.347200
   8989   8990   9002     1   110.1900474 564.840000
   8989   9003   9009     1   110.1900474 564.840000
   8989   9011   8995     1   112.4800480 524.673600
   8990   8993   8994     1   111.5100476 526.347200
   8990   8993   9001     1   110.1900474 564.840000
   8990   8989   9003     1   111.5100476 526.347200
   8990   8989   9011     1   107.9700462 569.024000
   8993   8994   8995     1   111.5100476 526.347200
   8993   8994   9000     1   110.1900474 564.840000
   8993   8990   9002     1   110.1900474 564.840000
   8994   8995   8999     1   107.9700462 569.024000
   8994   8995   9011     1   107.9700462 569.024000
   8994   8993   9001     1   110.1900474 564.840000
   8995   8994   9000     1   110.1900474 564.840000
   8999   8995   9011     1   108.2900466 608.353600
   9003   8989   9011     1   107.9700462 569.024000
   9012   9013   9016     1   111.5100476 526.347200
   9012   9013   9025     1   110.1900474 564.840000
   9012   9026   9032     1   110.1900474 564.840000
   9012   9034   9018     1   112.4800480 524.673600
   9013   9012   9026     1   111.5100476 526.347200
   9013   9012   9034     1   107.9700462 569.024000
   9013   9016   9017     1   111.5100476 526.347200
   9013   9016   9024     1   110.1900474 564.840000
   9016   9013   9025     1   110.1900474 564.840000
   9016   9017   9018     1   111.5100476 526.347200
   9016   9017   9023     1   110.1900474 564.840000
   9017   9016   9024     1   110.1900474 564.840000
   9017   9018   9022     1   107.9700462 569.024000
   9017   9018   9034     1   107.9700462 569.024000
   9018   9017   9023     1   110.1900474 564.840000
   9022   9018   9034     1   108.2900466 608.353600
   9026   9012   9034     1   107.9700462 569.024000
   9035   9036   9039     1   111.5100476 526.347200
   9035   9036   9048     1   110.1900474 564.840000
   9035   9049   9055     1   110.1900474 564.840000
   9035   9057   9041     1   112.4800480 524.673600
   9036   9039   9040     1   111.5100476 526.347200
   9036   9039   9047     1   110.1900474 564.840000
   9036   9035   9049     1   111.5100476 526.347200
   9036   9035   9057     1   107.9700462 569.024000
   9039   9040   9041     1   111.5100476 526.347200
   9039   9040   9046     1   110.1900474 564.840000
   9039   9036   9048     1   110.1900474 564.840000
   9040   9041   9045     1   107.9700462 569.024000
   9040   9041   9057     1   107.9700462 569.024000
   9040   9039   9047     1   110.1900474 564.840000
   9041   9040   9046     1   110.1900474 564.840000
   9045   9041   9057     1   108.2900466 608.353600
   9049   9035   9057     1   107.9700462 569.024000
   9058   9059   9062     1   111.5100476 526.347200
   9058   9059   9071     1   110.1900474 564.840000
   9058   9072   9078     1   110.1900474 564.840000
   9058   9080   9064     1   112.4800480 524.673600
   9059   9058   9072     1   111.5100476 526.347200
   9059   9058   9080     1   107.9700462 569.024000
   9059   9062   9063     1   111.5100476 526.347200
   9059   9062   9070     1   110.1900474 564.840000
   9062   9059   9071     1   110.1900474 564.840000
   9062   9063   9064     1   111.5100476 526.347200
   9062   9063   9069     1   110.1900474 564.840000
   9063   9062   9070     1   110.1900474 564.840000
   9063   9064   9068     1   107.9700462 569.024000
   9063   9064   9080     1   107.9700462 569.024000
   9064   9063   9069     1   110.1900474 564.840000
   9068   9064   9080     1   108.2900466 608.353600
   9072   9058   9080     1   107.9700462 569.024000
   9081   9082   9085     1   111.5100476 526.347200
   9081   9082   9094     1   110.1900474 564.840000
   9081   9095   9101     1   110.1900474 564.840000
   9081   9103   9087     1   112.4800480 524.673600
   9082   9085   9086     1   111.5100476 526.347200
   9082   9085   9093     1   110.1900474 564.840000
   9082   9081   9095     1   111.5100476 526.347200
   9082   9081   9103     1   107.9700462 569.024000
   9085   9086   9087     1   111.5100476 526.347200
   9085   9086   9092     1   110.1900474 564.840000
   9085   9082   9094     1   110.1900474 564.840000
   9086   9087   9091     1   107.9700462 569.024000
   9086   9087   9103     1   107.9700462 569.024000
   9086   9085   9093     1   110.1900474 564.840000
   9087   9086   9092     1   110.1900474 564.840000
   9091   9087   9103     1   108.2900466 608.353600
   9095   9081   9103     1   107.9700462 569.024000
   9104   9105   9108     1   111.5100476 526.347200
   9104   9105   9117     1   110.1900474 564.840000
   9104   9118   9124     1   110.1900474 564.840000
   9104   9126   9110     1   112.4800480 524.673600
   9105   9104   9118     1   111.5100476 526.347200
   9105   9104   9126     1   107.9700462 569.024000
   9105   9108   9109     1   111.5100476 526.347200
   9105   9108   9116     1   110.1900474 564.840000
   9108   9105   9117     1   110.1900474 564.840000
   9108   9109   9110     1   111.5100476 526.347200
   9108   9109   9115     1   110.1900474 564.840000
   9109   9108   9116     1   110.1900474 564.840000
   9109   9110   9114     1   107.9700462 569.024000
   9109   9110   9126     1   107.9700462 569.024000
   9110   9109   9115     1   110.1900474 564.840000
   9114   9110   9126     1   108.2900466 608.353600
   9118   9104   9126     1   107.9700462 569.024000
   9127   9128   9131     1   111.5100476 526.347200
   9127   9128   9140     1   110.1900474 564.840000
   9127   9141   9147     1   110.1900474 564.840000
   9127   9149   9133     1   112.4800480 524.673600
   9128   9131   9132     1   111.5100476 526.347200
   9128   9131   9139     1   110.1900474 564.840000
   9128   9127   9141     1   111.5100476 526.347200
   9128   9127   9149     1   107.9700462 569.024000
   9131   9132   9133     1   111.5100476 526.347200
   9131   9132   9138     1   110.1900474 564.840000
   9131   9128   9140     1   110.1900474 564.840000
   9132   9133   9137     1   107.9700462 569.024000
   9132   9133   9149     1   107.9700462 569.024000
   9132   9131   9139     1   110.1900474 564.840000
   9133   9132   9138     1   110.1900474 564.840000
   9137   9133   9149     1   108.2900466 608.353600
   9141   9127   9149     1   107.9700462 569.024000
   9150   9151   9154     1   111.5100476 526.347200
   9150   9151   9163     1   110.1900474 564.840000
   9150   9164   9170     1   110.1900474 564.840000
   9150   9172   9156     1   112.4800480 524.673600
   9151   9150   9164     1   111.5100476 526.347200
   9151   9150   9172     1   107.9700462 569.024000
   9151   9154   9155     1   111.5100476 526.347200
   9151   9154   9162     1   110.1900474 564.840000
   9154   9151   9163     1   110.1900474 564.840000
   9154   9155   9156     1   111.5100476 526.347200
   9154   9155   9161     1   110.1900474 564.840000
   9155   9154   9162     1   110.1900474 564.840000
   9155   9156   9160     1   107.9700462 569.024000
   9155   9156   9172     1   107.9700462 569.024000
   9156   9155   9161     1   110.1900474 564.840000
   9160   9156   9172     1   108.2900466 608.353600
   9164   9150   9172     1   107.9700462 569.024000
   9173   9174   9177     1   111.5100476 526.347200
   9173   9174   9186     1   110.1900474 564.840000
   9173   9187   9193     1   110.1900474 564.840000
   9173   9195   9179     1   112.4800480 524.673600
   9174   9177   9178     1   111.5100476 526.347200
   9174   9177   9185     1   110.1900474 564.840000
   9174   9173   9187     1   111.5100476 526.347200
   9174   9173   9195     1   107.9700462 569.024000
   9177   9178   9179     1   111.5100476 526.347200
   9177   9178   9184     1   110.1900474 564.840000
   9177   9174   9186     1   110.1900474 564.840000
   9178   9179   9183     1   107.9700462 569.024000
   9178   9179   9195     1   107.9700462 569.024000
   9178   9177   9185     1   110.1900474 564.840000
   9179   9178   9184     1   110.1900474 564.840000
   9183   9179   9195     1   108.2900466 608.353600
   9187   9173   9195     1   107.9700462 569.024000
   9196   9197   9200     1   111.5100476 526.347200
   9196   9197   9209     1   110.1900474 564.840000
   9196   9210   9216     1   110.1900474 564.840000
   9196   9218   9202     1   112.4800480 524.673600
   9197   9196   9210     1   111.5100476 526.347200
   9197   9196   9218     1   107.9700462 569.024000
   9197   9200   9201     1   111.5100476 526.347200
   9197   9200   9208     1   110.1900474 564.840000
   9200   9197   9209     1   110.1900474 564.840000
   9200   9201   9202     1   111.5100476 526.347200
   9200   9201   9207     1   110.1900474 564.840000
   9201   9200   9208     1   110.1900474 564.840000
   9201   9202   9206     1   107.9700462 569.024000
   9201   9202   9218     1   107.9700462 569.024000
   9202   9201   9207     1   110.1900474 564.840000
   9206   9202   9218     1   108.2900466 608.353600
   9210   9196   9218     1   107.9700462 569.024000
   9219   9220   9223     1   111.5100476 526.347200
   9219   9220   9232     1   110.1900474 564.840000
   9219   9233   9239     1   110.1900474 564.840000
   9219   9241   9225     1   112.4800480 524.673600
   9220   9223   9224     1   111.5100476 526.347200
   9220   9223   9231     1   110.1900474 564.840000
   9220   9219   9233     1   111.5100476 526.347200
   9220   9219   9241     1   107.9700462 569.024000
   9223   9224   9225     1   111.5100476 526.347200
   9223   9224   9230     1   110.1900474 564.840000
   9223   9220   9232     1   110.1900474 564.840000
   9224   9225   9229     1   107.9700462 569.024000
   9224   9225   9241     1   107.9700462 569.024000
   9224   9223   9231     1   110.1900474 564.840000
   9225   9224   9230     1   110.1900474 564.840000
   9229   9225   9241     1   108.2900466 608.353600
   9233   9219   9241     1   107.9700462 569.024000
   9242   9243   9246     1   111.5100476 526.347200
   9242   9243   9255     1   110.1900474 564.840000
   9242   9256   9262     1   110.1900474 564.840000
   9242   9264   9248     1   112.4800480 524.673600
   9243   9242   9256     1   111.5100476 526.347200
   9243   9242   9264     1   107.9700462 569.024000
   9243   9246   9247     1   111.5100476 526.347200
   9243   9246   9254     1   110.1900474 564.840000
   9246   9243   9255     1   110.1900474 564.840000
   9246   9247   9248     1   111.5100476 526.347200
   9246   9247   9253     1   110.1900474 564.840000
   9247   9246   9254     1   110.1900474 564.840000
   9247   9248   9252     1   107.9700462 569.024000
   9247   9248   9264     1   107.9700462 569.024000
   9248   9247   9253     1   110.1900474 564.840000
   9252   9248   9264     1   108.2900466 608.353600
   9256   9242   9264     1   107.9700462 569.024000
   9265   9266   9269     1   111.5100476 526.347200
   9265   9266   9278     1   110.1900474 564.840000
   9265   9279   9285     1   110.1900474 564.840000
   9265   9287   9271     1   112.4800480 524.673600
   9266   9269   9270     1   111.5100476 526.347200
   9266   9269   9277     1   110.1900474 564.840000
   9266   9265   9279     1   111.5100476 526.347200
   9266   9265   9287     1   107.9700462 569.024000
   9269   9270   9271     1   111.5100476 526.347200
   9269   9270   9276     1   110.1900474 564.840000
   9269   9266   9278     1   110.1900474 564.840000
   9270   9271   9275     1   107.9700462 569.024000
   9270   9271   9287     1   107.9700462 569.024000
   9270   9269   9277     1   110.1900474 564.840000
   9271   9270   9276     1   110.1900474 564.840000
   9275   9271   9287     1   108.2900466 608.353600
   9279   9265   9287     1   107.9700462 569.024000
   9288   9289   9292     1   111.5100476 526.347200
   9288   9289   9301     1   110.1900474 564.840000
   9288   9302   9308     1   110.1900474 564.840000
   9288   9310   9294     1   112.4800480 524.673600
   9289   9288   9302     1   111.5100476 526.347200
   9289   9288   9310     1   107.9700462 569.024000
   9289   9292   9293     1   111.5100476 526.347200
   9289   9292   9300     1   110.1900474 564.840000
   9292   9289   9301     1   110.1900474 564.840000
   9292   9293   9294     1   111.5100476 526.347200
   9292   9293   9299     1   110.1900474 564.840000
   9293   9292   9300     1   110.1900474 564.840000
   9293   9294   9298     1   107.9700462 569.024000
   9293   9294   9310     1   107.9700462 569.024000
   9294   9293   9299     1   110.1900474 564.840000
   9298   9294   9310     1   108.2900466 608.353600
   9302   9288   9310     1   107.9700462 569.024000
   9311   9312   9315     1   111.5100476 526.347200
   9311   9312   9324     1   110.1900474 564.840000
   9311   9325   9331     1   110.1900474 564.840000
   9311   9333   9317     1   112.4800480 524.673600
   9312   9315   9316     1   111.5100476 526.347200
   9312   9315   9323     1   110.1900474 564.840000
   9312   9311   9325     1   111.5100476 526.347200
   9312   9311   9333     1   107.9700462 569.024000
   9315   9316   9317     1   111.5100476 526.347200
   9315   9316   9322     1   110.1900474 564.840000
   9315   9312   9324     1   110.1900474 564.840000
   9316   9317   9321     1   107.9700462 569.024000
   9316   9317   9333     1   107.9700462 569.024000
   9316   9315   9323     1   110.1900474 564.840000
   9317   9316   9322     1   110.1900474 564.840000
   9321   9317   9333     1   108.2900466 608.353600
   9325   9311   9333     1   107.9700462 569.024000
   9334   9335   9338     1   111.5100476 526.347200
   9334   9335   9347     1   110.1900474 564.840000
   9334   9348   9354     1   110.1900474 564.840000
   9334   9356   9340     1   112.4800480 524.673600
   9335   9334   9348     1   111.5100476 526.347200
   9335   9334   9356     1   107.9700462 569.024000
   9335   9338   9339     1   111.5100476 526.347200
   9335   9338   9346     1   110.1900474 564.840000
   9338   9335   9347     1   110.1900474 564.840000
   9338   9339   9340     1   111.5100476 526.347200
   9338   9339   9345     1   110.1900474 564.840000
   9339   9338   9346     1   110.1900474 564.840000
   9339   9340   9344     1   107.9700462 569.024000
   9339   9340   9356     1   107.9700462 569.024000
   9340   9339   9345     1   110.1900474 564.840000
   9344   9340   9356     1   108.2900466 608.353600
   9348   9334   9356     1   107.9700462 569.024000
   9357   9358   9361     1   111.5100476 526.347200
   9357   9358   9370     1   110.1900474 564.840000
   9357   9371   9377     1   110.1900474 564.840000
   9357   9379   9363     1   112.4800480 524.673600
   9358   9361   9362     1   111.5100476 526.347200
   9358   9361   9369     1   110.1900474 564.840000
   9358   9357   9371     1   111.5100476 526.347200
   9358   9357   9379     1   107.9700462 569.024000
   9361   9362   9363     1   111.5100476 526.347200
   9361   9362   9368     1   110.1900474 564.840000
   9361   9358   9370     1   110.1900474 564.840000
   9362   9363   9367     1   107.9700462 569.024000
   9362   9363   9379     1   107.9700462 569.024000
   9362   9361   9369     1   110.1900474 564.840000
   9363   9362   9368     1   110.1900474 564.840000
   9367   9363   9379     1   108.2900466 608.353600
   9371   9357   9379     1   107.9700462 569.024000
   9380   9381   9384     1   111.5100476 526.347200
   9380   9381   9393     1   110.1900474 564.840000
   9380   9394   9400     1   110.1900474 564.840000
   9380   9402   9386     1   112.4800480 524.673600
   9381   9380   9394     1   111.5100476 526.347200
   9381   9380   9402     1   107.9700462 569.024000
   9381   9384   9385     1   111.5100476 526.347200
   9381   9384   9392     1   110.1900474 564.840000
   9384   9381   9393     1   110.1900474 564.840000
   9384   9385   9386     1   111.5100476 526.347200
   9384   9385   9391     1   110.1900474 564.840000
   9385   9384   9392     1   110.1900474 564.840000
   9385   9386   9390     1   107.9700462 569.024000
   9385   9386   9402     1   107.9700462 569.024000
   9386   9385   9391     1   110.1900474 564.840000
   9390   9386   9402     1   108.2900466 608.353600
   9394   9380   9402     1   107.9700462 569.024000
   9403   9404   9407     1   111.5100476 526.347200
   9403   9404   9416     1   110.1900474 564.840000
   9403   9417   9423     1   110.1900474 564.840000
   9403   9425   9409     1   112.4800480 524.673600
   9404   9407   9408     1   111.5100476 526.347200
   9404   9407   9415     1   110.1900474 564.840000
   9404   9403   9417     1   111.5100476 526.347200
   9404   9403   9425     1   107.9700462 569.024000
   9407   9408   9409     1   111.5100476 526.347200
   9407   9408   9414     1   110.1900474 564.840000
   9407   9404   9416     1   110.1900474 564.840000
   9408   9409   9413     1   107.9700462 569.024000
   9408   9409   9425     1   107.9700462 569.024000
   9408   9407   9415     1   110.1900474 564.840000
   9409   9408   9414     1   110.1900474 564.840000
   9413   9409   9425     1   108.2900466 608.353600
   9417   9403   9425     1   107.9700462 569.024000
   9426   9427   9430     1   111.5100476 526.347200
   9426   9427   9439     1   110.1900474 564.840000
   9426   9440   9446     1   110.1900474 564.840000
   9426   9448   9432     1   112.4800480 524.673600
   9427   9426   9440     1   111.5100476 526.347200
   9427   9426   9448     1   107.9700462 569.024000
   9427   9430   9431     1   111.5100476 526.347200
   9427   9430   9438     1   110.1900474 564.840000
   9430   9427   9439     1   110.1900474 564.840000
   9430   9431   9432     1   111.5100476 526.347200
   9430   9431   9437     1   110.1900474 564.840000
   9431   9430   9438     1   110.1900474 564.840000
   9431   9432   9436     1   107.9700462 569.024000
   9431   9432   9448     1   107.9700462 569.024000
   9432   9431   9437     1   110.1900474 564.840000
   9436   9432   9448     1   108.2900466 608.353600
   9440   9426   9448     1   107.9700462 569.024000
   9449   9450   9453     1   111.5100476 526.347200
   9449   9450   9462     1   110.1900474 564.840000
   9449   9463   9469     1   110.1900474 564.840000
   9449   9471   9455     1   112.4800480 524.673600
   9450   9453   9454     1   111.5100476 526.347200
   9450   9453   9461     1   110.1900474 564.840000
   9450   9449   9463     1   111.5100476 526.347200
   9450   9449   9471     1   107.9700462 569.024000
   9453   9454   9455     1   111.5100476 526.347200
   9453   9454   9460     1   110.1900474 564.840000
   9453   9450   9462     1   110.1900474 564.840000
   9454   9455   9459     1   107.9700462 569.024000
   9454   9455   9471     1   107.9700462 569.024000
   9454   9453   9461     1   110.1900474 564.840000
   9455   9454   9460     1   110.1900474 564.840000
   9459   9455   9471     1   108.2900466 608.353600
   9463   9449   9471     1   107.9700462 569.024000
   9472   9473   9476     1   111.5100476 526.347200
   9472   9473   9485     1   110.1900474 564.840000
   9472   9486   9492     1   110.1900474 564.840000
   9472   9494   9478     1   112.4800480 524.673600
   9473   9472   9486     1   111.5100476 526.347200
   9473   9472   9494     1   107.9700462 569.024000
   9473   9476   9477     1   111.5100476 526.347200
   9473   9476   9484     1   110.1900474 564.840000
   9476   9473   9485     1   110.1900474 564.840000
   9476   9477   9478     1   111.5100476 526.347200
   9476   9477   9483     1   110.1900474 564.840000
   9477   9476   9484     1   110.1900474 564.840000
   9477   9478   9482     1   107.9700462 569.024000
   9477   9478   9494     1   107.9700462 569.024000
   9478   9477   9483     1   110.1900474 564.840000
   9482   9478   9494     1   108.2900466 608.353600
   9486   9472   9494     1   107.9700462 569.024000
   9495   9496   9499     1   111.5100476 526.347200
   9495   9496   9508     1   110.1900474 564.840000
   9495   9509   9515     1   110.1900474 564.840000
   9495   9517   9501     1   112.4800480 524.673600
   9496   9499   9500     1   111.5100476 526.347200
   9496   9499   9507     1   110.1900474 564.840000
   9496   9495   9509     1   111.5100476 526.347200
   9496   9495   9517     1   107.9700462 569.024000
   9499   9500   9501     1   111.5100476 526.347200
   9499   9500   9506     1   110.1900474 564.840000
   9499   9496   9508     1   110.1900474 564.840000
   9500   9501   9505     1   107.9700462 569.024000
   9500   9501   9517     1   107.9700462 569.024000
   9500   9499   9507     1   110.1900474 564.840000
   9501   9500   9506     1   110.1900474 564.840000
   9505   9501   9517     1   108.2900466 608.353600
   9509   9495   9517     1   107.9700462 569.024000
   9518   9519   9522     1   111.5100476 526.347200
   9518   9519   9531     1   110.1900474 564.840000
   9518   9532   9538     1   110.1900474 564.840000
   9518   9540   9524     1   112.4800480 524.673600
   9519   9518   9532     1   111.5100476 526.347200
   9519   9518   9540     1   107.9700462 569.024000
   9519   9522   9523     1   111.5100476 526.347200
   9519   9522   9530     1   110.1900474 564.840000
   9522   9519   9531     1   110.1900474 564.840000
   9522   9523   9524     1   111.5100476 526.347200
   9522   9523   9529     1   110.1900474 564.840000
   9523   9522   9530     1   110.1900474 564.840000
   9523   9524   9528     1   107.9700462 569.024000
   9523   9524   9540     1   107.9700462 569.024000
   9524   9523   9529     1   110.1900474 564.840000
   9528   9524   9540     1   108.2900466 608.353600
   9532   9518   9540     1   107.9700462 569.024000
   9541   9542   9545     1   111.5100476 526.347200
   9541   9542   9554     1   110.1900474 564.840000
   9541   9555   9561     1   110.1900474 564.840000
   9541   9563   9547     1   112.4800480 524.673600
   9542   9545   9546     1   111.5100476 526.347200
   9542   9545   9553     1   110.1900474 564.840000
   9542   9541   9555     1   111.5100476 526.347200
   9542   9541   9563     1   107.9700462 569.024000
   9545   9546   9547     1   111.5100476 526.347200
   9545   9546   9552     1   110.1900474 564.840000
   9545   9542   9554     1   110.1900474 564.840000
   9546   9547   9551     1   107.9700462 569.024000
   9546   9547   9563     1   107.9700462 569.024000
   9546   9545   9553     1   110.1900474 564.840000
   9547   9546   9552     1   110.1900474 564.840000
   9551   9547   9563     1   108.2900466 608.353600
   9555   9541   9563     1   107.9700462 569.024000
   9564   9565   9568     1   111.5100476 526.347200
   9564   9565   9577     1   110.1900474 564.840000
   9564   9578   9584     1   110.1900474 564.840000
   9564   9586   9570     1   112.4800480 524.673600
   9565   9564   9578     1   111.5100476 526.347200
   9565   9564   9586     1   107.9700462 569.024000
   9565   9568   9569     1   111.5100476 526.347200
   9565   9568   9576     1   110.1900474 564.840000
   9568   9565   9577     1   110.1900474 564.840000
   9568   9569   9570     1   111.5100476 526.347200
   9568   9569   9575     1   110.1900474 564.840000
   9569   9568   9576     1   110.1900474 564.840000
   9569   9570   9574     1   107.9700462 569.024000
   9569   9570   9586     1   107.9700462 569.024000
   9570   9569   9575     1   110.1900474 564.840000
   9574   9570   9586     1   108.2900466 608.353600
   9578   9564   9586     1   107.9700462 569.024000
   9587   9588   9591     1   111.5100476 526.347200
   9587   9588   9600     1   110.1900474 564.840000
   9587   9601   9607     1   110.1900474 564.840000
   9587   9609   9593     1   112.4800480 524.673600
   9588   9591   9592     1   111.5100476 526.347200
   9588   9591   9599     1   110.1900474 564.840000
   9588   9587   9601     1   111.5100476 526.347200
   9588   9587   9609     1   107.9700462 569.024000
   9591   9592   9593     1   111.5100476 526.347200
   9591   9592   9598     1   110.1900474 564.840000
   9591   9588   9600     1   110.1900474 564.840000
   9592   9593   9597     1   107.9700462 569.024000
   9592   9593   9609     1   107.9700462 569.024000
   9592   9591   9599     1   110.1900474 564.840000
   9593   9592   9598     1   110.1900474 564.840000
   9597   9593   9609     1   108.2900466 608.353600
   9601   9587   9609     1   107.9700462 569.024000
   9610   9611   9614     1   111.5100476 526.347200
   9610   9611   9623     1   110.1900474 564.840000
   9610   9624   9630     1   110.1900474 564.840000
   9610   9632   9616     1   112.4800480 524.673600
   9611   9610   9624     1   111.5100476 526.347200
   9611   9610   9632     1   107.9700462 569.024000
   9611   9614   9615     1   111.5100476 526.347200
   9611   9614   9622     1   110.1900474 564.840000
   9614   9611   9623     1   110.1900474 564.840000
   9614   9615   9616     1   111.5100476 526.347200
   9614   9615   9621     1   110.1900474 564.840000
   9615   9614   9622     1   110.1900474 564.840000
   9615   9616   9620     1   107.9700462 569.024000
   9615   9616   9632     1   107.9700462 569.024000
   9616   9615   9621     1   110.1900474 564.840000
   9620   9616   9632     1   108.2900466 608.353600
   9624   9610   9632     1   107.9700462 569.024000
   9633   9634   9637     1   111.5100476 526.347200
   9633   9634   9646     1   110.1900474 564.840000
   9633   9647   9653     1   110.1900474 564.840000
   9633   9655   9639     1   112.4800480 524.673600
   9634   9637   9638     1   111.5100476 526.347200
   9634   9637   9645     1   110.1900474 564.840000
   9634   9633   9647     1   111.5100476 526.347200
   9634   9633   9655     1   107.9700462 569.024000
   9637   9638   9639     1   111.5100476 526.347200
   9637   9638   9644     1   110.1900474 564.840000
   9637   9634   9646     1   110.1900474 564.840000
   9638   9639   9643     1   107.9700462 569.024000
   9638   9639   9655     1   107.9700462 569.024000
   9638   9637   9645     1   110.1900474 564.840000
   9639   9638   9644     1   110.1900474 564.840000
   9643   9639   9655     1   108.2900466 608.353600
   9647   9633   9655     1   107.9700462 569.024000
   9656   9657   9660     1   111.5100476 526.347200
   9656   9657   9669     1   110.1900474 564.840000
   9656   9670   9676     1   110.1900474 564.840000
   9656   9678   9662     1   112.4800480 524.673600
   9657   9656   9670     1   111.5100476 526.347200
   9657   9656   9678     1   107.9700462 569.024000
   9657   9660   9661     1   111.5100476 526.347200
   9657   9660   9668     1   110.1900474 564.840000
   9660   9657   9669     1   110.1900474 564.840000
   9660   9661   9662     1   111.5100476 526.347200
   9660   9661   9667     1   110.1900474 564.840000
   9661   9660   9668     1   110.1900474 564.840000
   9661   9662   9666     1   107.9700462 569.024000
   9661   9662   9678     1   107.9700462 569.024000
   9662   9661   9667     1   110.1900474 564.840000
   9666   9662   9678     1   108.2900466 608.353600
   9670   9656   9678     1   107.9700462 569.024000
   9679   9680   9683     1   111.5100476 526.347200
   9679   9680   9692     1   110.1900474 564.840000
   9679   9693   9699     1   110.1900474 564.840000
   9679   9701   9685     1   112.4800480 524.673600
   9680   9683   9684     1   111.5100476 526.347200
   9680   9683   9691     1   110.1900474 564.840000
   9680   9679   9693     1   111.5100476 526.347200
   9680   9679   9701     1   107.9700462 569.024000
   9683   9684   9685     1   111.5100476 526.347200
   9683   9684   9690     1   110.1900474 564.840000
   9683   9680   9692     1   110.1900474 564.840000
   9684   9685   9689     1   107.9700462 569.024000
   9684   9685   9701     1   107.9700462 569.024000
   9684   9683   9691     1   110.1900474 564.840000
   9685   9684   9690     1   110.1900474 564.840000
   9689   9685   9701     1   108.2900466 608.353600
   9693   9679   9701     1   107.9700462 569.024000
   9702   9703   9706     1   111.5100476 526.347200
   9702   9703   9715     1   110.1900474 564.840000
   9702   9716   9722     1   110.1900474 564.840000
   9702   9724   9708     1   112.4800480 524.673600
   9703   9702   9716     1   111.5100476 526.347200
   9703   9702   9724     1   107.9700462 569.024000
   9703   9706   9707     1   111.5100476 526.347200
   9703   9706   9714     1   110.1900474 564.840000
   9706   9703   9715     1   110.1900474 564.840000
   9706   9707   9708     1   111.5100476 526.347200
   9706   9707   9713     1   110.1900474 564.840000
   9707   9706   9714     1   110.1900474 564.840000
   9707   9708   9712     1   107.9700462 569.024000
   9707   9708   9724     1   107.9700462 569.024000
   9708   9707   9713     1   110.1900474 564.840000
   9712   9708   9724     1   108.2900466 608.353600
   9716   9702   9724     1   107.9700462 569.024000
   9725   9726   9729     1   111.5100476 526.347200
   9725   9726   9738     1   110.1900474 564.840000
   9725   9739   9745     1   110.1900474 564.840000
   9725   9747   9731     1   112.4800480 524.673600
   9726   9729   9730     1   111.5100476 526.347200
   9726   9729   9737     1   110.1900474 564.840000
   9726   9725   9739     1   111.5100476 526.347200
   9726   9725   9747     1   107.9700462 569.024000
   9729   9730   9731     1   111.5100476 526.347200
   9729   9730   9736     1   110.1900474 564.840000
   9729   9726   9738     1   110.1900474 564.840000
   9730   9731   9735     1   107.9700462 569.024000
   9730   9731   9747     1   107.9700462 569.024000
   9730   9729   9737     1   110.1900474 564.840000
   9731   9730   9736     1   110.1900474 564.840000
   9735   9731   9747     1   108.2900466 608.353600
   9739   9725   9747     1   107.9700462 569.024000
   9748   9749   9752     1   111.5100476 526.347200
   9748   9749   9761     1   110.1900474 564.840000
   9748   9762   9768     1   110.1900474 564.840000
   9748   9770   9754     1   112.4800480 524.673600
   9749   9748   9762     1   111.5100476 526.347200
   9749   9748   9770     1   107.9700462 569.024000
   9749   9752   9753     1   111.5100476 526.347200
   9749   9752   9760     1   110.1900474 564.840000
   9752   9749   9761     1   110.1900474 564.840000
   9752   9753   9754     1   111.5100476 526.347200
   9752   9753   9759     1   110.1900474 564.840000
   9753   9752   9760     1   110.1900474 564.840000
   9753   9754   9758     1   107.9700462 569.024000
   9753   9754   9770     1   107.9700462 569.024000
   9754   9753   9759     1   110.1900474 564.840000
   9758   9754   9770     1   108.2900466 608.353600
   9762   9748   9770     1   107.9700462 569.024000
   9771   9772   9775     1   111.5100476 526.347200
   9771   9772   9784     1   110.1900474 564.840000
   9771   9785   9791     1   110.1900474 564.840000
   9771   9793   9777     1   112.4800480 524.673600
   9772   9775   9776     1   111.5100476 526.347200
   9772   9775   9783     1   110.1900474 564.840000
   9772   9771   9785     1   111.5100476 526.347200
   9772   9771   9793     1   107.9700462 569.024000
   9775   9776   9777     1   111.5100476 526.347200
   9775   9776   9782     1   110.1900474 564.840000
   9775   9772   9784     1   110.1900474 564.840000
   9776   9777   9781     1   107.9700462 569.024000
   9776   9777   9793     1   107.9700462 569.024000
   9776   9775   9783     1   110.1900474 564.840000
   9777   9776   9782     1   110.1900474 564.840000
   9781   9777   9793     1   108.2900466 608.353600
   9785   9771   9793     1   107.9700462 569.024000
   9794   9795   9798     1   111.5100476 526.347200
   9794   9795   9807     1   110.1900474 564.840000
   9794   9808   9814     1   110.1900474 564.840000
   9794   9816   9800     1   112.4800480 524.673600
   9795   9794   9808     1   111.5100476 526.347200
   9795   9794   9816     1   107.9700462 569.024000
   9795   9798   9799     1   111.5100476 526.347200
   9795   9798   9806     1   110.1900474 564.840000
   9798   9795   9807     1   110.1900474 564.840000
   9798   9799   9800     1   111.5100476 526.347200
   9798   9799   9805     1   110.1900474 564.840000
   9799   9798   9806     1   110.1900474 564.840000
   9799   9800   9804     1   107.9700462 569.024000
   9799   9800   9816     1   107.9700462 569.024000
   9800   9799   9805     1   110.1900474 564.840000
   9804   9800   9816     1   108.2900466 608.353600
   9808   9794   9816     1   107.9700462 569.024000
   9817   9818   9821     1   111.5100476 526.347200
   9817   9818   9830     1   110.1900474 564.840000
   9817   9831   9837     1   110.1900474 564.840000
   9817   9839   9823     1   112.4800480 524.673600
   9818   9821   9822     1   111.5100476 526.347200
   9818   9821   9829     1   110.1900474 564.840000
   9818   9817   9831     1   111.5100476 526.347200
   9818   9817   9839     1   107.9700462 569.024000
   9821   9822   9823     1   111.5100476 526.347200
   9821   9822   9828     1   110.1900474 564.840000
   9821   9818   9830     1   110.1900474 564.840000
   9822   9823   9827     1   107.9700462 569.024000
   9822   9823   9839     1   107.9700462 569.024000
   9822   9821   9829     1   110.1900474 564.840000
   9823   9822   9828     1   110.1900474 564.840000
   9827   9823   9839     1   108.2900466 608.353600
   9831   9817   9839     1   107.9700462 569.024000
   9840   9841   9844     1   111.5100476 526.347200
   9840   9841   9853     1   110.1900474 564.840000
   9840   9854   9860     1   110.1900474 564.840000
   9840   9862   9846     1   112.4800480 524.673600
   9841   9840   9854     1   111.5100476 526.347200
   9841   9840   9862     1   107.9700462 569.024000
   9841   9844   9845     1   111.5100476 526.347200
   9841   9844   9852     1   110.1900474 564.840000
   9844   9841   9853     1   110.1900474 564.840000
   9844   9845   9846     1   111.5100476 526.347200
   9844   9845   9851     1   110.1900474 564.840000
   9845   9844   9852     1   110.1900474 564.840000
   9845   9846   9850     1   107.9700462 569.024000
   9845   9846   9862     1   107.9700462 569.024000
   9846   9845   9851     1   110.1900474 564.840000
   9850   9846   9862     1   108.2900466 608.353600
   9854   9840   9862     1   107.9700462 569.024000
   9863   9864   9867     1   111.5100476 526.347200
   9863   9864   9876     1   110.1900474 564.840000
   9863   9877   9883     1   110.1900474 564.840000
   9863   9885   9869     1   112.4800480 524.673600
   9864   9867   9868     1   111.5100476 526.347200
   9864   9867   9875     1   110.1900474 564.840000
   9864   9863   9877     1   111.5100476 526.347200
   9864   9863   9885     1   107.9700462 569.024000
   9867   9868   9869     1   111.5100476 526.347200
   9867   9868   9874     1   110.1900474 564.840000
   9867   9864   9876     1   110.1900474 564.840000
   9868   9869   9873     1   107.9700462 569.024000
   9868   9869   9885     1   107.9700462 569.024000
   9868   9867   9875     1   110.1900474 564.840000
   9869   9868   9874     1   110.1900474 564.840000
   9873   9869   9885     1   108.2900466 608.353600
   9877   9863   9885     1   107.9700462 569.024000
   9886   9887   9890     1   111.5100476 526.347200
   9886   9887   9899     1   110.1900474 564.840000
   9886   9900   9906     1   110.1900474 564.840000
   9886   9908   9892     1   112.4800480 524.673600
   9887   9886   9900     1   111.5100476 526.347200
   9887   9886   9908     1   107.9700462 569.024000
   9887   9890   9891     1   111.5100476 526.347200
   9887   9890   9898     1   110.1900474 564.840000
   9890   9887   9899     1   110.1900474 564.840000
   9890   9891   9892     1   111.5100476 526.347200
   9890   9891   9897     1   110.1900474 564.840000
   9891   9890   9898     1   110.1900474 564.840000
   9891   9892   9896     1   107.9700462 569.024000
   9891   9892   9908     1   107.9700462 569.024000
   9892   9891   9897     1   110.1900474 564.840000
   9896   9892   9908     1   108.2900466 608.353600
   9900   9886   9908     1   107.9700462 569.024000
   9909   9910   9913     1   111.5100476 526.347200
   9909   9910   9922     1   110.1900474 564.840000
   9909   9923   9929     1   110.1900474 564.840000
   9909   9931   9915     1   112.4800480 524.673600
   9910   9913   9914     1   111.5100476 526.347200
   9910   9913   9921     1   110.1900474 564.840000
   9910   9909   9923     1   111.5100476 526.347200
   9910   9909   9931     1   107.9700462 569.024000
   9913   9914   9915     1   111.5100476 526.347200
   9913   9914   9920     1   110.1900474 564.840000
   9913   9910   9922     1   110.1900474 564.840000
   9914   9915   9919     1   107.9700462 569.024000
   9914   9915   9931     1   107.9700462 569.024000
   9914   9913   9921     1   110.1900474 564.840000
   9915   9914   9920     1   110.1900474 564.840000
   9919   9915   9931     1   108.2900466 608.353600
   9923   9909   9931     1   107.9700462 569.024000
   9932   9933   9936     1   111.5100476 526.347200
   9932   9933   9945     1   110.1900474 564.840000
   9932   9946   9952     1   110.1900474 564.840000
   9932   9954   9938     1   112.4800480 524.673600
   9933   9932   9946     1   111.5100476 526.347200
   9933   9932   9954     1   107.9700462 569.024000
   9933   9936   9937     1   111.5100476 526.347200
   9933   9936   9944     1   110.1900474 564.840000
   9936   9933   9945     1   110.1900474 564.840000
   9936   9937   9938     1   111.5100476 526.347200
   9936   9937   9943     1   110.1900474 564.840000
   9937   9936   9944     1   110.1900474 564.840000
   9937   9938   9942     1   107.9700462 569.024000
   9937   9938   9954     1   107.9700462 569.024000
   9938   9937   9943     1   110.1900474 564.840000
   9942   9938   9954     1   108.2900466 608.353600
   9946   9932   9954     1   107.9700462 569.024000
   9955   9956   9959     1   111.5100476 526.347200
   9955   9956   9968     1   110.1900474 564.840000
   9955   9969   9975     1   110.1900474 564.840000
   9955   9977   9961     1   112.4800480 524.673600
   9956   9959   9960     1   111.5100476 526.347200
   9956   9959   9967     1   110.1900474 564.840000
   9956   9955   9969     1   111.5100476 526.347200
   9956   9955   9977     1   107.9700462 569.024000
   9959   9960   9961     1   111.5100476 526.347200
   9959   9960   9966     1   110.1900474 564.840000
   9959   9956   9968     1   110.1900474 564.840000
   9960   9961   9965     1   107.9700462 569.024000
   9960   9961   9977     1   107.9700462 569.024000
   9960   9959   9967     1   110.1900474 564.840000
   9961   9960   9966     1   110.1900474 564.840000
   9965   9961   9977     1   108.2900466 608.353600
   9969   9955   9977     1   107.9700462 569.024000
   9978   9979   9982     1   111.5100476 526.347200
   9978   9979   9991     1   110.1900474 564.840000
   9978   9992   9998     1   110.1900474 564.840000
   9978  10000   9984     1   112.4800480 524.673600
   9979   9978   9992     1   111.5100476 526.347200
   9979   9978  10000     1   107.9700462 569.024000
   9979   9982   9983     1   111.5100476 526.347200
   9979   9982   9990     1   110.1900474 564.840000
   9982   9979   9991     1   110.1900474 564.840000
   9982   9983   9984     1   111.5100476 526.347200
   9982   9983   9989     1   110.1900474 564.840000
   9983   9982   9990     1   110.1900474 564.840000
   9983   9984   9988     1   107.9700462 569.024000
   9983   9984  10000     1   107.9700462 569.024000
   9984   9983   9989     1   110.1900474 564.840000
   9988   9984  10000     1   108.2900466 608.353600
   9992   9978  10000     1   107.9700462 569.024000
  10001  10002  10005     1   111.5100476 526.347200
  10001  10002  10014     1   110.1900474 564.840000
  10001  10015  10021     1   110.1900474 564.840000
  10001  10023  10007     1   112.4800480 524.673600
  10002  10005  10006     1   111.5100476 526.347200
  10002  10005  10013     1   110.1900474 564.840000
  10002  10001  10015     1   111.5100476 526.347200
  10002  10001  10023     1   107.9700462 569.024000
  10005  10006  10007     1   111.5100476 526.347200
  10005  10006  10012     1   110.1900474 564.840000
  10005  10002  10014     1   110.1900474 564.840000
  10006  10007  10011     1   107.9700462 569.024000
  10006  10007  10023     1   107.9700462 569.024000
  10006  10005  10013     1   110.1900474 564.840000
  10007  10006  10012     1   110.1900474 564.840000
  10011  10007  10023     1   108.2900466 608.353600
  10015  10001  10023     1   107.9700462 569.024000
  10024  10025  10028     1   111.5100476 526.347200
  10024  10025  10037     1   110.1900474 564.840000
  10024  10038  10044     1   110.1900474 564.840000
  10024  10046  10030     1   112.4800480 524.673600
  10025  10024  10038     1   111.5100476 526.347200
  10025  10024  10046     1   107.9700462 569.024000
  10025  10028  10029     1   111.5100476 526.347200
  10025  10028  10036     1   110.1900474 564.840000
  10028  10025  10037     1   110.1900474 564.840000
  10028  10029  10030     1   111.5100476 526.347200
  10028  10029  10035     1   110.1900474 564.840000
  10029  10028  10036     1   110.1900474 564.840000
  10029  10030  10034     1   107.9700462 569.024000
  10029  10030  10046     1   107.9700462 569.024000
  10030  10029  10035     1   110.1900474 564.840000
  10034  10030  10046     1   108.2900466 608.353600
  10038  10024  10046     1   107.9700462 569.024000
  10047  10048  10051     1   111.5100476 526.347200
  10047  10048  10060     1   110.1900474 564.840000
  10047  10061  10067     1   110.1900474 564.840000
  10047  10069  10053     1   112.4800480 524.673600
  10048  10051  10052     1   111.5100476 526.347200
  10048  10051  10059     1   110.1900474 564.840000
  10048  10047  10061     1   111.5100476 526.347200
  10048  10047  10069     1   107.9700462 569.024000
  10051  10052  10053     1   111.5100476 526.347200
  10051  10052  10058     1   110.1900474 564.840000
  10051  10048  10060     1   110.1900474 564.840000
  10052  10053  10057     1   107.9700462 569.024000
  10052  10053  10069     1   107.9700462 569.024000
  10052  10051  10059     1   110.1900474 564.840000
  10053  10052  10058     1   110.1900474 564.840000
  10057  10053  10069     1   108.2900466 608.353600
  10061  10047  10069     1   107.9700462 569.024000
  10070  10071  10074     1   111.5100476 526.347200
  10070  10071  10083     1   110.1900474 564.840000
  10070  10084  10090     1   110.1900474 564.840000
  10070  10092  10076     1   112.4800480 524.673600
  10071  10070  10084     1   111.5100476 526.347200
  10071  10070  10092     1   107.9700462 569.024000
  10071  10074  10075     1   111.5100476 526.347200
  10071  10074  10082     1   110.1900474 564.840000
  10074  10071  10083     1   110.1900474 564.840000
  10074  10075  10076     1   111.5100476 526.347200
  10074  10075  10081     1   110.1900474 564.840000
  10075  10074  10082     1   110.1900474 564.840000
  10075  10076  10080     1   107.9700462 569.024000
  10075  10076  10092     1   107.9700462 569.024000
  10076  10075  10081     1   110.1900474 564.840000
  10080  10076  10092     1   108.2900466 608.353600
  10084  10070  10092     1   107.9700462 569.024000
  10093  10094  10097     1   111.5100476 526.347200
  10093  10094  10106     1   110.1900474 564.840000
  10093  10107  10113     1   110.1900474 564.840000
  10093  10115  10099     1   112.4800480 524.673600
  10094  10097  10098     1   111.5100476 526.347200
  10094  10097  10105     1   110.1900474 564.840000
  10094  10093  10107     1   111.5100476 526.347200
  10094  10093  10115     1   107.9700462 569.024000
  10097  10098  10099     1   111.5100476 526.347200
  10097  10098  10104     1   110.1900474 564.840000
  10097  10094  10106     1   110.1900474 564.840000
  10098  10099  10103     1   107.9700462 569.024000
  10098  10099  10115     1   107.9700462 569.024000
  10098  10097  10105     1   110.1900474 564.840000
  10099  10098  10104     1   110.1900474 564.840000
  10103  10099  10115     1   108.2900466 608.353600
  10107  10093  10115     1   107.9700462 569.024000
      1      2      3     1   108.0100461 406.684800
      1      2      4     1   108.0100461 406.684800
      1      5      6     1   108.0100461 406.684800
      1      5      7     1   108.0100461 406.684800
      1      8      9     1   108.0100461 406.684800
      1      8     10     1   108.0100461 406.684800
      2      1     29     1   110.1100470 384.091200
      2     14     15     1   109.8000471 387.438400
      2     14     16     1   109.8000471 387.438400
      3      2     14     1   110.5600475 386.601600
      3      2      4     1   109.7500473 328.025600
      4      2     14     1   110.5600475 386.601600
      5      1     29     1   110.1100470 384.091200
      5     17     18     1   109.8000471 387.438400
      5     17     19     1   109.8000471 387.438400
      6      5     17     1   110.5600475 386.601600
      6      5      7     1   109.7500473 328.025600
      7      5     17     1   110.5600475 386.601600
      8      1     29     1   110.1100470 384.091200
      8     11     12     1   109.8000471 387.438400
      8     11     13     1   109.8000471 387.438400
      9      8     11     1   110.5600475 386.601600
      9      8     10     1   109.7500473 328.025600
     10      8     11     1   110.5600475 386.601600
     11     23     24     1   109.5600471 388.275200
     11     23     25     1   109.5600471 388.275200
     12     11     23     1   109.8000471 387.438400
     12     11     13     1   107.5800459 329.699200
     13     11     23     1   109.8000471 387.438400
     14     26     27     1   109.5600471 388.275200
     14     26     28     1   109.5600471 388.275200
     15     14     26     1   109.8000471 387.438400
     15     14     16     1   107.5800459 329.699200
     16     14     26     1   109.8000471 387.438400
     17     20     21     1   109.5600471 388.275200
     17     20     22     1   109.5600471 388.275200
     18     17     20     1   109.8000471 387.438400
     18     17     19     1   107.5800459 329.699200
     19     17     20     1   109.8000471 387.438400
     21     20     58     1   109.7800468 425.094400
     21     20     22     1   108.4600466 328.025600
     22     20     58     1   109.7800468 425.094400
     24     23     88     1   109.7800468 425.094400
     24     23     25     1   108.4600466 328.025600
     25     23     88     1   109.7800468 425.094400
     27     26    118     1   109.7800468 425.094400
     27     26     28     1   108.4600466 328.025600
     28     26    118     1   109.7800468 425.094400
     30     31     32     1   108.0100461 406.684800
     30     31     33     1   108.0100461 406.684800
     30     34     35     1   108.0100461 406.684800
     30     34     36     1   108.0100461 406.684800
     30     37     38     1   108.0100461 406.684800
     30     37     39     1   108.0100461 406.684800
     31     30     59     1   110.1100470 384.091200
     31     43     44     1   109.8000471 387.438400
     31     43     45     1   109.8000471 387.438400
     32     31     43     1   110.5600475 386.601600
     32     31     33     1   109.7500473 328.025600
     33     31     43     1   110.5600475 386.601600
     34     30     59     1   110.1100470 384.091200
     34     46     47     1   109.8000471 387.438400
     34     46     48     1   109.8000471 387.438400
     35     34     46     1   110.5600475 386.601600
     35     34     36     1   109.7500473 328.025600
     36     34     46     1   110.5600475 386.601600
     37     30     59     1   110.1100470 384.091200
     37     40     41     1   109.8000471 387.438400
     37     40     42     1   109.8000471 387.438400
     38     37     40     1   110.5600475 386.601600
     38     37     39     1   109.7500473 328.025600
     39     37     40     1   110.5600475 386.601600
     40     49     50     1   109.5600471 388.275200
     40     49     51     1   109.5600471 388.275200
     41     40     49     1   109.8000471 387.438400
     41     40     42     1   107.5800459 329.699200
     42     40     49     1   109.8000471 387.438400
     43     55     56     1   109.5600471 388.275200
     43     55     57     1   109.5600471 388.275200
     44     43     55     1   109.8000471 387.438400
     44     43     45     1   107.5800459 329.699200
     45     43     55     1   109.8000471 387.438400
     46     52     53     1   109.5600471 388.275200
     46     52     54     1   109.5600471 388.275200
     47     46     52     1   109.8000471 387.438400
     47     46     48     1   107.5800459 329.699200
     48     46     52     1   109.8000471 387.438400
     50     49     58     1   109.7800468 425.094400
     50     49     51     1   108.4600466 328.025600
     51     49     58     1   109.7800468 425.094400
     53     52    148     1   109.7800468 425.094400
     53     52     54     1   108.4600466 328.025600
     54     52    148     1   109.7800468 425.094400
     56     55    178     1   109.7800468 425.094400
     56     55     57     1   108.4600466 328.025600
     57     55    178     1   109.7800468 425.094400
     60     61     62     1   108.0100461 406.684800
     60     61     63     1   108.0100461 406.684800
     60     64     65     1   108.0100461 406.684800
     60     64     66     1   108.0100461 406.684800
     60     67     68     1   108.0100461 406.684800
     60     67     69     1   108.0100461 406.684800
     61     60     89     1   110.1100470 384.091200
     61     73     74     1   109.8000471 387.438400
     61     73     75     1   109.8000471 387.438400
     62     61     73     1   110.5600475 386.601600
     62     61     63     1   109.7500473 328.025600
     63     61     73     1   110.5600475 386.601600
     64     60     89     1   110.1100470 384.091200
     64     76     77     1   109.8000471 387.438400
     64     76     78     1   109.8000471 387.438400
     65     64     76     1   110.5600475 386.601600
     65     64     66     1   109.7500473 328.025600
     66     64     76     1   110.5600475 386.601600
     67     60     89     1   110.1100470 384.091200
     67     70     71     1   109.8000471 387.438400
     67     70     72     1   109.8000471 387.438400
     68     67     70     1   110.5600475 386.601600
     68     67     69     1   109.7500473 328.025600
     69     67     70     1   110.5600475 386.601600
     70     79     80     1   109.5600471 388.275200
     70     79     81     1   109.5600471 388.275200
     71     70     79     1   109.8000471 387.438400
     71     70     72     1   107.5800459 329.699200
     72     70     79     1   109.8000471 387.438400
     73     85     86     1   109.5600471 388.275200
     73     85     87     1   109.5600471 388.275200
     74     73     85     1   109.8000471 387.438400
     74     73     75     1   107.5800459 329.699200
     75     73     85     1   109.8000471 387.438400
     76     82     83     1   109.5600471 388.275200
     76     82     84     1   109.5600471 388.275200
     77     76     82     1   109.8000471 387.438400
     77     76     78     1   107.5800459 329.699200
     78     76     82     1   109.8000471 387.438400
     80     79     88     1   109.7800468 425.094400
     80     79     81     1   108.4600466 328.025600
     81     79     88     1   109.7800468 425.094400
     83     82    208     1   109.7800468 425.094400
     83     82     84     1   108.4600466 328.025600
     84     82    208     1   109.7800468 425.094400
     86     85    238     1   109.7800468 425.094400
     86     85     87     1   108.4600466 328.025600
     87     85    238     1   109.7800468 425.094400
     90     91     92     1   108.0100461 406.684800
     90     91     93     1   108.0100461 406.684800
     90     94     95     1   108.0100461 406.684800
     90     94     96     1   108.0100461 406.684800
     90     97     98     1   108.0100461 406.684800
     90     97     99     1   108.0100461 406.684800
     91     90    119     1   110.1100470 384.091200
     91    103    104     1   109.8000471 387.438400
     91    103    105     1   109.8000471 387.438400
     92     91    103     1   110.5600475 386.601600
     92     91     93     1   109.7500473 328.025600
     93     91    103     1   110.5600475 386.601600
     94     90    119     1   110.1100470 384.091200
     94    106    107     1   109.8000471 387.438400
     94    106    108     1   109.8000471 387.438400
     95     94    106     1   110.5600475 386.601600
     95     94     96     1   109.7500473 328.025600
     96     94    106     1   110.5600475 386.601600
     97     90    119     1   110.1100470 384.091200
     97    100    101     1   109.8000471 387.438400
     97    100    102     1   109.8000471 387.438400
     98     97    100     1   110.5600475 386.601600
     98     97     99     1   109.7500473 328.025600
     99     97    100     1   110.5600475 386.601600
    100    109    110     1   109.5600471 388.275200
    100    109    111     1   109.5600471 388.275200
    101    100    109     1   109.8000471 387.438400
    101    100    102     1   107.5800459 329.699200
    102    100    109     1   109.8000471 387.438400
    103    115    116     1   109.5600471 388.275200
    103    115    117     1   109.5600471 388.275200
    104    103    115     1   109.8000471 387.438400
    104    103    105     1   107.5800459 329.699200
    105    103    115     1   109.8000471 387.438400
    106    112    113     1   109.5600471 388.275200
    106    112    114     1   109.5600471 388.275200
    107    106    112     1   109.8000471 387.438400
    107    106    108     1   107.5800459 329.699200
    108    106    112     1   109.8000471 387.438400
    110    109    118     1   109.7800468 425.094400
    110    109    111     1   108.4600466 328.025600
    111    109    118     1   109.7800468 425.094400
    113    112    268     1   109.7800468 425.094400
    113    112    114     1   108.4600466 328.025600
    114    112    268     1   109.7800468 425.094400
    116    115    298     1   109.7800468 425.094400
    116    115    117     1   108.4600466 328.025600
    117    115    298     1   109.7800468 425.094400
    120    121    122     1   108.0100461 406.684800
    120    121    123     1   108.0100461 406.684800
    120    124    125     1   108.0100461 406.684800
    120    124    126     1   108.0100461 406.684800
    120    127    128     1   108.0100461 406.684800
    120    127    129     1   108.0100461 406.684800
    121    120    149     1   110.1100470 384.091200
    121    133    134     1   109.8000471 387.438400
    121    133    135     1   109.8000471 387.438400
    122    121    133     1   110.5600475 386.601600
    122    121    123     1   109.7500473 328.025600
    123    121    133     1   110.5600475 386.601600
    124    120    149     1   110.1100470 384.091200
    124    136    137     1   109.8000471 387.438400
    124    136    138     1   109.8000471 387.438400
    125    124    136     1   110.5600475 386.601600
    125    124    126     1   109.7500473 328.025600
    126    124    136     1   110.5600475 386.601600
    127    120    149     1   110.1100470 384.091200
    127    130    131     1   109.8000471 387.438400
    127    130    132     1   109.8000471 387.438400
    128    127    130     1   110.5600475 386.601600
    128    127    129     1   109.7500473 328.025600
    129    127    130     1   110.5600475 386.601600
    130    139    140     1   109.5600471 388.275200
    130    139    141     1   109.5600471 388.275200
    131    130    139     1   109.8000471 387.438400
    131    130    132     1   107.5800459 329.699200
    132    130    139     1   109.8000471 387.438400
    133    145    146     1   109.5600471 388.275200
    133    145    147     1   109.5600471 388.275200
    134    133    145     1   109.8000471 387.438400
    134    133    135     1   107.5800459 329.699200
    135    133    145     1   109.8000471 387.438400
    136    142    143     1   109.5600471 388.275200
    136    142    144     1   109.5600471 388.275200
    137    136    142     1   109.8000471 387.438400
    137    136    138     1   107.5800459 329.699200
    138    136    142     1   109.8000471 387.438400
    140    139    148     1   109.7800468 425.094400
    140    139    141     1   108.4600466 328.025600
    141    139    148     1   109.7800468 425.094400
    143    142    328     1   109.7800468 425.094400
    143    142    144     1   108.4600466 328.025600
    144    142    328     1   109.7800468 425.094400
    146    145    358     1   109.7800468 425.094400
    146    145    147     1   108.4600466 328.025600
    147    145    358     1   109.7800468 425.094400
    150    151    152     1   108.0100461 406.684800
    150    151    153     1   108.0100461 406.684800
    150    154    155     1   108.0100461 406.684800
    150    154    156     1   108.0100461 406.684800
    150    157    158     1   108.0100461 406.684800
    150    157    159     1   108.0100461 406.684800
    151    150    179     1   110.1100470 384.091200
    151    163    164     1   109.8000471 387.438400
    151    163    165     1   109.8000471 387.438400
    152    151    163     1   110.5600475 386.601600
    152    151    153     1   109.7500473 328.025600
    153    151    163     1   110.5600475 386.601600
    154    150    179     1   110.1100470 384.091200
    154    166    167     1   109.8000471 387.438400
    154    166    168     1   109.8000471 387.438400
    155    154    166     1   110.5600475 386.601600
    155    154    156     1   109.7500473 328.025600
    156    154    166     1   110.5600475 386.601600
    157    150    179     1   110.1100470 384.091200
    157    160    161     1   109.8000471 387.438400
    157    160    162     1   109.8000471 387.438400
    158    157    160     1   110.5600475 386.601600
    158    157    159     1   109.7500473 328.025600
    159    157    160     1   110.5600475 386.601600
    160    169    170     1   109.5600471 388.275200
    160    169    171     1   109.5600471 388.275200
    161    160    169     1   109.8000471 387.438400
    161    160    162     1   107.5800459 329.699200
    162    160    169     1   109.8000471 387.438400
    163    175    176     1   109.5600471 388.275200
    163    175    177     1   109.5600471 388.275200
    164    163    175     1   109.8000471 387.438400
    164    163    165     1   107.5800459 329.699200
    165    163    175     1   109.8000471 387.438400
    166    172    173     1   109.5600471 388.275200
    166    172    174     1   109.5600471 388.275200
    167    166    172     1   109.8000471 387.438400
    167    166    168     1   107.5800459 329.699200
    168    166    172     1   109.8000471 387.438400
    170    169    178     1   109.7800468 425.094400
    170    169    171     1   108.4600466 328.025600
    171    169    178     1   109.7800468 425.094400
    173    172    388     1   109.7800468 425.094400
    173    172    174     1   108.4600466 328.025600
    174    172    388     1   109.7800468 425.094400
    176    175    418     1   109.7800468 425.094400
    176    175    177     1   108.4600466 328.025600
    177    175    418     1   109.7800468 425.094400
    180    181    182     1   108.0100461 406.684800
    180    181    183     1   108.0100461 406.684800
    180    184    185     1   108.0100461 406.684800
    180    184    186     1   108.0100461 406.684800
    180    187    188     1   108.0100461 406.684800
    180    187    189     1   108.0100461 406.684800
    181    180    209     1   110.1100470 384.091200
    181    193    194     1   109.8000471 387.438400
    181    193    195     1   109.8000471 387.438400
    182    181    193     1   110.5600475 386.601600
    182    181    183     1   109.7500473 328.025600
    183    181    193     1   110.5600475 386.601600
    184    180    209     1   110.1100470 384.091200
    184    196    197     1   109.8000471 387.438400
    184    196    198     1   109.8000471 387.438400
    185    184    196     1   110.5600475 386.601600
    185    184    186     1   109.7500473 328.025600
    186    184    196     1   110.5600475 386.601600
    187    180    209     1   110.1100470 384.091200
    187    190    191     1   109.8000471 387.438400
    187    190    192     1   109.8000471 387.438400
    188    187    190     1   110.5600475 386.601600
    188    187    189     1   109.7500473 328.025600
    189    187    190     1   110.5600475 386.601600
    190    199    200     1   109.5600471 388.275200
    190    199    201     1   109.5600471 388.275200
    191    190    199     1   109.8000471 387.438400
    191    190    192     1   107.5800459 329.699200
    192    190    199     1   109.8000471 387.438400
    193    205    206     1   109.5600471 388.275200
    193    205    207     1   109.5600471 388.275200
    194    193    205     1   109.8000471 387.438400
    194    193    195     1   107.5800459 329.699200
    195    193    205     1   109.8000471 387.438400
    196    202    203     1   109.5600471 388.275200
    196    202    204     1   109.5600471 388.275200
    197    196    202     1   109.8000471 387.438400
    197    196    198     1   107.5800459 329.699200
    198    196    202     1   109.8000471 387.438400
    200    199    208     1   109.7800468 425.094400
    200    199    201     1   108.4600466 328.025600
    201    199    208     1   109.7800468 425.094400
    203    202    448     1   109.7800468 425.094400
    203    202    204     1   108.4600466 328.025600
    204    202    448     1   109.7800468 425.094400
    206    205    478     1   109.7800468 425.094400
    206    205    207     1   108.4600466 328.025600
    207    205    478     1   109.7800468 425.094400
    210    211    212     1   108.0100461 406.684800
    210    211    213     1   108.0100461 406.684800
    210    214    215     1   108.0100461 406.684800
    210    214    216     1   108.0100461 406.684800
    210    217    218     1   108.0100461 406.684800
    210    217    219     1   108.0100461 406.684800
    211    210    239     1   110.1100470 384.091200
    211    223    224     1   109.8000471 387.438400
    211    223    225     1   109.8000471 387.438400
    212    211    223     1   110.5600475 386.601600
    212    211    213     1   109.7500473 328.025600
    213    211    223     1   110.5600475 386.601600
    214    210    239     1   110.1100470 384.091200
    214    226    227     1   109.8000471 387.438400
    214    226    228     1   109.8000471 387.438400
    215    214    226     1   110.5600475 386.601600
    215    214    216     1   109.7500473 328.025600
    216    214    226     1   110.5600475 386.601600
    217    210    239     1   110.1100470 384.091200
    217    220    221     1   109.8000471 387.438400
    217    220    222     1   109.8000471 387.438400
    218    217    220     1   110.5600475 386.601600
    218    217    219     1   109.7500473 328.025600
    219    217    220     1   110.5600475 386.601600
    220    229    230     1   109.5600471 388.275200
    220    229    231     1   109.5600471 388.275200
    221    220    229     1   109.8000471 387.438400
    221    220    222     1   107.5800459 329.699200
    222    220    229     1   109.8000471 387.438400
    223    235    236     1   109.5600471 388.275200
    223    235    237     1   109.5600471 388.275200
    224    223    235     1   109.8000471 387.438400
    224    223    225     1   107.5800459 329.699200
    225    223    235     1   109.8000471 387.438400
    226    232    233     1   109.5600471 388.275200
    226    232    234     1   109.5600471 388.275200
    227    226    232     1   109.8000471 387.438400
    227    226    228     1   107.5800459 329.699200
    228    226    232     1   109.8000471 387.438400
    230    229    238     1   109.7800468 425.094400
    230    229    231     1   108.4600466 328.025600
    231    229    238     1   109.7800468 425.094400
    233    232    508     1   109.7800468 425.094400
    233    232    234     1   108.4600466 328.025600
    234    232    508     1   109.7800468 425.094400
    236    235    538     1   109.7800468 425.094400
    236    235    237     1   108.4600466 328.025600
    237    235    538     1   109.7800468 425.094400
    240    241    242     1   108.0100461 406.684800
    240    241    243     1   108.0100461 406.684800
    240    244    245     1   108.0100461 406.684800
    240    244    246     1   108.0100461 406.684800
    240    247    248     1   108.0100461 406.684800
    240    247    249     1   108.0100461 406.684800
    241    240    269     1   110.1100470 384.091200
    241    253    254     1   109.8000471 387.438400
    241    253    255     1   109.8000471 387.438400
    242    241    253     1   110.5600475 386.601600
    242    241    243     1   109.7500473 328.025600
    243    241    253     1   110.5600475 386.601600
    244    240    269     1   110.1100470 384.091200
    244    256    257     1   109.8000471 387.438400
    244    256    258     1   109.8000471 387.438400
    245    244    256     1   110.5600475 386.601600
    245    244    246     1   109.7500473 328.025600
    246    244    256     1   110.5600475 386.601600
    247    240    269     1   110.1100470 384.091200
    247    250    251     1   109.8000471 387.438400
    247    250    252     1   109.8000471 387.438400
    248    247    250     1   110.5600475 386.601600
    248    247    249     1   109.7500473 328.025600
    249    247    250     1   110.5600475 386.601600
    250    259    260     1   109.5600471 388.275200
    250    259    261     1   109.5600471 388.275200
    251    250    259     1   109.8000471 387.438400
    251    250    252     1   107.5800459 329.699200
    252    250    259     1   109.8000471 387.438400
    253    265    266     1   109.5600471 388.275200
    253    265    267     1   109.5600471 388.275200
    254    253    265     1   109.8000471 387.438400
    254    253    255     1   107.5800459 329.699200
    255    253    265     1   109.8000471 387.438400
    256    262    263     1   109.5600471 388.275200
    256    262    264     1   109.5600471 388.275200
    257    256    262     1   109.8000471 387.438400
    257    256    258     1   107.5800459 329.699200
    258    256    262     1   109.8000471 387.438400
    260    259    268     1   109.7800468 425.094400
    260    259    261     1   108.4600466 328.025600
    261    259    268     1   109.7800468 425.094400
    263    262    568     1   109.7800468 425.094400
    263    262    264     1   108.4600466 328.025600
    264    262    568     1   109.7800468 425.094400
    266    265    598     1   109.7800468 425.094400
    266    265    267     1   108.4600466 328.025600
    267    265    598     1   109.7800468 425.094400
    270    271    272     1   108.0100461 406.684800
    270    271    273     1   108.0100461 406.684800
    270    274    275     1   108.0100461 406.684800
    270    274    276     1   108.0100461 406.684800
    270    277    278     1   108.0100461 406.684800
    270    277    279     1   108.0100461 406.684800
    271    270    299     1   110.1100470 384.091200
    271    283    284     1   109.8000471 387.438400
    271    283    285     1   109.8000471 387.438400
    272    271    283     1   110.5600475 386.601600
    272    271    273     1   109.7500473 328.025600
    273    271    283     1   110.5600475 386.601600
    274    270    299     1   110.1100470 384.091200
    274    286    287     1   109.8000471 387.438400
    274    286    288     1   109.8000471 387.438400
    275    274    286     1   110.5600475 386.601600
    275    274    276     1   109.7500473 328.025600
    276    274    286     1   110.5600475 386.601600
    277    270    299     1   110.1100470 384.091200
    277    280    281     1   109.8000471 387.438400
    277    280    282     1   109.8000471 387.438400
    278    277    280     1   110.5600475 386.601600
    278    277    279     1   109.7500473 328.025600
    279    277    280     1   110.5600475 386.601600
    280    289    290     1   109.5600471 388.275200
    280    289    291     1   109.5600471 388.275200
    281    280    289     1   109.8000471 387.438400
    281    280    282     1   107.5800459 329.699200
    282    280    289     1   109.8000471 387.438400
    283    295    296     1   109.5600471 388.275200
    283    295    297     1   109.5600471 388.275200
    284    283    295     1   109.8000471 387.438400
    284    283    285     1   107.5800459 329.699200
    285    283    295     1   109.8000471 387.438400
    286    292    293     1   109.5600471 388.275200
    286    292    294     1   109.5600471 388.275200
    287    286    292     1   109.8000471 387.438400
    287    286    288     1   107.5800459 329.699200
    288    286    292     1   109.8000471 387.438400
    290    289    298     1   109.7800468 425.094400
    290    289    291     1   108.4600466 328.025600
    291    289    298     1   109.7800468 425.094400
    293    292    628     1   109.7800468 425.094400
    293    292    294     1   108.4600466 328.025600
    294    292    628     1   109.7800468 425.094400
    296    295    658     1   109.7800468 425.094400
    296    295    297     1   108.4600466 328.025600
    297    295    658     1   109.7800468 425.094400
    300    301    302     1   108.0100461 406.684800
    300    301    303     1   108.0100461 406.684800
    300    304    305     1   108.0100461 406.684800
    300    304    306     1   108.0100461 406.684800
    300    307    308     1   108.0100461 406.684800
    300    307    309     1   108.0100461 406.684800
    301    300    329     1   110.1100470 384.091200
    301    313    314     1   109.8000471 387.438400
    301    313    315     1   109.8000471 387.438400
    302    301    313     1   110.5600475 386.601600
    302    301    303     1   109.7500473 328.025600
    303    301    313     1   110.5600475 386.601600
    304    300    329     1   110.1100470 384.091200
    304    316    317     1   109.8000471 387.438400
    304    316    318     1   109.8000471 387.438400
    305    304    316     1   110.5600475 386.601600
    305    304    306     1   109.7500473 328.025600
    306    304    316     1   110.5600475 386.601600
    307    300    329     1   110.1100470 384.091200
    307    310    311     1   109.8000471 387.438400
    307    310    312     1   109.8000471 387.438400
    308    307    310     1   110.5600475 386.601600
    308    307    309     1   109.7500473 328.025600
    309    307    310     1   110.5600475 386.601600
    310    319    320     1   109.5600471 388.275200
    310    319    321     1   109.5600471 388.275200
    311    310    319     1   109.8000471 387.438400
    311    310    312     1   107.5800459 329.699200
    312    310    319     1   109.8000471 387.438400
    313    325    326     1   109.5600471 388.275200
    313    325    327     1   109.5600471 388.275200
    314    313    325     1   109.8000471 387.438400
    314    313    315     1   107.5800459 329.699200
    315    313    325     1   109.8000471 387.438400
    316    322    323     1   109.5600471 388.275200
    316    322    324     1   109.5600471 388.275200
    317    316    322     1   109.8000471 387.438400
    317    316    318     1   107.5800459 329.699200
    318    316    322     1   109.8000471 387.438400
    320    319    328     1   109.7800468 425.094400
    320    319    321     1   108.4600466 328.025600
    321    319    328     1   109.7800468 425.094400
    323    322    688     1   109.7800468 425.094400
    323    322    324     1   108.4600466 328.025600
    324    322    688     1   109.7800468 425.094400
    326    325    718     1   109.7800468 425.094400
    326    325    327     1   108.4600466 328.025600
    327    325    718     1   109.7800468 425.094400
    330    331    332     1   108.0100461 406.684800
    330    331    333     1   108.0100461 406.684800
    330    334    335     1   108.0100461 406.684800
    330    334    336     1   108.0100461 406.684800
    330    337    338     1   108.0100461 406.684800
    330    337    339     1   108.0100461 406.684800
    331    330    359     1   110.1100470 384.091200
    331    343    344     1   109.8000471 387.438400
    331    343    345     1   109.8000471 387.438400
    332    331    343     1   110.5600475 386.601600
    332    331    333     1   109.7500473 328.025600
    333    331    343     1   110.5600475 386.601600
    334    330    359     1   110.1100470 384.091200
    334    346    347     1   109.8000471 387.438400
    334    346    348     1   109.8000471 387.438400
    335    334    346     1   110.5600475 386.601600
    335    334    336     1   109.7500473 328.025600
    336    334    346     1   110.5600475 386.601600
    337    330    359     1   110.1100470 384.091200
    337    340    341     1   109.8000471 387.438400
    337    340    342     1   109.8000471 387.438400
    338    337    340     1   110.5600475 386.601600
    338    337    339     1   109.7500473 328.025600
    339    337    340     1   110.5600475 386.601600
    340    349    350     1   109.5600471 388.275200
    340    349    351     1   109.5600471 388.275200
    341    340    349     1   109.8000471 387.438400
    341    340    342     1   107.5800459 329.699200
    342    340    349     1   109.8000471 387.438400
    343    355    356     1   109.5600471 388.275200
    343    355    357     1   109.5600471 388.275200
    344    343    355     1   109.8000471 387.438400
    344    343    345     1   107.5800459 329.699200
    345    343    355     1   109.8000471 387.438400
    346    352    353     1   109.5600471 388.275200
    346    352    354     1   109.5600471 388.275200
    347    346    352     1   109.8000471 387.438400
    347    346    348     1   107.5800459 329.699200
    348    346    352     1   109.8000471 387.438400
    350    349    358     1   109.7800468 425.094400
    350    349    351     1   108.4600466 328.025600
    351    349    358     1   109.7800468 425.094400
    353    352    748     1   109.7800468 425.094400
    353    352    354     1   108.4600466 328.025600
    354    352    748     1   109.7800468 425.094400
    356    355    778     1   109.7800468 425.094400
    356    355    357     1   108.4600466 328.025600
    357    355    778     1   109.7800468 425.094400
    360    361    362     1   108.0100461 406.684800
    360    361    363     1   108.0100461 406.684800
    360    364    365     1   108.0100461 406.684800
    360    364    366     1   108.0100461 406.684800
    360    367    368     1   108.0100461 406.684800
    360    367    369     1   108.0100461 406.684800
    361    360    389     1   110.1100470 384.091200
    361    373    374     1   109.8000471 387.438400
    361    373    375     1   109.8000471 387.438400
    362    361    373     1   110.5600475 386.601600
    362    361    363     1   109.7500473 328.025600
    363    361    373     1   110.5600475 386.601600
    364    360    389     1   110.1100470 384.091200
    364    376    377     1   109.8000471 387.438400
    364    376    378     1   109.8000471 387.438400
    365    364    376     1   110.5600475 386.601600
    365    364    366     1   109.7500473 328.025600
    366    364    376     1   110.5600475 386.601600
    367    360    389     1   110.1100470 384.091200
    367    370    371     1   109.8000471 387.438400
    367    370    372     1   109.8000471 387.438400
    368    367    370     1   110.5600475 386.601600
    368    367    369     1   109.7500473 328.025600
    369    367    370     1   110.5600475 386.601600
    370    379    380     1   109.5600471 388.275200
    370    379    381     1   109.5600471 388.275200
    371    370    379     1   109.8000471 387.438400
    371    370    372     1   107.5800459 329.699200
    372    370    379     1   109.8000471 387.438400
    373    385    386     1   109.5600471 388.275200
    373    385    387     1   109.5600471 388.275200
    374    373    385     1   109.8000471 387.438400
    374    373    375     1   107.5800459 329.699200
    375    373    385     1   109.8000471 387.438400
    376    382    383     1   109.5600471 388.275200
    376    382    384     1   109.5600471 388.275200
    377    376    382     1   109.8000471 387.438400
    377    376    378     1   107.5800459 329.699200
    378    376    382     1   109.8000471 387.438400
    380    379    388     1   109.7800468 425.094400
    380    379    381     1   108.4600466 328.025600
    381    379    388     1   109.7800468 425.094400
    383    382    808     1   109.7800468 425.094400
    383    382    384     1   108.4600466 328.025600
    384    382    808     1   109.7800468 425.094400
    386    385    838     1   109.7800468 425.094400
    386    385    387     1   108.4600466 328.025600
    387    385    838     1   109.7800468 425.094400
    390    391    392     1   108.0100461 406.684800
    390    391    393     1   108.0100461 406.684800
    390    394    395     1   108.0100461 406.684800
    390    394    396     1   108.0100461 406.684800
    390    397    398     1   108.0100461 406.684800
    390    397    399     1   108.0100461 406.684800
    391    390    419     1   110.1100470 384.091200
    391    403    404     1   109.8000471 387.438400
    391    403    405     1   109.8000471 387.438400
    392    391    403     1   110.5600475 386.601600
    392    391    393     1   109.7500473 328.025600
    393    391    403     1   110.5600475 386.601600
    394    390    419     1   110.1100470 384.091200
    394    406    407     1   109.8000471 387.438400
    394    406    408     1   109.8000471 387.438400
    395    394    406     1   110.5600475 386.601600
    395    394    396     1   109.7500473 328.025600
    396    394    406     1   110.5600475 386.601600
    397    390    419     1   110.1100470 384.091200
    397    400    401     1   109.8000471 387.438400
    397    400    402     1   109.8000471 387.438400
    398    397    400     1   110.5600475 386.601600
    398    397    399     1   109.7500473 328.025600
    399    397    400     1   110.5600475 386.601600
    400    409    410     1   109.5600471 388.275200
    400    409    411     1   109.5600471 388.275200
    401    400    409     1   109.8000471 387.438400
    401    400    402     1   107.5800459 329.699200
    402    400    409     1   109.8000471 387.438400
    403    415    416     1   109.5600471 388.275200
    403    415    417     1   109.5600471 388.275200
    404    403    415     1   109.8000471 387.438400
    404    403    405     1   107.5800459 329.699200
    405    403    415     1   109.8000471 387.438400
    406    412    413     1   109.5600471 388.275200
    406    412    414     1   109.5600471 388.275200
    407    406    412     1   109.8000471 387.438400
    407    406    408     1   107.5800459 329.699200
    408    406    412     1   109.8000471 387.438400
    410    409    418     1   109.7800468 425.094400
    410    409    411     1   108.4600466 328.025600
    411    409    418     1   109.7800468 425.094400
    413    412    868     1   109.7800468 425.094400
    413    412    414     1   108.4600466 328.025600
    414    412    868     1   109.7800468 425.094400
    416    415    898     1   109.7800468 425.094400
    416    415    417     1   108.4600466 328.025600
    417    415    898     1   109.7800468 425.094400
    420    421    422     1   108.0100461 406.684800
    420    421    423     1   108.0100461 406.684800
    420    424    425     1   108.0100461 406.684800
    420    424    426     1   108.0100461 406.684800
    420    427    428     1   108.0100461 406.684800
    420    427    429     1   108.0100461 406.684800
    421    420    449     1   110.1100470 384.091200
    421    433    434     1   109.8000471 387.438400
    421    433    435     1   109.8000471 387.438400
    422    421    433     1   110.5600475 386.601600
    422    421    423     1   109.7500473 328.025600
    423    421    433     1   110.5600475 386.601600
    424    420    449     1   110.1100470 384.091200
    424    436    437     1   109.8000471 387.438400
    424    436    438     1   109.8000471 387.438400
    425    424    436     1   110.5600475 386.601600
    425    424    426     1   109.7500473 328.025600
    426    424    436     1   110.5600475 386.601600
    427    420    449     1   110.1100470 384.091200
    427    430    431     1   109.8000471 387.438400
    427    430    432     1   109.8000471 387.438400
    428    427    430     1   110.5600475 386.601600
    428    427    429     1   109.7500473 328.025600
    429    427    430     1   110.5600475 386.601600
    430    439    440     1   109.5600471 388.275200
    430    439    441     1   109.5600471 388.275200
    431    430    439     1   109.8000471 387.438400
    431    430    432     1   107.5800459 329.699200
    432    430    439     1   109.8000471 387.438400
    433    445    446     1   109.5600471 388.275200
    433    445    447     1   109.5600471 388.275200
    434    433    445     1   109.8000471 387.438400
    434    433    435     1   107.5800459 329.699200
    435    433    445     1   109.8000471 387.438400
    436    442    443     1   109.5600471 388.275200
    436    442    444     1   109.5600471 388.275200
    437    436    442     1   109.8000471 387.438400
    437    436    438     1   107.5800459 329.699200
    438    436    442     1   109.8000471 387.438400
    440    439    448     1   109.7800468 425.094400
    440    439    441     1   108.4600466 328.025600
    441    439    448     1   109.7800468 425.094400
    443    442    928     1   109.7800468 425.094400
    443    442    444     1   108.4600466 328.025600
    444    442    928     1   109.7800468 425.094400
    446    445    958     1   109.7800468 425.094400
    446    445    447     1   108.4600466 328.025600
    447    445    958     1   109.7800468 425.094400
    450    451    452     1   108.0100461 406.684800
    450    451    453     1   108.0100461 406.684800
    450    454    455     1   108.0100461 406.684800
    450    454    456     1   108.0100461 406.684800
    450    457    458     1   108.0100461 406.684800
    450    457    459     1   108.0100461 406.684800
    451    450    479     1   110.1100470 384.091200
    451    463    464     1   109.8000471 387.438400
    451    463    465     1   109.8000471 387.438400
    452    451    463     1   110.5600475 386.601600
    452    451    453     1   109.7500473 328.025600
    453    451    463     1   110.5600475 386.601600
    454    450    479     1   110.1100470 384.091200
    454    466    467     1   109.8000471 387.438400
    454    466    468     1   109.8000471 387.438400
    455    454    466     1   110.5600475 386.601600
    455    454    456     1   109.7500473 328.025600
    456    454    466     1   110.5600475 386.601600
    457    450    479     1   110.1100470 384.091200
    457    460    461     1   109.8000471 387.438400
    457    460    462     1   109.8000471 387.438400
    458    457    460     1   110.5600475 386.601600
    458    457    459     1   109.7500473 328.025600
    459    457    460     1   110.5600475 386.601600
    460    469    470     1   109.5600471 388.275200
    460    469    471     1   109.5600471 388.275200
    461    460    469     1   109.8000471 387.438400
    461    460    462     1   107.5800459 329.699200
    462    460    469     1   109.8000471 387.438400
    463    475    476     1   109.5600471 388.275200
    463    475    477     1   109.5600471 388.275200
    464    463    475     1   109.8000471 387.438400
    464    463    465     1   107.5800459 329.699200
    465    463    475     1   109.8000471 387.438400
    466    472    473     1   109.5600471 388.275200
    466    472    474     1   109.5600471 388.275200
    467    466    472     1   109.8000471 387.438400
    467    466    468     1   107.5800459 329.699200
    468    466    472     1   109.8000471 387.438400
    470    469    478     1   109.7800468 425.094400
    470    469    471     1   108.4600466 328.025600
    471    469    478     1   109.7800468 425.094400
    473    472    988     1   109.7800468 425.094400
    473    472    474     1   108.4600466 328.025600
    474    472    988     1   109.7800468 425.094400
    476    475   1018     1   109.7800468 425.094400
    476    475    477     1   108.4600466 328.025600
    477    475   1018     1   109.7800468 425.094400
    480    481    482     1   108.0100461 406.684800
    480    481    483     1   108.0100461 406.684800
    480    484    485     1   108.0100461 406.684800
    480    484    486     1   108.0100461 406.684800
    480    487    488     1   108.0100461 406.684800
    480    487    489     1   108.0100461 406.684800
    481    480    509     1   110.1100470 384.091200
    481    493    494     1   109.8000471 387.438400
    481    493    495     1   109.8000471 387.438400
    482    481    493     1   110.5600475 386.601600
    482    481    483     1   109.7500473 328.025600
    483    481    493     1   110.5600475 386.601600
    484    480    509     1   110.1100470 384.091200
    484    496    497     1   109.8000471 387.438400
    484    496    498     1   109.8000471 387.438400
    485    484    496     1   110.5600475 386.601600
    485    484    486     1   109.7500473 328.025600
    486    484    496     1   110.5600475 386.601600
    487    480    509     1   110.1100470 384.091200
    487    490    491     1   109.8000471 387.438400
    487    490    492     1   109.8000471 387.438400
    488    487    490     1   110.5600475 386.601600
    488    487    489     1   109.7500473 328.025600
    489    487    490     1   110.5600475 386.601600
    490    499    500     1   109.5600471 388.275200
    490    499    501     1   109.5600471 388.275200
    491    490    499     1   109.8000471 387.438400
    491    490    492     1   107.5800459 329.699200
    492    490    499     1   109.8000471 387.438400
    493    505    506     1   109.5600471 388.275200
    493    505    507     1   109.5600471 388.275200
    494    493    505     1   109.8000471 387.438400
    494    493    495     1   107.5800459 329.699200
    495    493    505     1   109.8000471 387.438400
    496    502    503     1   109.5600471 388.275200
    496    502    504     1   109.5600471 388.275200
    497    496    502     1   109.8000471 387.438400
    497    496    498     1   107.5800459 329.699200
    498    496    502     1   109.8000471 387.438400
    500    499    508     1   109.7800468 425.094400
    500    499    501     1   108.4600466 328.025600
    501    499    508     1   109.7800468 425.094400
    503    502   1048     1   109.7800468 425.094400
    503    502    504     1   108.4600466 328.025600
    504    502   1048     1   109.7800468 425.094400
    506    505   1078     1   109.7800468 425.094400
    506    505    507     1   108.4600466 328.025600
    507    505   1078     1   109.7800468 425.094400
    510    511    512     1   108.0100461 406.684800
    510    511    513     1   108.0100461 406.684800
    510    514    515     1   108.0100461 406.684800
    510    514    516     1   108.0100461 406.684800
    510    517    518     1   108.0100461 406.684800
    510    517    519     1   108.0100461 406.684800
    511    510    539     1   110.1100470 384.091200
    511    523    524     1   109.8000471 387.438400
    511    523    525     1   109.8000471 387.438400
    512    511    523     1   110.5600475 386.601600
    512    511    513     1   109.7500473 328.025600
    513    511    523     1   110.5600475 386.601600
    514    510    539     1   110.1100470 384.091200
    514    526    527     1   109.8000471 387.438400
    514    526    528     1   109.8000471 387.438400
    515    514    526     1   110.5600475 386.601600
    515    514    516     1   109.7500473 328.025600
    516    514    526     1   110.5600475 386.601600
    517    510    539     1   110.1100470 384.091200
    517    520    521     1   109.8000471 387.438400
    517    520    522     1   109.8000471 387.438400
    518    517    520     1   110.5600475 386.601600
    518    517    519     1   109.7500473 328.025600
    519    517    520     1   110.5600475 386.601600
    520    529    530     1   109.5600471 388.275200
    520    529    531     1   109.5600471 388.275200
    521    520    529     1   109.8000471 387.438400
    521    520    522     1   107.5800459 329.699200
    522    520    529     1   109.8000471 387.438400
    523    535    536     1   109.5600471 388.275200
    523    535    537     1   109.5600471 388.275200
    524    523    535     1   109.8000471 387.438400
    524    523    525     1   107.5800459 329.699200
    525    523    535     1   109.8000471 387.438400
    526    532    533     1   109.5600471 388.275200
    526    532    534     1   109.5600471 388.275200
    527    526    532     1   109.8000471 387.438400
    527    526    528     1   107.5800459 329.699200
    528    526    532     1   109.8000471 387.438400
    530    529    538     1   109.7800468 425.094400
    530    529    531     1   108.4600466 328.025600
    531    529    538     1   109.7800468 425.094400
    533    532   1108     1   109.7800468 425.094400
    533    532    534     1   108.4600466 328.025600
    534    532   1108     1   109.7800468 425.094400
    536    535   1138     1   109.7800468 425.094400
    536    535    537     1   108.4600466 328.025600
    537    535   1138     1   109.7800468 425.094400
    540    541    542     1   108.0100461 406.684800
    540    541    543     1   108.0100461 406.684800
    540    544    545     1   108.0100461 406.684800
    540    544    546     1   108.0100461 406.684800
    540    547    548     1   108.0100461 406.684800
    540    547    549     1   108.0100461 406.684800
    541    540    569     1   110.1100470 384.091200
    541    553    554     1   109.8000471 387.438400
    541    553    555     1   109.8000471 387.438400
    542    541    553     1   110.5600475 386.601600
    542    541    543     1   109.7500473 328.025600
    543    541    553     1   110.5600475 386.601600
    544    540    569     1   110.1100470 384.091200
    544    556    557     1   109.8000471 387.438400
    544    556    558     1   109.8000471 387.438400
    545    544    556     1   110.5600475 386.601600
    545    544    546     1   109.7500473 328.025600
    546    544    556     1   110.5600475 386.601600
    547    540    569     1   110.1100470 384.091200
    547    550    551     1   109.8000471 387.438400
    547    550    552     1   109.8000471 387.438400
    548    547    550     1   110.5600475 386.601600
    548    547    549     1   109.7500473 328.025600
    549    547    550     1   110.5600475 386.601600
    550    559    560     1   109.5600471 388.275200
    550    559    561     1   109.5600471 388.275200
    551    550    559     1   109.8000471 387.438400
    551    550    552     1   107.5800459 329.699200
    552    550    559     1   109.8000471 387.438400
    553    565    566     1   109.5600471 388.275200
    553    565    567     1   109.5600471 388.275200
    554    553    565     1   109.8000471 387.438400
    554    553    555     1   107.5800459 329.699200
    555    553    565     1   109.8000471 387.438400
    556    562    563     1   109.5600471 388.275200
    556    562    564     1   109.5600471 388.275200
    557    556    562     1   109.8000471 387.438400
    557    556    558     1   107.5800459 329.699200
    558    556    562     1   109.8000471 387.438400
    560    559    568     1   109.7800468 425.094400
    560    559    561     1   108.4600466 328.025600
    561    559    568     1   109.7800468 425.094400
    563    562   1168     1   109.7800468 425.094400
    563    562    564     1   108.4600466 328.025600
    564    562   1168     1   109.7800468 425.094400
    566    565   1198     1   109.7800468 425.094400
    566    565    567     1   108.4600466 328.025600
    567    565   1198     1   109.7800468 425.094400
    570    571    572     1   108.0100461 406.684800
    570    571    573     1   108.0100461 406.684800
    570    574    575     1   108.0100461 406.684800
    570    574    576     1   108.0100461 406.684800
    570    577    578     1   108.0100461 406.684800
    570    577    579     1   108.0100461 406.684800
    571    570    599     1   110.1100470 384.091200
    571    583    584     1   109.8000471 387.438400
    571    583    585     1   109.8000471 387.438400
    572    571    583     1   110.5600475 386.601600
    572    571    573     1   109.7500473 328.025600
    573    571    583     1   110.5600475 386.601600
    574    570    599     1   110.1100470 384.091200
    574    586    587     1   109.8000471 387.438400
    574    586    588     1   109.8000471 387.438400
    575    574    586     1   110.5600475 386.601600
    575    574    576     1   109.7500473 328.025600
    576    574    586     1   110.5600475 386.601600
    577    570    599     1   110.1100470 384.091200
    577    580    581     1   109.8000471 387.438400
    577    580    582     1   109.8000471 387.438400
    578    577    580     1   110.5600475 386.601600
    578    577    579     1   109.7500473 328.025600
    579    577    580     1   110.5600475 386.601600
    580    589    590     1   109.5600471 388.275200
    580    589    591     1   109.5600471 388.275200
    581    580    589     1   109.8000471 387.438400
    581    580    582     1   107.5800459 329.699200
    582    580    589     1   109.8000471 387.438400
    583    595    596     1   109.5600471 388.275200
    583    595    597     1   109.5600471 388.275200
    584    583    595     1   109.8000471 387.438400
    584    583    585     1   107.5800459 329.699200
    585    583    595     1   109.8000471 387.438400
    586    592    593     1   109.5600471 388.275200
    586    592    594     1   109.5600471 388.275200
    587    586    592     1   109.8000471 387.438400
    587    586    588     1   107.5800459 329.699200
    588    586    592     1   109.8000471 387.438400
    590    589    598     1   109.7800468 425.094400
    590    589    591     1   108.4600466 328.025600
    591    589    598     1   109.7800468 425.094400
    593    592   1228     1   109.7800468 425.094400
    593    592    594     1   108.4600466 328.025600
    594    592   1228     1   109.7800468 425.094400
    596    595   1258     1   109.7800468 425.094400
    596    595    597     1   108.4600466 328.025600
    597    595   1258     1   109.7800468 425.094400
    600    601    602     1   108.0100461 406.684800
    600    601    603     1   108.0100461 406.684800
    600    604    605     1   108.0100461 406.684800
    600    604    606     1   108.0100461 406.684800
    600    607    608     1   108.0100461 406.684800
    600    607    609     1   108.0100461 406.684800
    601    600    629     1   110.1100470 384.091200
    601    613    614     1   109.8000471 387.438400
    601    613    615     1   109.8000471 387.438400
    602    601    613     1   110.5600475 386.601600
    602    601    603     1   109.7500473 328.025600
    603    601    613     1   110.5600475 386.601600
    604    600    629     1   110.1100470 384.091200
    604    616    617     1   109.8000471 387.438400
    604    616    618     1   109.8000471 387.438400
    605    604    616     1   110.5600475 386.601600
    605    604    606     1   109.7500473 328.025600
    606    604    616     1   110.5600475 386.601600
    607    600    629     1   110.1100470 384.091200
    607    610    611     1   109.8000471 387.438400
    607    610    612     1   109.8000471 387.438400
    608    607    610     1   110.5600475 386.601600
    608    607    609     1   109.7500473 328.025600
    609    607    610     1   110.5600475 386.601600
    610    619    620     1   109.5600471 388.275200
    610    619    621     1   109.5600471 388.275200
    611    610    619     1   109.8000471 387.438400
    611    610    612     1   107.5800459 329.699200
    612    610    619     1   109.8000471 387.438400
    613    625    626     1   109.5600471 388.275200
    613    625    627     1   109.5600471 388.275200
    614    613    625     1   109.8000471 387.438400
    614    613    615     1   107.5800459 329.699200
    615    613    625     1   109.8000471 387.438400
    616    622    623     1   109.5600471 388.275200
    616    622    624     1   109.5600471 388.275200
    617    616    622     1   109.8000471 387.438400
    617    616    618     1   107.5800459 329.699200
    618    616    622     1   109.8000471 387.438400
    620    619    628     1   109.7800468 425.094400
    620    619    621     1   108.4600466 328.025600
    621    619    628     1   109.7800468 425.094400
    623    622   1288     1   109.7800468 425.094400
    623    622    624     1   108.4600466 328.025600
    624    622   1288     1   109.7800468 425.094400
    626    625   1318     1   109.7800468 425.094400
    626    625    627     1   108.4600466 328.025600
    627    625   1318     1   109.7800468 425.094400
    630    631    632     1   108.0100461 406.684800
    630    631    633     1   108.0100461 406.684800
    630    634    635     1   108.0100461 406.684800
    630    634    636     1   108.0100461 406.684800
    630    637    638     1   108.0100461 406.684800
    630    637    639     1   108.0100461 406.684800
    631    630    659     1   110.1100470 384.091200
    631    643    644     1   109.8000471 387.438400
    631    643    645     1   109.8000471 387.438400
    632    631    643     1   110.5600475 386.601600
    632    631    633     1   109.7500473 328.025600
    633    631    643     1   110.5600475 386.601600
    634    630    659     1   110.1100470 384.091200
    634    646    647     1   109.8000471 387.438400
    634    646    648     1   109.8000471 387.438400
    635    634    646     1   110.5600475 386.601600
    635    634    636     1   109.7500473 328.025600
    636    634    646     1   110.5600475 386.601600
    637    630    659     1   110.1100470 384.091200
    637    640    641     1   109.8000471 387.438400
    637    640    642     1   109.8000471 387.438400
    638    637    640     1   110.5600475 386.601600
    638    637    639     1   109.7500473 328.025600
    639    637    640     1   110.5600475 386.601600
    640    649    650     1   109.5600471 388.275200
    640    649    651     1   109.5600471 388.275200
    641    640    649     1   109.8000471 387.438400
    641    640    642     1   107.5800459 329.699200
    642    640    649     1   109.8000471 387.438400
    643    655    656     1   109.5600471 388.275200
    643    655    657     1   109.5600471 388.275200
    644    643    655     1   109.8000471 387.438400
    644    643    645     1   107.5800459 329.699200
    645    643    655     1   109.8000471 387.438400
    646    652    653     1   109.5600471 388.275200
    646    652    654     1   109.5600471 388.275200
    647    646    652     1   109.8000471 387.438400
    647    646    648     1   107.5800459 329.699200
    648    646    652     1   109.8000471 387.438400
    650    649    658     1   109.7800468 425.094400
    650    649    651     1   108.4600466 328.025600
    651    649    658     1   109.7800468 425.094400
    653    652   1348     1   109.7800468 425.094400
    653    652    654     1   108.4600466 328.025600
    654    652   1348     1   109.7800468 425.094400
    656    655   1378     1   109.7800468 425.094400
    656    655    657     1   108.4600466 328.025600
    657    655   1378     1   109.7800468 425.094400
    660    661    662     1   108.0100461 406.684800
    660    661    663     1   108.0100461 406.684800
    660    664    665     1   108.0100461 406.684800
    660    664    666     1   108.0100461 406.684800
    660    667    668     1   108.0100461 406.684800
    660    667    669     1   108.0100461 406.684800
    661    660    689     1   110.1100470 384.091200
    661    673    674     1   109.8000471 387.438400
    661    673    675     1   109.8000471 387.438400
    662    661    673     1   110.5600475 386.601600
    662    661    663     1   109.7500473 328.025600
    663    661    673     1   110.5600475 386.601600
    664    660    689     1   110.1100470 384.091200
    664    676    677     1   109.8000471 387.438400
    664    676    678     1   109.8000471 387.438400
    665    664    676     1   110.5600475 386.601600
    665    664    666     1   109.7500473 328.025600
    666    664    676     1   110.5600475 386.601600
    667    660    689     1   110.1100470 384.091200
    667    670    671     1   109.8000471 387.438400
    667    670    672     1   109.8000471 387.438400
    668    667    670     1   110.5600475 386.601600
    668    667    669     1   109.7500473 328.025600
    669    667    670     1   110.5600475 386.601600
    670    679    680     1   109.5600471 388.275200
    670    679    681     1   109.5600471 388.275200
    671    670    679     1   109.8000471 387.438400
    671    670    672     1   107.5800459 329.699200
    672    670    679     1   109.8000471 387.438400
    673    685    686     1   109.5600471 388.275200
    673    685    687     1   109.5600471 388.275200
    674    673    685     1   109.8000471 387.438400
    674    673    675     1   107.5800459 329.699200
    675    673    685     1   109.8000471 387.438400
    676    682    683     1   109.5600471 388.275200
    676    682    684     1   109.5600471 388.275200
    677    676    682     1   109.8000471 387.438400
    677    676    678     1   107.5800459 329.699200
    678    676    682     1   109.8000471 387.438400
    680    679    688     1   109.7800468 425.094400
    680    679    681     1   108.4600466 328.025600
    681    679    688     1   109.7800468 425.094400
    683    682   1408     1   109.7800468 425.094400
    683    682    684     1   108.4600466 328.025600
    684    682   1408     1   109.7800468 425.094400
    686    685   1438     1   109.7800468 425.094400
    686    685    687     1   108.4600466 328.025600
    687    685   1438     1   109.7800468 425.094400
    690    691    692     1   108.0100461 406.684800
    690    691    693     1   108.0100461 406.684800
    690    694    695     1   108.0100461 406.684800
    690    694    696     1   108.0100461 406.684800
    690    697    698     1   108.0100461 406.684800
    690    697    699     1   108.0100461 406.684800
    691    690    719     1   110.1100470 384.091200
    691    703    704     1   109.8000471 387.438400
    691    703    705     1   109.8000471 387.438400
    692    691    703     1   110.5600475 386.601600
    692    691    693     1   109.7500473 328.025600
    693    691    703     1   110.5600475 386.601600
    694    690    719     1   110.1100470 384.091200
    694    706    707     1   109.8000471 387.438400
    694    706    708     1   109.8000471 387.438400
    695    694    706     1   110.5600475 386.601600
    695    694    696     1   109.7500473 328.025600
    696    694    706     1   110.5600475 386.601600
    697    690    719     1   110.1100470 384.091200
    697    700    701     1   109.8000471 387.438400
    697    700    702     1   109.8000471 387.438400
    698    697    700     1   110.5600475 386.601600
    698    697    699     1   109.7500473 328.025600
    699    697    700     1   110.5600475 386.601600
    700    709    710     1   109.5600471 388.275200
    700    709    711     1   109.5600471 388.275200
    701    700    709     1   109.8000471 387.438400
    701    700    702     1   107.5800459 329.699200
    702    700    709     1   109.8000471 387.438400
    703    715    716     1   109.5600471 388.275200
    703    715    717     1   109.5600471 388.275200
    704    703    715     1   109.8000471 387.438400
    704    703    705     1   107.5800459 329.699200
    705    703    715     1   109.8000471 387.438400
    706    712    713     1   109.5600471 388.275200
    706    712    714     1   109.5600471 388.275200
    707    706    712     1   109.8000471 387.438400
    707    706    708     1   107.5800459 329.699200
    708    706    712     1   109.8000471 387.438400
    710    709    718     1   109.7800468 425.094400
    710    709    711     1   108.4600466 328.025600
    711    709    718     1   109.7800468 425.094400
    713    712   1468     1   109.7800468 425.094400
    713    712    714     1   108.4600466 328.025600
    714    712   1468     1   109.7800468 425.094400
    716    715   1498     1   109.7800468 425.094400
    716    715    717     1   108.4600466 328.025600
    717    715   1498     1   109.7800468 425.094400
    720    721    722     1   108.0100461 406.684800
    720    721    723     1   108.0100461 406.684800
    720    724    725     1   108.0100461 406.684800
    720    724    726     1   108.0100461 406.684800
    720    727    728     1   108.0100461 406.684800
    720    727    729     1   108.0100461 406.684800
    721    720    749     1   110.1100470 384.091200
    721    733    734     1   109.8000471 387.438400
    721    733    735     1   109.8000471 387.438400
    722    721    733     1   110.5600475 386.601600
    722    721    723     1   109.7500473 328.025600
    723    721    733     1   110.5600475 386.601600
    724    720    749     1   110.1100470 384.091200
    724    736    737     1   109.8000471 387.438400
    724    736    738     1   109.8000471 387.438400
    725    724    736     1   110.5600475 386.601600
    725    724    726     1   109.7500473 328.025600
    726    724    736     1   110.5600475 386.601600
    727    720    749     1   110.1100470 384.091200
    727    730    731     1   109.8000471 387.438400
    727    730    732     1   109.8000471 387.438400
    728    727    730     1   110.5600475 386.601600
    728    727    729     1   109.7500473 328.025600
    729    727    730     1   110.5600475 386.601600
    730    739    740     1   109.5600471 388.275200
    730    739    741     1   109.5600471 388.275200
    731    730    739     1   109.8000471 387.438400
    731    730    732     1   107.5800459 329.699200
    732    730    739     1   109.8000471 387.438400
    733    745    746     1   109.5600471 388.275200
    733    745    747     1   109.5600471 388.275200
    734    733    745     1   109.8000471 387.438400
    734    733    735     1   107.5800459 329.699200
    735    733    745     1   109.8000471 387.438400
    736    742    743     1   109.5600471 388.275200
    736    742    744     1   109.5600471 388.275200
    737    736    742     1   109.8000471 387.438400
    737    736    738     1   107.5800459 329.699200
    738    736    742     1   109.8000471 387.438400
    740    739    748     1   109.7800468 425.094400
    740    739    741     1   108.4600466 328.025600
    741    739    748     1   109.7800468 425.094400
    743    742   1528     1   109.7800468 425.094400
    743    742    744     1   108.4600466 328.025600
    744    742   1528     1   109.7800468 425.094400
    746    745   1558     1   109.7800468 425.094400
    746    745    747     1   108.4600466 328.025600
    747    745   1558     1   109.7800468 425.094400
    750    751    752     1   108.0100461 406.684800
    750    751    753     1   108.0100461 406.684800
    750    754    755     1   108.0100461 406.684800
    750    754    756     1   108.0100461 406.684800
    750    757    758     1   108.0100461 406.684800
    750    757    759     1   108.0100461 406.684800
    751    750    779     1   110.1100470 384.091200
    751    763    764     1   109.8000471 387.438400
    751    763    765     1   109.8000471 387.438400
    752    751    763     1   110.5600475 386.601600
    752    751    753     1   109.7500473 328.025600
    753    751    763     1   110.5600475 386.601600
    754    750    779     1   110.1100470 384.091200
    754    766    767     1   109.8000471 387.438400
    754    766    768     1   109.8000471 387.438400
    755    754    766     1   110.5600475 386.601600
    755    754    756     1   109.7500473 328.025600
    756    754    766     1   110.5600475 386.601600
    757    750    779     1   110.1100470 384.091200
    757    760    761     1   109.8000471 387.438400
    757    760    762     1   109.8000471 387.438400
    758    757    760     1   110.5600475 386.601600
    758    757    759     1   109.7500473 328.025600
    759    757    760     1   110.5600475 386.601600
    760    769    770     1   109.5600471 388.275200
    760    769    771     1   109.5600471 388.275200
    761    760    769     1   109.8000471 387.438400
    761    760    762     1   107.5800459 329.699200
    762    760    769     1   109.8000471 387.438400
    763    775    776     1   109.5600471 388.275200
    763    775    777     1   109.5600471 388.275200
    764    763    775     1   109.8000471 387.438400
    764    763    765     1   107.5800459 329.699200
    765    763    775     1   109.8000471 387.438400
    766    772    773     1   109.5600471 388.275200
    766    772    774     1   109.5600471 388.275200
    767    766    772     1   109.8000471 387.438400
    767    766    768     1   107.5800459 329.699200
    768    766    772     1   109.8000471 387.438400
    770    769    778     1   109.7800468 425.094400
    770    769    771     1   108.4600466 328.025600
    771    769    778     1   109.7800468 425.094400
    773    772   1588     1   109.7800468 425.094400
    773    772    774     1   108.4600466 328.025600
    774    772   1588     1   109.7800468 425.094400
    776    775   1618     1   109.7800468 425.094400
    776    775    777     1   108.4600466 328.025600
    777    775   1618     1   109.7800468 425.094400
    780    781    782     1   108.0100461 406.684800
    780    781    783     1   108.0100461 406.684800
    780    784    785     1   108.0100461 406.684800
    780    784    786     1   108.0100461 406.684800
    780    787    788     1   108.0100461 406.684800
    780    787    789     1   108.0100461 406.684800
    781    780    809     1   110.1100470 384.091200
    781    793    794     1   109.8000471 387.438400
    781    793    795     1   109.8000471 387.438400
    782    781    793     1   110.5600475 386.601600
    782    781    783     1   109.7500473 328.025600
    783    781    793     1   110.5600475 386.601600
    784    780    809     1   110.1100470 384.091200
    784    796    797     1   109.8000471 387.438400
    784    796    798     1   109.8000471 387.438400
    785    784    796     1   110.5600475 386.601600
    785    784    786     1   109.7500473 328.025600
    786    784    796     1   110.5600475 386.601600
    787    780    809     1   110.1100470 384.091200
    787    790    791     1   109.8000471 387.438400
    787    790    792     1   109.8000471 387.438400
    788    787    790     1   110.5600475 386.601600
    788    787    789     1   109.7500473 328.025600
    789    787    790     1   110.5600475 386.601600
    790    799    800     1   109.5600471 388.275200
    790    799    801     1   109.5600471 388.275200
    791    790    799     1   109.8000471 387.438400
    791    790    792     1   107.5800459 329.699200
    792    790    799     1   109.8000471 387.438400
    793    805    806     1   109.5600471 388.275200
    793    805    807     1   109.5600471 388.275200
    794    793    805     1   109.8000471 387.438400
    794    793    795     1   107.5800459 329.699200
    795    793    805     1   109.8000471 387.438400
    796    802    803     1   109.5600471 388.275200
    796    802    804     1   109.5600471 388.275200
    797    796    802     1   109.8000471 387.438400
    797    796    798     1   107.5800459 329.699200
    798    796    802     1   109.8000471 387.438400
    800    799    808     1   109.7800468 425.094400
    800    799    801     1   108.4600466 328.025600
    801    799    808     1   109.7800468 425.094400
    803    802   1648     1   109.7800468 425.094400
    803    802    804     1   108.4600466 328.025600
    804    802   1648     1   109.7800468 425.094400
    806    805   1678     1   109.7800468 425.094400
    806    805    807     1   108.4600466 328.025600
    807    805   1678     1   109.7800468 425.094400
    810    811    812     1   108.0100461 406.684800
    810    811    813     1   108.0100461 406.684800
    810    814    815     1   108.0100461 406.684800
    810    814    816     1   108.0100461 406.684800
    810    817    818     1   108.0100461 406.684800
    810    817    819     1   108.0100461 406.684800
    811    810    839     1   110.1100470 384.091200
    811    823    824     1   109.8000471 387.438400
    811    823    825     1   109.8000471 387.438400
    812    811    823     1   110.5600475 386.601600
    812    811    813     1   109.7500473 328.025600
    813    811    823     1   110.5600475 386.601600
    814    810    839     1   110.1100470 384.091200
    814    826    827     1   109.8000471 387.438400
    814    826    828     1   109.8000471 387.438400
    815    814    826     1   110.5600475 386.601600
    815    814    816     1   109.7500473 328.025600
    816    814    826     1   110.5600475 386.601600
    817    810    839     1   110.1100470 384.091200
    817    820    821     1   109.8000471 387.438400
    817    820    822     1   109.8000471 387.438400
    818    817    820     1   110.5600475 386.601600
    818    817    819     1   109.7500473 328.025600
    819    817    820     1   110.5600475 386.601600
    820    829    830     1   109.5600471 388.275200
    820    829    831     1   109.5600471 388.275200
    821    820    829     1   109.8000471 387.438400
    821    820    822     1   107.5800459 329.699200
    822    820    829     1   109.8000471 387.438400
    823    835    836     1   109.5600471 388.275200
    823    835    837     1   109.5600471 388.275200
    824    823    835     1   109.8000471 387.438400
    824    823    825     1   107.5800459 329.699200
    825    823    835     1   109.8000471 387.438400
    826    832    833     1   109.5600471 388.275200
    826    832    834     1   109.5600471 388.275200
    827    826    832     1   109.8000471 387.438400
    827    826    828     1   107.5800459 329.699200
    828    826    832     1   109.8000471 387.438400
    830    829    838     1   109.7800468 425.094400
    830    829    831     1   108.4600466 328.025600
    831    829    838     1   109.7800468 425.094400
    833    832   1708     1   109.7800468 425.094400
    833    832    834     1   108.4600466 328.025600
    834    832   1708     1   109.7800468 425.094400
    836    835   1738     1   109.7800468 425.094400
    836    835    837     1   108.4600466 328.025600
    837    835   1738     1   109.7800468 425.094400
    840    841    842     1   108.0100461 406.684800
    840    841    843     1   108.0100461 406.684800
    840    844    845     1   108.0100461 406.684800
    840    844    846     1   108.0100461 406.684800
    840    847    848     1   108.0100461 406.684800
    840    847    849     1   108.0100461 406.684800
    841    840    869     1   110.1100470 384.091200
    841    853    854     1   109.8000471 387.438400
    841    853    855     1   109.8000471 387.438400
    842    841    853     1   110.5600475 386.601600
    842    841    843     1   109.7500473 328.025600
    843    841    853     1   110.5600475 386.601600
    844    840    869     1   110.1100470 384.091200
    844    856    857     1   109.8000471 387.438400
    844    856    858     1   109.8000471 387.438400
    845    844    856     1   110.5600475 386.601600
    845    844    846     1   109.7500473 328.025600
    846    844    856     1   110.5600475 386.601600
    847    840    869     1   110.1100470 384.091200
    847    850    851     1   109.8000471 387.438400
    847    850    852     1   109.8000471 387.438400
    848    847    850     1   110.5600475 386.601600
    848    847    849     1   109.7500473 328.025600
    849    847    850     1   110.5600475 386.601600
    850    859    860     1   109.5600471 388.275200
    850    859    861     1   109.5600471 388.275200
    851    850    859     1   109.8000471 387.438400
    851    850    852     1   107.5800459 329.699200
    852    850    859     1   109.8000471 387.438400
    853    865    866     1   109.5600471 388.275200
    853    865    867     1   109.5600471 388.275200
    854    853    865     1   109.8000471 387.438400
    854    853    855     1   107.5800459 329.699200
    855    853    865     1   109.8000471 387.438400
    856    862    863     1   109.5600471 388.275200
    856    862    864     1   109.5600471 388.275200
    857    856    862     1   109.8000471 387.438400
    857    856    858     1   107.5800459 329.699200
    858    856    862     1   109.8000471 387.438400
    860    859    868     1   109.7800468 425.094400
    860    859    861     1   108.4600466 328.025600
    861    859    868     1   109.7800468 425.094400
    863    862   1768     1   109.7800468 425.094400
    863    862    864     1   108.4600466 328.025600
    864    862   1768     1   109.7800468 425.094400
    866    865   1798     1   109.7800468 425.094400
    866    865    867     1   108.4600466 328.025600
    867    865   1798     1   109.7800468 425.094400
    870    871    872     1   108.0100461 406.684800
    870    871    873     1   108.0100461 406.684800
    870    874    875     1   108.0100461 406.684800
    870    874    876     1   108.0100461 406.684800
    870    877    878     1   108.0100461 406.684800
    870    877    879     1   108.0100461 406.684800
    871    870    899     1   110.1100470 384.091200
    871    883    884     1   109.8000471 387.438400
    871    883    885     1   109.8000471 387.438400
    872    871    883     1   110.5600475 386.601600
    872    871    873     1   109.7500473 328.025600
    873    871    883     1   110.5600475 386.601600
    874    870    899     1   110.1100470 384.091200
    874    886    887     1   109.8000471 387.438400
    874    886    888     1   109.8000471 387.438400
    875    874    886     1   110.5600475 386.601600
    875    874    876     1   109.7500473 328.025600
    876    874    886     1   110.5600475 386.601600
    877    870    899     1   110.1100470 384.091200
    877    880    881     1   109.8000471 387.438400
    877    880    882     1   109.8000471 387.438400
    878    877    880     1   110.5600475 386.601600
    878    877    879     1   109.7500473 328.025600
    879    877    880     1   110.5600475 386.601600
    880    889    890     1   109.5600471 388.275200
    880    889    891     1   109.5600471 388.275200
    881    880    889     1   109.8000471 387.438400
    881    880    882     1   107.5800459 329.699200
    882    880    889     1   109.8000471 387.438400
    883    895    896     1   109.5600471 388.275200
    883    895    897     1   109.5600471 388.275200
    884    883    895     1   109.8000471 387.438400
    884    883    885     1   107.5800459 329.699200
    885    883    895     1   109.8000471 387.438400
    886    892    893     1   109.5600471 388.275200
    886    892    894     1   109.5600471 388.275200
    887    886    892     1   109.8000471 387.438400
    887    886    888     1   107.5800459 329.699200
    888    886    892     1   109.8000471 387.438400
    890    889    898     1   109.7800468 425.094400
    890    889    891     1   108.4600466 328.025600
    891    889    898     1   109.7800468 425.094400
    893    892   1828     1   109.7800468 425.094400
    893    892    894     1   108.4600466 328.025600
    894    892   1828     1   109.7800468 425.094400
    896    895   1858     1   109.7800468 425.094400
    896    895    897     1   108.4600466 328.025600
    897    895   1858     1   109.7800468 425.094400
    900    901    902     1   108.0100461 406.684800
    900    901    903     1   108.0100461 406.684800
    900    904    905     1   108.0100461 406.684800
    900    904    906     1   108.0100461 406.684800
    900    907    908     1   108.0100461 406.684800
    900    907    909     1   108.0100461 406.684800
    901    900    929     1   110.1100470 384.091200
    901    913    914     1   109.8000471 387.438400
    901    913    915     1   109.8000471 387.438400
    902    901    913     1   110.5600475 386.601600
    902    901    903     1   109.7500473 328.025600
    903    901    913     1   110.5600475 386.601600
    904    900    929     1   110.1100470 384.091200
    904    916    917     1   109.8000471 387.438400
    904    916    918     1   109.8000471 387.438400
    905    904    916     1   110.5600475 386.601600
    905    904    906     1   109.7500473 328.025600
    906    904    916     1   110.5600475 386.601600
    907    900    929     1   110.1100470 384.091200
    907    910    911     1   109.8000471 387.438400
    907    910    912     1   109.8000471 387.438400
    908    907    910     1   110.5600475 386.601600
    908    907    909     1   109.7500473 328.025600
    909    907    910     1   110.5600475 386.601600
    910    919    920     1   109.5600471 388.275200
    910    919    921     1   109.5600471 388.275200
    911    910    919     1   109.8000471 387.438400
    911    910    912     1   107.5800459 329.699200
    912    910    919     1   109.8000471 387.438400
    913    925    926     1   109.5600471 388.275200
    913    925    927     1   109.5600471 388.275200
    914    913    925     1   109.8000471 387.438400
    914    913    915     1   107.5800459 329.699200
    915    913    925     1   109.8000471 387.438400
    916    922    923     1   109.5600471 388.275200
    916    922    924     1   109.5600471 388.275200
    917    916    922     1   109.8000471 387.438400
    917    916    918     1   107.5800459 329.699200
    918    916    922     1   109.8000471 387.438400
    920    919    928     1   109.7800468 425.094400
    920    919    921     1   108.4600466 328.025600
    921    919    928     1   109.7800468 425.094400
    923    922   1888     1   109.7800468 425.094400
    923    922    924     1   108.4600466 328.025600
    924    922   1888     1   109.7800468 425.094400
    926    925   1918     1   109.7800468 425.094400
    926    925    927     1   108.4600466 328.025600
    927    925   1918     1   109.7800468 425.094400
    930    931    932     1   108.0100461 406.684800
    930    931    933     1   108.0100461 406.684800
    930    934    935     1   108.0100461 406.684800
    930    934    936     1   108.0100461 406.684800
    930    937    938     1   108.0100461 406.684800
    930    937    939     1   108.0100461 406.684800
    931    930    959     1   110.1100470 384.091200
    931    943    944     1   109.8000471 387.438400
    931    943    945     1   109.8000471 387.438400
    932    931    943     1   110.5600475 386.601600
    932    931    933     1   109.7500473 328.025600
    933    931    943     1   110.5600475 386.601600
    934    930    959     1   110.1100470 384.091200
    934    946    947     1   109.8000471 387.438400
    934    946    948     1   109.8000471 387.438400
    935    934    946     1   110.5600475 386.601600
    935    934    936     1   109.7500473 328.025600
    936    934    946     1   110.5600475 386.601600
    937    930    959     1   110.1100470 384.091200
    937    940    941     1   109.8000471 387.438400
    937    940    942     1   109.8000471 387.438400
    938    937    940     1   110.5600475 386.601600
    938    937    939     1   109.7500473 328.025600
    939    937    940     1   110.5600475 386.601600
    940    949    950     1   109.5600471 388.275200
    940    949    951     1   109.5600471 388.275200
    941    940    949     1   109.8000471 387.438400
    941    940    942     1   107.5800459 329.699200
    942    940    949     1   109.8000471 387.438400
    943    955    956     1   109.5600471 388.275200
    943    955    957     1   109.5600471 388.275200
    944    943    955     1   109.8000471 387.438400
    944    943    945     1   107.5800459 329.699200
    945    943    955     1   109.8000471 387.438400
    946    952    953     1   109.5600471 388.275200
    946    952    954     1   109.5600471 388.275200
    947    946    952     1   109.8000471 387.438400
    947    946    948     1   107.5800459 329.699200
    948    946    952     1   109.8000471 387.438400
    950    949    958     1   109.7800468 425.094400
    950    949    951     1   108.4600466 328.025600
    951    949    958     1   109.7800468 425.094400
    953    952   1948     1   109.7800468 425.094400
    953    952    954     1   108.4600466 328.025600
    954    952   1948     1   109.7800468 425.094400
    956    955   1978     1   109.7800468 425.094400
    956    955    957     1   108.4600466 328.025600
    957    955   1978     1   109.7800468 425.094400
    960    961    962     1   108.0100461 406.684800
    960    961    963     1   108.0100461 406.684800
    960    964    965     1   108.0100461 406.684800
    960    964    966     1   108.0100461 406.684800
    960    967    968     1   108.0100461 406.684800
    960    967    969     1   108.0100461 406.684800
    961    960    989     1   110.1100470 384.091200
    961    973    974     1   109.8000471 387.438400
    961    973    975     1   109.8000471 387.438400
    962    961    973     1   110.5600475 386.601600
    962    961    963     1   109.7500473 328.025600
    963    961    973     1   110.5600475 386.601600
    964    960    989     1   110.1100470 384.091200
    964    976    977     1   109.8000471 387.438400
    964    976    978     1   109.8000471 387.438400
    965    964    976     1   110.5600475 386.601600
    965    964    966     1   109.7500473 328.025600
    966    964    976     1   110.5600475 386.601600
    967    960    989     1   110.1100470 384.091200
    967    970    971     1   109.8000471 387.438400
    967    970    972     1   109.8000471 387.438400
    968    967    970     1   110.5600475 386.601600
    968    967    969     1   109.7500473 328.025600
    969    967    970     1   110.5600475 386.601600
    970    979    980     1   109.5600471 388.275200
    970    979    981     1   109.5600471 388.275200
    971    970    979     1   109.8000471 387.438400
    971    970    972     1   107.5800459 329.699200
    972    970    979     1   109.8000471 387.438400
    973    985    986     1   109.5600471 388.275200
    973    985    987     1   109.5600471 388.275200
    974    973    985     1   109.8000471 387.438400
    974    973    975     1   107.5800459 329.699200
    975    973    985     1   109.8000471 387.438400
    976    982    983     1   109.5600471 388.275200
    976    982    984     1   109.5600471 388.275200
    977    976    982     1   109.8000471 387.438400
    977    976    978     1   107.5800459 329.699200
    978    976    982     1   109.8000471 387.438400
    980    979    988     1   109.7800468 425.094400
    980    979    981     1   108.4600466 328.025600
    981    979    988     1   109.7800468 425.094400
    983    982   2008     1   109.7800468 425.094400
    983    982    984     1   108.4600466 328.025600
    984    982   2008     1   109.7800468 425.094400
    986    985   2038     1   109.7800468 425.094400
    986    985    987     1   108.4600466 328.025600
    987    985   2038     1   109.7800468 425.094400
    990    991    992     1   108.0100461 406.684800
    990    991    993     1   108.0100461 406.684800
    990    994    995     1   108.0100461 406.684800
    990    994    996     1   108.0100461 406.684800
    990    997    998     1   108.0100461 406.684800
    990    997    999     1   108.0100461 406.684800
    991    990   1019     1   110.1100470 384.091200
    991   1003   1004     1   109.8000471 387.438400
    991   1003   1005     1   109.8000471 387.438400
    992    991   1003     1   110.5600475 386.601600
    992    991    993     1   109.7500473 328.025600
    993    991   1003     1   110.5600475 386.601600
    994    990   1019     1   110.1100470 384.091200
    994   1006   1007     1   109.8000471 387.438400
    994   1006   1008     1   109.8000471 387.438400
    995    994   1006     1   110.5600475 386.601600
    995    994    996     1   109.7500473 328.025600
    996    994   1006     1   110.5600475 386.601600
    997    990   1019     1   110.1100470 384.091200
    997   1000   1001     1   109.8000471 387.438400
    997   1000   1002     1   109.8000471 387.438400
    998    997   1000     1   110.5600475 386.601600
    998    997    999     1   109.7500473 328.025600
    999    997   1000     1   110.5600475 386.601600
   1000   1009   1010     1   109.5600471 388.275200
   1000   1009   1011     1   109.5600471 388.275200
   1001   1000   1009     1   109.8000471 387.438400
   1001   1000   1002     1   107.5800459 329.699200
   1002   1000   1009     1   109.8000471 387.438400
   1003   1015   1016     1   109.5600471 388.275200
   1003   1015   1017     1   109.5600471 388.275200
   1004   1003   1015     1   109.8000471 387.438400
   1004   1003   1005     1   107.5800459 329.699200
   1005   1003   1015     1   109.8000471 387.438400
   1006   1012   1013     1   109.5600471 388.275200
   1006   1012   1014     1   109.5600471 388.275200
   1007   1006   1012     1   109.8000471 387.438400
   1007   1006   1008     1   107.5800459 329.699200
   1008   1006   1012     1   109.8000471 387.438400
   1010   1009   1018     1   109.7800468 425.094400
   1010   1009   1011     1   108.4600466 328.025600
   1011   1009   1018     1   109.7800468 425.094400
   1013   1012   2068     1   109.7800468 425.094400
   1013   1012   1014     1   108.4600466 328.025600
   1014   1012   2068     1   109.7800468 425.094400
   1016   1015   2098     1   109.7800468 425.094400
   1016   1015   1017     1   108.4600466 328.025600
   1017   1015   2098     1   109.7800468 425.094400
   1020   1021   1022     1   108.0100461 406.684800
   1020   1021   1023     1   108.0100461 406.684800
   1020   1024   1025     1   108.0100461 406.684800
   1020   1024   1026     1   108.0100461 406.684800
   1020   1027   1028     1   108.0100461 406.684800
   1020   1027   1029     1   108.0100461 406.684800
   1021   1020   1049     1   110.1100470 384.091200
   1021   1033   1034     1   109.8000471 387.438400
   1021   1033   1035     1   109.8000471 387.438400
   1022   1021   1033     1   110.5600475 386.601600
   1022   1021   1023     1   109.7500473 328.025600
   1023   1021   1033     1   110.5600475 386.601600
   1024   1020   1049     1   110.1100470 384.091200
   1024   1036   1037     1   109.8000471 387.438400
   1024   1036   1038     1   109.8000471 387.438400
   1025   1024   1036     1   110.5600475 386.601600
   1025   1024   1026     1   109.7500473 328.025600
   1026   1024   1036     1   110.5600475 386.601600
   1027   1020   1049     1   110.1100470 384.091200
   1027   1030   1031     1   109.8000471 387.438400
   1027   1030   1032     1   109.8000471 387.438400
   1028   1027   1030     1   110.5600475 386.601600
   1028   1027   1029     1   109.7500473 328.025600
   1029   1027   1030     1   110.5600475 386.601600
   1030   1039   1040     1   109.5600471 388.275200
   1030   1039   1041     1   109.5600471 388.275200
   1031   1030   1039     1   109.8000471 387.438400
   1031   1030   1032     1   107.5800459 329.699200
   1032   1030   1039     1   109.8000471 387.438400
   1033   1045   1046     1   109.5600471 388.275200
   1033   1045   1047     1   109.5600471 388.275200
   1034   1033   1045     1   109.8000471 387.438400
   1034   1033   1035     1   107.5800459 329.699200
   1035   1033   1045     1   109.8000471 387.438400
   1036   1042   1043     1   109.5600471 388.275200
   1036   1042   1044     1   109.5600471 388.275200
   1037   1036   1042     1   109.8000471 387.438400
   1037   1036   1038     1   107.5800459 329.699200
   1038   1036   1042     1   109.8000471 387.438400
   1040   1039   1048     1   109.7800468 425.094400
   1040   1039   1041     1   108.4600466 328.025600
   1041   1039   1048     1   109.7800468 425.094400
   1043   1042   2128     1   109.7800468 425.094400
   1043   1042   1044     1   108.4600466 328.025600
   1044   1042   2128     1   109.7800468 425.094400
   1046   1045   2158     1   109.7800468 425.094400
   1046   1045   1047     1   108.4600466 328.025600
   1047   1045   2158     1   109.7800468 425.094400
   1050   1051   1052     1   108.0100461 406.684800
   1050   1051   1053     1   108.0100461 406.684800
   1050   1054   1055     1   108.0100461 406.684800
   1050   1054   1056     1   108.0100461 406.684800
   1050   1057   1058     1   108.0100461 406.684800
   1050   1057   1059     1   108.0100461 406.684800
   1051   1050   1079     1   110.1100470 384.091200
   1051   1063   1064     1   109.8000471 387.438400
   1051   1063   1065     1   109.8000471 387.438400
   1052   1051   1063     1   110.5600475 386.601600
   1052   1051   1053     1   109.7500473 328.025600
   1053   1051   1063     1   110.5600475 386.601600
   1054   1050   1079     1   110.1100470 384.091200
   1054   1066   1067     1   109.8000471 387.438400
   1054   1066   1068     1   109.8000471 387.438400
   1055   1054   1066     1   110.5600475 386.601600
   1055   1054   1056     1   109.7500473 328.025600
   1056   1054   1066     1   110.5600475 386.601600
   1057   1050   1079     1   110.1100470 384.091200
   1057   1060   1061     1   109.8000471 387.438400
   1057   1060   1062     1   109.8000471 387.438400
   1058   1057   1060     1   110.5600475 386.601600
   1058   1057   1059     1   109.7500473 328.025600
   1059   1057   1060     1   110.5600475 386.601600
   1060   1069   1070     1   109.5600471 388.275200
   1060   1069   1071     1   109.5600471 388.275200
   1061   1060   1069     1   109.8000471 387.438400
   1061   1060   1062     1   107.5800459 329.699200
   1062   1060   1069     1   109.8000471 387.438400
   1063   1075   1076     1   109.5600471 388.275200
   1063   1075   1077     1   109.5600471 388.275200
   1064   1063   1075     1   109.8000471 387.438400
   1064   1063   1065     1   107.5800459 329.699200
   1065   1063   1075     1   109.8000471 387.438400
   1066   1072   1073     1   109.5600471 388.275200
   1066   1072   1074     1   109.5600471 388.275200
   1067   1066   1072     1   109.8000471 387.438400
   1067   1066   1068     1   107.5800459 329.699200
   1068   1066   1072     1   109.8000471 387.438400
   1070   1069   1078     1   109.7800468 425.094400
   1070   1069   1071     1   108.4600466 328.025600
   1071   1069   1078     1   109.7800468 425.094400
   1073   1072   2188     1   109.7800468 425.094400
   1073   1072   1074     1   108.4600466 328.025600
   1074   1072   2188     1   109.7800468 425.094400
   1076   1075   2218     1   109.7800468 425.094400
   1076   1075   1077     1   108.4600466 328.025600
   1077   1075   2218     1   109.7800468 425.094400
   1080   1081   1082     1   108.0100461 406.684800
   1080   1081   1083     1   108.0100461 406.684800
   1080   1084   1085     1   108.0100461 406.684800
   1080   1084   1086     1   108.0100461 406.684800
   1080   1087   1088     1   108.0100461 406.684800
   1080   1087   1089     1   108.0100461 406.684800
   1081   1080   1109     1   110.1100470 384.091200
   1081   1093   1094     1   109.8000471 387.438400
   1081   1093   1095     1   109.8000471 387.438400
   1082   1081   1093     1   110.5600475 386.601600
   1082   1081   1083     1   109.7500473 328.025600
   1083   1081   1093     1   110.5600475 386.601600
   1084   1080   1109     1   110.1100470 384.091200
   1084   1096   1097     1   109.8000471 387.438400
   1084   1096   1098     1   109.8000471 387.438400
   1085   1084   1096     1   110.5600475 386.601600
   1085   1084   1086     1   109.7500473 328.025600
   1086   1084   1096     1   110.5600475 386.601600
   1087   1080   1109     1   110.1100470 384.091200
   1087   1090   1091     1   109.8000471 387.438400
   1087   1090   1092     1   109.8000471 387.438400
   1088   1087   1090     1   110.5600475 386.601600
   1088   1087   1089     1   109.7500473 328.025600
   1089   1087   1090     1   110.5600475 386.601600
   1090   1099   1100     1   109.5600471 388.275200
   1090   1099   1101     1   109.5600471 388.275200
   1091   1090   1099     1   109.8000471 387.438400
   1091   1090   1092     1   107.5800459 329.699200
   1092   1090   1099     1   109.8000471 387.438400
   1093   1105   1106     1   109.5600471 388.275200
   1093   1105   1107     1   109.5600471 388.275200
   1094   1093   1105     1   109.8000471 387.438400
   1094   1093   1095     1   107.5800459 329.699200
   1095   1093   1105     1   109.8000471 387.438400
   1096   1102   1103     1   109.5600471 388.275200
   1096   1102   1104     1   109.5600471 388.275200
   1097   1096   1102     1   109.8000471 387.438400
   1097   1096   1098     1   107.5800459 329.699200
   1098   1096   1102     1   109.8000471 387.438400
   1100   1099   1108     1   109.7800468 425.094400
   1100   1099   1101     1   108.4600466 328.025600
   1101   1099   1108     1   109.7800468 425.094400
   1103   1102   2248     1   109.7800468 425.094400
   1103   1102   1104     1   108.4600466 328.025600
   1104   1102   2248     1   109.7800468 425.094400
   1106   1105   2278     1   109.7800468 425.094400
   1106   1105   1107     1   108.4600466 328.025600
   1107   1105   2278     1   109.7800468 425.094400
   1110   1111   1112     1   108.0100461 406.684800
   1110   1111   1113     1   108.0100461 406.684800
   1110   1114   1115     1   108.0100461 406.684800
   1110   1114   1116     1   108.0100461 406.684800
   1110   1117   1118     1   108.0100461 406.684800
   1110   1117   1119     1   108.0100461 406.684800
   1111   1110   1139     1   110.1100470 384.091200
   1111   1123   1124     1   109.8000471 387.438400
   1111   1123   1125     1   109.8000471 387.438400
   1112   1111   1123     1   110.5600475 386.601600
   1112   1111   1113     1   109.7500473 328.025600
   1113   1111   1123     1   110.5600475 386.601600
   1114   1110   1139     1   110.1100470 384.091200
   1114   1126   1127     1   109.8000471 387.438400
   1114   1126   1128     1   109.8000471 387.438400
   1115   1114   1126     1   110.5600475 386.601600
   1115   1114   1116     1   109.7500473 328.025600
   1116   1114   1126     1   110.5600475 386.601600
   1117   1110   1139     1   110.1100470 384.091200
   1117   1120   1121     1   109.8000471 387.438400
   1117   1120   1122     1   109.8000471 387.438400
   1118   1117   1120     1   110.5600475 386.601600
   1118   1117   1119     1   109.7500473 328.025600
   1119   1117   1120     1   110.5600475 386.601600
   1120   1129   1130     1   109.5600471 388.275200
   1120   1129   1131     1   109.5600471 388.275200
   1121   1120   1129     1   109.8000471 387.438400
   1121   1120   1122     1   107.5800459 329.699200
   1122   1120   1129     1   109.8000471 387.438400
   1123   1135   1136     1   109.5600471 388.275200
   1123   1135   1137     1   109.5600471 388.275200
   1124   1123   1135     1   109.8000471 387.438400
   1124   1123   1125     1   107.5800459 329.699200
   1125   1123   1135     1   109.8000471 387.438400
   1126   1132   1133     1   109.5600471 388.275200
   1126   1132   1134     1   109.5600471 388.275200
   1127   1126   1132     1   109.8000471 387.438400
   1127   1126   1128     1   107.5800459 329.699200
   1128   1126   1132     1   109.8000471 387.438400
   1130   1129   1138     1   109.7800468 425.094400
   1130   1129   1131     1   108.4600466 328.025600
   1131   1129   1138     1   109.7800468 425.094400
   1133   1132   2308     1   109.7800468 425.094400
   1133   1132   1134     1   108.4600466 328.025600
   1134   1132   2308     1   109.7800468 425.094400
   1136   1135   2338     1   109.7800468 425.094400
   1136   1135   1137     1   108.4600466 328.025600
   1137   1135   2338     1   109.7800468 425.094400
   1140   1141   1142     1   108.0100461 406.684800
   1140   1141   1143     1   108.0100461 406.684800
   1140   1144   1145     1   108.0100461 406.684800
   1140   1144   1146     1   108.0100461 406.684800
   1140   1147   1148     1   108.0100461 406.684800
   1140   1147   1149     1   108.0100461 406.684800
   1141   1140   1169     1   110.1100470 384.091200
   1141   1153   1154     1   109.8000471 387.438400
   1141   1153   1155     1   109.8000471 387.438400
   1142   1141   1153     1   110.5600475 386.601600
   1142   1141   1143     1   109.7500473 328.025600
   1143   1141   1153     1   110.5600475 386.601600
   1144   1140   1169     1   110.1100470 384.091200
   1144   1156   1157     1   109.8000471 387.438400
   1144   1156   1158     1   109.8000471 387.438400
   1145   1144   1156     1   110.5600475 386.601600
   1145   1144   1146     1   109.7500473 328.025600
   1146   1144   1156     1   110.5600475 386.601600
   1147   1140   1169     1   110.1100470 384.091200
   1147   1150   1151     1   109.8000471 387.438400
   1147   1150   1152     1   109.8000471 387.438400
   1148   1147   1150     1   110.5600475 386.601600
   1148   1147   1149     1   109.7500473 328.025600
   1149   1147   1150     1   110.5600475 386.601600
   1150   1159   1160     1   109.5600471 388.275200
   1150   1159   1161     1   109.5600471 388.275200
   1151   1150   1159     1   109.8000471 387.438400
   1151   1150   1152     1   107.5800459 329.699200
   1152   1150   1159     1   109.8000471 387.438400
   1153   1165   1166     1   109.5600471 388.275200
   1153   1165   1167     1   109.5600471 388.275200
   1154   1153   1165     1   109.8000471 387.438400
   1154   1153   1155     1   107.5800459 329.699200
   1155   1153   1165     1   109.8000471 387.438400
   1156   1162   1163     1   109.5600471 388.275200
   1156   1162   1164     1   109.5600471 388.275200
   1157   1156   1162     1   109.8000471 387.438400
   1157   1156   1158     1   107.5800459 329.699200
   1158   1156   1162     1   109.8000471 387.438400
   1160   1159   1168     1   109.7800468 425.094400
   1160   1159   1161     1   108.4600466 328.025600
   1161   1159   1168     1   109.7800468 425.094400
   1163   1162   2368     1   109.7800468 425.094400
   1163   1162   1164     1   108.4600466 328.025600
   1164   1162   2368     1   109.7800468 425.094400
   1166   1165   2398     1   109.7800468 425.094400
   1166   1165   1167     1   108.4600466 328.025600
   1167   1165   2398     1   109.7800468 425.094400
   1170   1171   1172     1   108.0100461 406.684800
   1170   1171   1173     1   108.0100461 406.684800
   1170   1174   1175     1   108.0100461 406.684800
   1170   1174   1176     1   108.0100461 406.684800
   1170   1177   1178     1   108.0100461 406.684800
   1170   1177   1179     1   108.0100461 406.684800
   1171   1170   1199     1   110.1100470 384.091200
   1171   1183   1184     1   109.8000471 387.438400
   1171   1183   1185     1   109.8000471 387.438400
   1172   1171   1183     1   110.5600475 386.601600
   1172   1171   1173     1   109.7500473 328.025600
   1173   1171   1183     1   110.5600475 386.601600
   1174   1170   1199     1   110.1100470 384.091200
   1174   1186   1187     1   109.8000471 387.438400
   1174   1186   1188     1   109.8000471 387.438400
   1175   1174   1186     1   110.5600475 386.601600
   1175   1174   1176     1   109.7500473 328.025600
   1176   1174   1186     1   110.5600475 386.601600
   1177   1170   1199     1   110.1100470 384.091200
   1177   1180   1181     1   109.8000471 387.438400
   1177   1180   1182     1   109.8000471 387.438400
   1178   1177   1180     1   110.5600475 386.601600
   1178   1177   1179     1   109.7500473 328.025600
   1179   1177   1180     1   110.5600475 386.601600
   1180   1189   1190     1   109.5600471 388.275200
   1180   1189   1191     1   109.5600471 388.275200
   1181   1180   1189     1   109.8000471 387.438400
   1181   1180   1182     1   107.5800459 329.699200
   1182   1180   1189     1   109.8000471 387.438400
   1183   1195   1196     1   109.5600471 388.275200
   1183   1195   1197     1   109.5600471 388.275200
   1184   1183   1195     1   109.8000471 387.438400
   1184   1183   1185     1   107.5800459 329.699200
   1185   1183   1195     1   109.8000471 387.438400
   1186   1192   1193     1   109.5600471 388.275200
   1186   1192   1194     1   109.5600471 388.275200
   1187   1186   1192     1   109.8000471 387.438400
   1187   1186   1188     1   107.5800459 329.699200
   1188   1186   1192     1   109.8000471 387.438400
   1190   1189   1198     1   109.7800468 425.094400
   1190   1189   1191     1   108.4600466 328.025600
   1191   1189   1198     1   109.7800468 425.094400
   1193   1192   2428     1   109.7800468 425.094400
   1193   1192   1194     1   108.4600466 328.025600
   1194   1192   2428     1   109.7800468 425.094400
   1196   1195   2458     1   109.7800468 425.094400
   1196   1195   1197     1   108.4600466 328.025600
   1197   1195   2458     1   109.7800468 425.094400
   1200   1201   1202     1   108.0100461 406.684800
   1200   1201   1203     1   108.0100461 406.684800
   1200   1204   1205     1   108.0100461 406.684800
   1200   1204   1206     1   108.0100461 406.684800
   1200   1207   1208     1   108.0100461 406.684800
   1200   1207   1209     1   108.0100461 406.684800
   1201   1200   1229     1   110.1100470 384.091200
   1201   1213   1214     1   109.8000471 387.438400
   1201   1213   1215     1   109.8000471 387.438400
   1202   1201   1213     1   110.5600475 386.601600
   1202   1201   1203     1   109.7500473 328.025600
   1203   1201   1213     1   110.5600475 386.601600
   1204   1200   1229     1   110.1100470 384.091200
   1204   1216   1217     1   109.8000471 387.438400
   1204   1216   1218     1   109.8000471 387.438400
   1205   1204   1216     1   110.5600475 386.601600
   1205   1204   1206     1   109.7500473 328.025600
   1206   1204   1216     1   110.5600475 386.601600
   1207   1200   1229     1   110.1100470 384.091200
   1207   1210   1211     1   109.8000471 387.438400
   1207   1210   1212     1   109.8000471 387.438400
   1208   1207   1210     1   110.5600475 386.601600
   1208   1207   1209     1   109.7500473 328.025600
   1209   1207   1210     1   110.5600475 386.601600
   1210   1219   1220     1   109.5600471 388.275200
   1210   1219   1221     1   109.5600471 388.275200
   1211   1210   1219     1   109.8000471 387.438400
   1211   1210   1212     1   107.5800459 329.699200
   1212   1210   1219     1   109.8000471 387.438400
   1213   1225   1226     1   109.5600471 388.275200
   1213   1225   1227     1   109.5600471 388.275200
   1214   1213   1225     1   109.8000471 387.438400
   1214   1213   1215     1   107.5800459 329.699200
   1215   1213   1225     1   109.8000471 387.438400
   1216   1222   1223     1   109.5600471 388.275200
   1216   1222   1224     1   109.5600471 388.275200
   1217   1216   1222     1   109.8000471 387.438400
   1217   1216   1218     1   107.5800459 329.699200
   1218   1216   1222     1   109.8000471 387.438400
   1220   1219   1228     1   109.7800468 425.094400
   1220   1219   1221     1   108.4600466 328.025600
   1221   1219   1228     1   109.7800468 425.094400
   1223   1222   2488     1   109.7800468 425.094400
   1223   1222   1224     1   108.4600466 328.025600
   1224   1222   2488     1   109.7800468 425.094400
   1226   1225   2518     1   109.7800468 425.094400
   1226   1225   1227     1   108.4600466 328.025600
   1227   1225   2518     1   109.7800468 425.094400
   1230   1231   1232     1   108.0100461 406.684800
   1230   1231   1233     1   108.0100461 406.684800
   1230   1234   1235     1   108.0100461 406.684800
   1230   1234   1236     1   108.0100461 406.684800
   1230   1237   1238     1   108.0100461 406.684800
   1230   1237   1239     1   108.0100461 406.684800
   1231   1230   1259     1   110.1100470 384.091200
   1231   1243   1244     1   109.8000471 387.438400
   1231   1243   1245     1   109.8000471 387.438400
   1232   1231   1243     1   110.5600475 386.601600
   1232   1231   1233     1   109.7500473 328.025600
   1233   1231   1243     1   110.5600475 386.601600
   1234   1230   1259     1   110.1100470 384.091200
   1234   1246   1247     1   109.8000471 387.438400
   1234   1246   1248     1   109.8000471 387.438400
   1235   1234   1246     1   110.5600475 386.601600
   1235   1234   1236     1   109.7500473 328.025600
   1236   1234   1246     1   110.5600475 386.601600
   1237   1230   1259     1   110.1100470 384.091200
   1237   1240   1241     1   109.8000471 387.438400
   1237   1240   1242     1   109.8000471 387.438400
   1238   1237   1240     1   110.5600475 386.601600
   1238   1237   1239     1   109.7500473 328.025600
   1239   1237   1240     1   110.5600475 386.601600
   1240   1249   1250     1   109.5600471 388.275200
   1240   1249   1251     1   109.5600471 388.275200
   1241   1240   1249     1   109.8000471 387.438400
   1241   1240   1242     1   107.5800459 329.699200
   1242   1240   1249     1   109.8000471 387.438400
   1243   1255   1256     1   109.5600471 388.275200
   1243   1255   1257     1   109.5600471 388.275200
   1244   1243   1255     1   109.8000471 387.438400
   1244   1243   1245     1   107.5800459 329.699200
   1245   1243   1255     1   109.8000471 387.438400
   1246   1252   1253     1   109.5600471 388.275200
   1246   1252   1254     1   109.5600471 388.275200
   1247   1246   1252     1   109.8000471 387.438400
   1247   1246   1248     1   107.5800459 329.699200
   1248   1246   1252     1   109.8000471 387.438400
   1250   1249   1258     1   109.7800468 425.094400
   1250   1249   1251     1   108.4600466 328.025600
   1251   1249   1258     1   109.7800468 425.094400
   1253   1252   2548     1   109.7800468 425.094400
   1253   1252   1254     1   108.4600466 328.025600
   1254   1252   2548     1   109.7800468 425.094400
   1256   1255   2578     1   109.7800468 425.094400
   1256   1255   1257     1   108.4600466 328.025600
   1257   1255   2578     1   109.7800468 425.094400
   1260   1261   1262     1   108.0100461 406.684800
   1260   1261   1263     1   108.0100461 406.684800
   1260   1264   1265     1   108.0100461 406.684800
   1260   1264   1266     1   108.0100461 406.684800
   1260   1267   1268     1   108.0100461 406.684800
   1260   1267   1269     1   108.0100461 406.684800
   1261   1260   1289     1   110.1100470 384.091200
   1261   1273   1274     1   109.8000471 387.438400
   1261   1273   1275     1   109.8000471 387.438400
   1262   1261   1273     1   110.5600475 386.601600
   1262   1261   1263     1   109.7500473 328.025600
   1263   1261   1273     1   110.5600475 386.601600
   1264   1260   1289     1   110.1100470 384.091200
   1264   1276   1277     1   109.8000471 387.438400
   1264   1276   1278     1   109.8000471 387.438400
   1265   1264   1276     1   110.5600475 386.601600
   1265   1264   1266     1   109.7500473 328.025600
   1266   1264   1276     1   110.5600475 386.601600
   1267   1260   1289     1   110.1100470 384.091200
   1267   1270   1271     1   109.8000471 387.438400
   1267   1270   1272     1   109.8000471 387.438400
   1268   1267   1270     1   110.5600475 386.601600
   1268   1267   1269     1   109.7500473 328.025600
   1269   1267   1270     1   110.5600475 386.601600
   1270   1279   1280     1   109.5600471 388.275200
   1270   1279   1281     1   109.5600471 388.275200
   1271   1270   1279     1   109.8000471 387.438400
   1271   1270   1272     1   107.5800459 329.699200
   1272   1270   1279     1   109.8000471 387.438400
   1273   1285   1286     1   109.5600471 388.275200
   1273   1285   1287     1   109.5600471 388.275200
   1274   1273   1285     1   109.8000471 387.438400
   1274   1273   1275     1   107.5800459 329.699200
   1275   1273   1285     1   109.8000471 387.438400
   1276   1282   1283     1   109.5600471 388.275200
   1276   1282   1284     1   109.5600471 388.275200
   1277   1276   1282     1   109.8000471 387.438400
   1277   1276   1278     1   107.5800459 329.699200
   1278   1276   1282     1   109.8000471 387.438400
   1280   1279   1288     1   109.7800468 425.094400
   1280   1279   1281     1   108.4600466 328.025600
   1281   1279   1288     1   109.7800468 425.094400
   1283   1282   2608     1   109.7800468 425.094400
   1283   1282   1284     1   108.4600466 328.025600
   1284   1282   2608     1   109.7800468 425.094400
   1286   1285   2638     1   109.7800468 425.094400
   1286   1285   1287     1   108.4600466 328.025600
   1287   1285   2638     1   109.7800468 425.094400
   1290   1291   1292     1   108.0100461 406.684800
   1290   1291   1293     1   108.0100461 406.684800
   1290   1294   1295     1   108.0100461 406.684800
   1290   1294   1296     1   108.0100461 406.684800
   1290   1297   1298     1   108.0100461 406.684800
   1290   1297   1299     1   108.0100461 406.684800
   1291   1290   1319     1   110.1100470 384.091200
   1291   1303   1304     1   109.8000471 387.438400
   1291   1303   1305     1   109.8000471 387.438400
   1292   1291   1303     1   110.5600475 386.601600
   1292   1291   1293     1   109.7500473 328.025600
   1293   1291   1303     1   110.5600475 386.601600
   1294   1290   1319     1   110.1100470 384.091200
   1294   1306   1307     1   109.8000471 387.438400
   1294   1306   1308     1   109.8000471 387.438400
   1295   1294   1306     1   110.5600475 386.601600
   1295   1294   1296     1   109.7500473 328.025600
   1296   1294   1306     1   110.5600475 386.601600
   1297   1290   1319     1   110.1100470 384.091200
   1297   1300   1301     1   109.8000471 387.438400
   1297   1300   1302     1   109.8000471 387.438400
   1298   1297   1300     1   110.5600475 386.601600
   1298   1297   1299     1   109.7500473 328.025600
   1299   1297   1300     1   110.5600475 386.601600
   1300   1309   1310     1   109.5600471 388.275200
   1300   1309   1311     1   109.5600471 388.275200
   1301   1300   1309     1   109.8000471 387.438400
   1301   1300   1302     1   107.5800459 329.699200
   1302   1300   1309     1   109.8000471 387.438400
   1303   1315   1316     1   109.5600471 388.275200
   1303   1315   1317     1   109.5600471 388.275200
   1304   1303   1315     1   109.8000471 387.438400
   1304   1303   1305     1   107.5800459 329.699200
   1305   1303   1315     1   109.8000471 387.438400
   1306   1312   1313     1   109.5600471 388.275200
   1306   1312   1314     1   109.5600471 388.275200
   1307   1306   1312     1   109.8000471 387.438400
   1307   1306   1308     1   107.5800459 329.699200
   1308   1306   1312     1   109.8000471 387.438400
   1310   1309   1318     1   109.7800468 425.094400
   1310   1309   1311     1   108.4600466 328.025600
   1311   1309   1318     1   109.7800468 425.094400
   1313   1312   2668     1   109.7800468 425.094400
   1313   1312   1314     1   108.4600466 328.025600
   1314   1312   2668     1   109.7800468 425.094400
   1316   1315   2698     1   109.7800468 425.094400
   1316   1315   1317     1   108.4600466 328.025600
   1317   1315   2698     1   109.7800468 425.094400
   1320   1321   1322     1   108.0100461 406.684800
   1320   1321   1323     1   108.0100461 406.684800
   1320   1324   1325     1   108.0100461 406.684800
   1320   1324   1326     1   108.0100461 406.684800
   1320   1327   1328     1   108.0100461 406.684800
   1320   1327   1329     1   108.0100461 406.684800
   1321   1320   1349     1   110.1100470 384.091200
   1321   1333   1334     1   109.8000471 387.438400
   1321   1333   1335     1   109.8000471 387.438400
   1322   1321   1333     1   110.5600475 386.601600
   1322   1321   1323     1   109.7500473 328.025600
   1323   1321   1333     1   110.5600475 386.601600
   1324   1320   1349     1   110.1100470 384.091200
   1324   1336   1337     1   109.8000471 387.438400
   1324   1336   1338     1   109.8000471 387.438400
   1325   1324   1336     1   110.5600475 386.601600
   1325   1324   1326     1   109.7500473 328.025600
   1326   1324   1336     1   110.5600475 386.601600
   1327   1320   1349     1   110.1100470 384.091200
   1327   1330   1331     1   109.8000471 387.438400
   1327   1330   1332     1   109.8000471 387.438400
   1328   1327   1330     1   110.5600475 386.601600
   1328   1327   1329     1   109.7500473 328.025600
   1329   1327   1330     1   110.5600475 386.601600
   1330   1339   1340     1   109.5600471 388.275200
   1330   1339   1341     1   109.5600471 388.275200
   1331   1330   1339     1   109.8000471 387.438400
   1331   1330   1332     1   107.5800459 329.699200
   1332   1330   1339     1   109.8000471 387.438400
   1333   1345   1346     1   109.5600471 388.275200
   1333   1345   1347     1   109.5600471 388.275200
   1334   1333   1345     1   109.8000471 387.438400
   1334   1333   1335     1   107.5800459 329.699200
   1335   1333   1345     1   109.8000471 387.438400
   1336   1342   1343     1   109.5600471 388.275200
   1336   1342   1344     1   109.5600471 388.275200
   1337   1336   1342     1   109.8000471 387.438400
   1337   1336   1338     1   107.5800459 329.699200
   1338   1336   1342     1   109.8000471 387.438400
   1340   1339   1348     1   109.7800468 425.094400
   1340   1339   1341     1   108.4600466 328.025600
   1341   1339   1348     1   109.7800468 425.094400
   1343   1342   2728     1   109.7800468 425.094400
   1343   1342   1344     1   108.4600466 328.025600
   1344   1342   2728     1   109.7800468 425.094400
   1346   1345   2758     1   109.7800468 425.094400
   1346   1345   1347     1   108.4600466 328.025600
   1347   1345   2758     1   109.7800468 425.094400
   1350   1351   1352     1   108.0100461 406.684800
   1350   1351   1353     1   108.0100461 406.684800
   1350   1354   1355     1   108.0100461 406.684800
   1350   1354   1356     1   108.0100461 406.684800
   1350   1357   1358     1   108.0100461 406.684800
   1350   1357   1359     1   108.0100461 406.684800
   1351   1350   1379     1   110.1100470 384.091200
   1351   1363   1364     1   109.8000471 387.438400
   1351   1363   1365     1   109.8000471 387.438400
   1352   1351   1363     1   110.5600475 386.601600
   1352   1351   1353     1   109.7500473 328.025600
   1353   1351   1363     1   110.5600475 386.601600
   1354   1350   1379     1   110.1100470 384.091200
   1354   1366   1367     1   109.8000471 387.438400
   1354   1366   1368     1   109.8000471 387.438400
   1355   1354   1366     1   110.5600475 386.601600
   1355   1354   1356     1   109.7500473 328.025600
   1356   1354   1366     1   110.5600475 386.601600
   1357   1350   1379     1   110.1100470 384.091200
   1357   1360   1361     1   109.8000471 387.438400
   1357   1360   1362     1   109.8000471 387.438400
   1358   1357   1360     1   110.5600475 386.601600
   1358   1357   1359     1   109.7500473 328.025600
   1359   1357   1360     1   110.5600475 386.601600
   1360   1369   1370     1   109.5600471 388.275200
   1360   1369   1371     1   109.5600471 388.275200
   1361   1360   1369     1   109.8000471 387.438400
   1361   1360   1362     1   107.5800459 329.699200
   1362   1360   1369     1   109.8000471 387.438400
   1363   1375   1376     1   109.5600471 388.275200
   1363   1375   1377     1   109.5600471 388.275200
   1364   1363   1375     1   109.8000471 387.438400
   1364   1363   1365     1   107.5800459 329.699200
   1365   1363   1375     1   109.8000471 387.438400
   1366   1372   1373     1   109.5600471 388.275200
   1366   1372   1374     1   109.5600471 388.275200
   1367   1366   1372     1   109.8000471 387.438400
   1367   1366   1368     1   107.5800459 329.699200
   1368   1366   1372     1   109.8000471 387.438400
   1370   1369   1378     1   109.7800468 425.094400
   1370   1369   1371     1   108.4600466 328.025600
   1371   1369   1378     1   109.7800468 425.094400
   1373   1372   2788     1   109.7800468 425.094400
   1373   1372   1374     1   108.4600466 328.025600
   1374   1372   2788     1   109.7800468 425.094400
   1376   1375   2818     1   109.7800468 425.094400
   1376   1375   1377     1   108.4600466 328.025600
   1377   1375   2818     1   109.7800468 425.094400
   1380   1381   1382     1   108.0100461 406.684800
   1380   1381   1383     1   108.0100461 406.684800
   1380   1384   1385     1   108.0100461 406.684800
   1380   1384   1386     1   108.0100461 406.684800
   1380   1387   1388     1   108.0100461 406.684800
   1380   1387   1389     1   108.0100461 406.684800
   1381   1380   1409     1   110.1100470 384.091200
   1381   1393   1394     1   109.8000471 387.438400
   1381   1393   1395     1   109.8000471 387.438400
   1382   1381   1393     1   110.5600475 386.601600
   1382   1381   1383     1   109.7500473 328.025600
   1383   1381   1393     1   110.5600475 386.601600
   1384   1380   1409     1   110.1100470 384.091200
   1384   1396   1397     1   109.8000471 387.438400
   1384   1396   1398     1   109.8000471 387.438400
   1385   1384   1396     1   110.5600475 386.601600
   1385   1384   1386     1   109.7500473 328.025600
   1386   1384   1396     1   110.5600475 386.601600
   1387   1380   1409     1   110.1100470 384.091200
   1387   1390   1391     1   109.8000471 387.438400
   1387   1390   1392     1   109.8000471 387.438400
   1388   1387   1390     1   110.5600475 386.601600
   1388   1387   1389     1   109.7500473 328.025600
   1389   1387   1390     1   110.5600475 386.601600
   1390   1399   1400     1   109.5600471 388.275200
   1390   1399   1401     1   109.5600471 388.275200
   1391   1390   1399     1   109.8000471 387.438400
   1391   1390   1392     1   107.5800459 329.699200
   1392   1390   1399     1   109.8000471 387.438400
   1393   1405   1406     1   109.5600471 388.275200
   1393   1405   1407     1   109.5600471 388.275200
   1394   1393   1405     1   109.8000471 387.438400
   1394   1393   1395     1   107.5800459 329.699200
   1395   1393   1405     1   109.8000471 387.438400
   1396   1402   1403     1   109.5600471 388.275200
   1396   1402   1404     1   109.5600471 388.275200
   1397   1396   1402     1   109.8000471 387.438400
   1397   1396   1398     1   107.5800459 329.699200
   1398   1396   1402     1   109.8000471 387.438400
   1400   1399   1408     1   109.7800468 425.094400
   1400   1399   1401     1   108.4600466 328.025600
   1401   1399   1408     1   109.7800468 425.094400
   1403   1402   2848     1   109.7800468 425.094400
   1403   1402   1404     1   108.4600466 328.025600
   1404   1402   2848     1   109.7800468 425.094400
   1406   1405   2878     1   109.7800468 425.094400
   1406   1405   1407     1   108.4600466 328.025600
   1407   1405   2878     1   109.7800468 425.094400
   1410   1411   1412     1   108.0100461 406.684800
   1410   1411   1413     1   108.0100461 406.684800
   1410   1414   1415     1   108.0100461 406.684800
   1410   1414   1416     1   108.0100461 406.684800
   1410   1417   1418     1   108.0100461 406.684800
   1410   1417   1419     1   108.0100461 406.684800
   1411   1410   1439     1   110.1100470 384.091200
   1411   1423   1424     1   109.8000471 387.438400
   1411   1423   1425     1   109.8000471 387.438400
   1412   1411   1423     1   110.5600475 386.601600
   1412   1411   1413     1   109.7500473 328.025600
   1413   1411   1423     1   110.5600475 386.601600
   1414   1410   1439     1   110.1100470 384.091200
   1414   1426   1427     1   109.8000471 387.438400
   1414   1426   1428     1   109.8000471 387.438400
   1415   1414   1426     1   110.5600475 386.601600
   1415   1414   1416     1   109.7500473 328.025600
   1416   1414   1426     1   110.5600475 386.601600
   1417   1410   1439     1   110.1100470 384.091200
   1417   1420   1421     1   109.8000471 387.438400
   1417   1420   1422     1   109.8000471 387.438400
   1418   1417   1420     1   110.5600475 386.601600
   1418   1417   1419     1   109.7500473 328.025600
   1419   1417   1420     1   110.5600475 386.601600
   1420   1429   1430     1   109.5600471 388.275200
   1420   1429   1431     1   109.5600471 388.275200
   1421   1420   1429     1   109.8000471 387.438400
   1421   1420   1422     1   107.5800459 329.699200
   1422   1420   1429     1   109.8000471 387.438400
   1423   1435   1436     1   109.5600471 388.275200
   1423   1435   1437     1   109.5600471 388.275200
   1424   1423   1435     1   109.8000471 387.438400
   1424   1423   1425     1   107.5800459 329.699200
   1425   1423   1435     1   109.8000471 387.438400
   1426   1432   1433     1   109.5600471 388.275200
   1426   1432   1434     1   109.5600471 388.275200
   1427   1426   1432     1   109.8000471 387.438400
   1427   1426   1428     1   107.5800459 329.699200
   1428   1426   1432     1   109.8000471 387.438400
   1430   1429   1438     1   109.7800468 425.094400
   1430   1429   1431     1   108.4600466 328.025600
   1431   1429   1438     1   109.7800468 425.094400
   1433   1432   2908     1   109.7800468 425.094400
   1433   1432   1434     1   108.4600466 328.025600
   1434   1432   2908     1   109.7800468 425.094400
   1436   1435   2938     1   109.7800468 425.094400
   1436   1435   1437     1   108.4600466 328.025600
   1437   1435   2938     1   109.7800468 425.094400
   1440   1441   1442     1   108.0100461 406.684800
   1440   1441   1443     1   108.0100461 406.684800
   1440   1444   1445     1   108.0100461 406.684800
   1440   1444   1446     1   108.0100461 406.684800
   1440   1447   1448     1   108.0100461 406.684800
   1440   1447   1449     1   108.0100461 406.684800
   1441   1440   1469     1   110.1100470 384.091200
   1441   1453   1454     1   109.8000471 387.438400
   1441   1453   1455     1   109.8000471 387.438400
   1442   1441   1453     1   110.5600475 386.601600
   1442   1441   1443     1   109.7500473 328.025600
   1443   1441   1453     1   110.5600475 386.601600
   1444   1440   1469     1   110.1100470 384.091200
   1444   1456   1457     1   109.8000471 387.438400
   1444   1456   1458     1   109.8000471 387.438400
   1445   1444   1456     1   110.5600475 386.601600
   1445   1444   1446     1   109.7500473 328.025600
   1446   1444   1456     1   110.5600475 386.601600
   1447   1440   1469     1   110.1100470 384.091200
   1447   1450   1451     1   109.8000471 387.438400
   1447   1450   1452     1   109.8000471 387.438400
   1448   1447   1450     1   110.5600475 386.601600
   1448   1447   1449     1   109.7500473 328.025600
   1449   1447   1450     1   110.5600475 386.601600
   1450   1459   1460     1   109.5600471 388.275200
   1450   1459   1461     1   109.5600471 388.275200
   1451   1450   1459     1   109.8000471 387.438400
   1451   1450   1452     1   107.5800459 329.699200
   1452   1450   1459     1   109.8000471 387.438400
   1453   1465   1466     1   109.5600471 388.275200
   1453   1465   1467     1   109.5600471 388.275200
   1454   1453   1465     1   109.8000471 387.438400
   1454   1453   1455     1   107.5800459 329.699200
   1455   1453   1465     1   109.8000471 387.438400
   1456   1462   1463     1   109.5600471 388.275200
   1456   1462   1464     1   109.5600471 388.275200
   1457   1456   1462     1   109.8000471 387.438400
   1457   1456   1458     1   107.5800459 329.699200
   1458   1456   1462     1   109.8000471 387.438400
   1460   1459   1468     1   109.7800468 425.094400
   1460   1459   1461     1   108.4600466 328.025600
   1461   1459   1468     1   109.7800468 425.094400
   1463   1462   2968     1   109.7800468 425.094400
   1463   1462   1464     1   108.4600466 328.025600
   1464   1462   2968     1   109.7800468 425.094400
   1466   1465   2998     1   109.7800468 425.094400
   1466   1465   1467     1   108.4600466 328.025600
   1467   1465   2998     1   109.7800468 425.094400
   1470   1471   1472     1   108.0100461 406.684800
   1470   1471   1473     1   108.0100461 406.684800
   1470   1474   1475     1   108.0100461 406.684800
   1470   1474   1476     1   108.0100461 406.684800
   1470   1477   1478     1   108.0100461 406.684800
   1470   1477   1479     1   108.0100461 406.684800
   1471   1470   1499     1   110.1100470 384.091200
   1471   1483   1484     1   109.8000471 387.438400
   1471   1483   1485     1   109.8000471 387.438400
   1472   1471   1483     1   110.5600475 386.601600
   1472   1471   1473     1   109.7500473 328.025600
   1473   1471   1483     1   110.5600475 386.601600
   1474   1470   1499     1   110.1100470 384.091200
   1474   1486   1487     1   109.8000471 387.438400
   1474   1486   1488     1   109.8000471 387.438400
   1475   1474   1486     1   110.5600475 386.601600
   1475   1474   1476     1   109.7500473 328.025600
   1476   1474   1486     1   110.5600475 386.601600
   1477   1470   1499     1   110.1100470 384.091200
   1477   1480   1481     1   109.8000471 387.438400
   1477   1480   1482     1   109.8000471 387.438400
   1478   1477   1480     1   110.5600475 386.601600
   1478   1477   1479     1   109.7500473 328.025600
   1479   1477   1480     1   110.5600475 386.601600
   1480   1489   1490     1   109.5600471 388.275200
   1480   1489   1491     1   109.5600471 388.275200
   1481   1480   1489     1   109.8000471 387.438400
   1481   1480   1482     1   107.5800459 329.699200
   1482   1480   1489     1   109.8000471 387.438400
   1483   1495   1496     1   109.5600471 388.275200
   1483   1495   1497     1   109.5600471 388.275200
   1484   1483   1495     1   109.8000471 387.438400
   1484   1483   1485     1   107.5800459 329.699200
   1485   1483   1495     1   109.8000471 387.438400
   1486   1492   1493     1   109.5600471 388.275200
   1486   1492   1494     1   109.5600471 388.275200
   1487   1486   1492     1   109.8000471 387.438400
   1487   1486   1488     1   107.5800459 329.699200
   1488   1486   1492     1   109.8000471 387.438400
   1490   1489   1498     1   109.7800468 425.094400
   1490   1489   1491     1   108.4600466 328.025600
   1491   1489   1498     1   109.7800468 425.094400
   1493   1492   3028     1   109.7800468 425.094400
   1493   1492   1494     1   108.4600466 328.025600
   1494   1492   3028     1   109.7800468 425.094400
   1496   1495   3058     1   109.7800468 425.094400
   1496   1495   1497     1   108.4600466 328.025600
   1497   1495   3058     1   109.7800468 425.094400
   1500   1501   1502     1   108.0100461 406.684800
   1500   1501   1503     1   108.0100461 406.684800
   1500   1504   1505     1   108.0100461 406.684800
   1500   1504   1506     1   108.0100461 406.684800
   1500   1507   1508     1   108.0100461 406.684800
   1500   1507   1509     1   108.0100461 406.684800
   1501   1500   1529     1   110.1100470 384.091200
   1501   1513   1514     1   109.8000471 387.438400
   1501   1513   1515     1   109.8000471 387.438400
   1502   1501   1513     1   110.5600475 386.601600
   1502   1501   1503     1   109.7500473 328.025600
   1503   1501   1513     1   110.5600475 386.601600
   1504   1500   1529     1   110.1100470 384.091200
   1504   1516   1517     1   109.8000471 387.438400
   1504   1516   1518     1   109.8000471 387.438400
   1505   1504   1516     1   110.5600475 386.601600
   1505   1504   1506     1   109.7500473 328.025600
   1506   1504   1516     1   110.5600475 386.601600
   1507   1500   1529     1   110.1100470 384.091200
   1507   1510   1511     1   109.8000471 387.438400
   1507   1510   1512     1   109.8000471 387.438400
   1508   1507   1510     1   110.5600475 386.601600
   1508   1507   1509     1   109.7500473 328.025600
   1509   1507   1510     1   110.5600475 386.601600
   1510   1519   1520     1   109.5600471 388.275200
   1510   1519   1521     1   109.5600471 388.275200
   1511   1510   1519     1   109.8000471 387.438400
   1511   1510   1512     1   107.5800459 329.699200
   1512   1510   1519     1   109.8000471 387.438400
   1513   1525   1526     1   109.5600471 388.275200
   1513   1525   1527     1   109.5600471 388.275200
   1514   1513   1525     1   109.8000471 387.438400
   1514   1513   1515     1   107.5800459 329.699200
   1515   1513   1525     1   109.8000471 387.438400
   1516   1522   1523     1   109.5600471 388.275200
   1516   1522   1524     1   109.5600471 388.275200
   1517   1516   1522     1   109.8000471 387.438400
   1517   1516   1518     1   107.5800459 329.699200
   1518   1516   1522     1   109.8000471 387.438400
   1520   1519   1528     1   109.7800468 425.094400
   1520   1519   1521     1   108.4600466 328.025600
   1521   1519   1528     1   109.7800468 425.094400
   1523   1522   3088     1   109.7800468 425.094400
   1523   1522   1524     1   108.4600466 328.025600
   1524   1522   3088     1   109.7800468 425.094400
   1526   1525   3118     1   109.7800468 425.094400
   1526   1525   1527     1   108.4600466 328.025600
   1527   1525   3118     1   109.7800468 425.094400
   1530   1531   1532     1   108.0100461 406.684800
   1530   1531   1533     1   108.0100461 406.684800
   1530   1534   1535     1   108.0100461 406.684800
   1530   1534   1536     1   108.0100461 406.684800
   1530   1537   1538     1   108.0100461 406.684800
   1530   1537   1539     1   108.0100461 406.684800
   1531   1530   1559     1   110.1100470 384.091200
   1531   1543   1544     1   109.8000471 387.438400
   1531   1543   1545     1   109.8000471 387.438400
   1532   1531   1543     1   110.5600475 386.601600
   1532   1531   1533     1   109.7500473 328.025600
   1533   1531   1543     1   110.5600475 386.601600
   1534   1530   1559     1   110.1100470 384.091200
   1534   1546   1547     1   109.8000471 387.438400
   1534   1546   1548     1   109.8000471 387.438400
   1535   1534   1546     1   110.5600475 386.601600
   1535   1534   1536     1   109.7500473 328.025600
   1536   1534   1546     1   110.5600475 386.601600
   1537   1530   1559     1   110.1100470 384.091200
   1537   1540   1541     1   109.8000471 387.438400
   1537   1540   1542     1   109.8000471 387.438400
   1538   1537   1540     1   110.5600475 386.601600
   1538   1537   1539     1   109.7500473 328.025600
   1539   1537   1540     1   110.5600475 386.601600
   1540   1549   1550     1   109.5600471 388.275200
   1540   1549   1551     1   109.5600471 388.275200
   1541   1540   1549     1   109.8000471 387.438400
   1541   1540   1542     1   107.5800459 329.699200
   1542   1540   1549     1   109.8000471 387.438400
   1543   1555   1556     1   109.5600471 388.275200
   1543   1555   1557     1   109.5600471 388.275200
   1544   1543   1555     1   109.8000471 387.438400
   1544   1543   1545     1   107.5800459 329.699200
   1545   1543   1555     1   109.8000471 387.438400
   1546   1552   1553     1   109.5600471 388.275200
   1546   1552   1554     1   109.5600471 388.275200
   1547   1546   1552     1   109.8000471 387.438400
   1547   1546   1548     1   107.5800459 329.699200
   1548   1546   1552     1   109.8000471 387.438400
   1550   1549   1558     1   109.7800468 425.094400
   1550   1549   1551     1   108.4600466 328.025600
   1551   1549   1558     1   109.7800468 425.094400
   1553   1552   3148     1   109.7800468 425.094400
   1553   1552   1554     1   108.4600466 328.025600
   1554   1552   3148     1   109.7800468 425.094400
   1556   1555   3178     1   109.7800468 425.094400
   1556   1555   1557     1   108.4600466 328.025600
   1557   1555   3178     1   109.7800468 425.094400
   1560   1561   1562     1   108.0100461 406.684800
   1560   1561   1563     1   108.0100461 406.684800
   1560   1564   1565     1   108.0100461 406.684800
   1560   1564   1566     1   108.0100461 406.684800
   1560   1567   1568     1   108.0100461 406.684800
   1560   1567   1569     1   108.0100461 406.684800
   1561   1560   1589     1   110.1100470 384.091200
   1561   1573   1574     1   109.8000471 387.438400
   1561   1573   1575     1   109.8000471 387.438400
   1562   1561   1573     1   110.5600475 386.601600
   1562   1561   1563     1   109.7500473 328.025600
   1563   1561   1573     1   110.5600475 386.601600
   1564   1560   1589     1   110.1100470 384.091200
   1564   1576   1577     1   109.8000471 387.438400
   1564   1576   1578     1   109.8000471 387.438400
   1565   1564   1576     1   110.5600475 386.601600
   1565   1564   1566     1   109.7500473 328.025600
   1566   1564   1576     1   110.5600475 386.601600
   1567   1560   1589     1   110.1100470 384.091200
   1567   1570   1571     1   109.8000471 387.438400
   1567   1570   1572     1   109.8000471 387.438400
   1568   1567   1570     1   110.5600475 386.601600
   1568   1567   1569     1   109.7500473 328.025600
   1569   1567   1570     1   110.5600475 386.601600
   1570   1579   1580     1   109.5600471 388.275200
   1570   1579   1581     1   109.5600471 388.275200
   1571   1570   1579     1   109.8000471 387.438400
   1571   1570   1572     1   107.5800459 329.699200
   1572   1570   1579     1   109.8000471 387.438400
   1573   1585   1586     1   109.5600471 388.275200
   1573   1585   1587     1   109.5600471 388.275200
   1574   1573   1585     1   109.8000471 387.438400
   1574   1573   1575     1   107.5800459 329.699200
   1575   1573   1585     1   109.8000471 387.438400
   1576   1582   1583     1   109.5600471 388.275200
   1576   1582   1584     1   109.5600471 388.275200
   1577   1576   1582     1   109.8000471 387.438400
   1577   1576   1578     1   107.5800459 329.699200
   1578   1576   1582     1   109.8000471 387.438400
   1580   1579   1588     1   109.7800468 425.094400
   1580   1579   1581     1   108.4600466 328.025600
   1581   1579   1588     1   109.7800468 425.094400
   1583   1582   3208     1   109.7800468 425.094400
   1583   1582   1584     1   108.4600466 328.025600
   1584   1582   3208     1   109.7800468 425.094400
   1586   1585   3238     1   109.7800468 425.094400
   1586   1585   1587     1   108.4600466 328.025600
   1587   1585   3238     1   109.7800468 425.094400
   1590   1591   1592     1   108.0100461 406.684800
   1590   1591   1593     1   108.0100461 406.684800
   1590   1594   1595     1   108.0100461 406.684800
   1590   1594   1596     1   108.0100461 406.684800
   1590   1597   1598     1   108.0100461 406.684800
   1590   1597   1599     1   108.0100461 406.684800
   1591   1590   1619     1   110.1100470 384.091200
   1591   1603   1604     1   109.8000471 387.438400
   1591   1603   1605     1   109.8000471 387.438400
   1592   1591   1603     1   110.5600475 386.601600
   1592   1591   1593     1   109.7500473 328.025600
   1593   1591   1603     1   110.5600475 386.601600
   1594   1590   1619     1   110.1100470 384.091200
   1594   1606   1607     1   109.8000471 387.438400
   1594   1606   1608     1   109.8000471 387.438400
   1595   1594   1606     1   110.5600475 386.601600
   1595   1594   1596     1   109.7500473 328.025600
   1596   1594   1606     1   110.5600475 386.601600
   1597   1590   1619     1   110.1100470 384.091200
   1597   1600   1601     1   109.8000471 387.438400
   1597   1600   1602     1   109.8000471 387.438400
   1598   1597   1600     1   110.5600475 386.601600
   1598   1597   1599     1   109.7500473 328.025600
   1599   1597   1600     1   110.5600475 386.601600
   1600   1609   1610     1   109.5600471 388.275200
   1600   1609   1611     1   109.5600471 388.275200
   1601   1600   1609     1   109.8000471 387.438400
   1601   1600   1602     1   107.5800459 329.699200
   1602   1600   1609     1   109.8000471 387.438400
   1603   1615   1616     1   109.5600471 388.275200
   1603   1615   1617     1   109.5600471 388.275200
   1604   1603   1615     1   109.8000471 387.438400
   1604   1603   1605     1   107.5800459 329.699200
   1605   1603   1615     1   109.8000471 387.438400
   1606   1612   1613     1   109.5600471 388.275200
   1606   1612   1614     1   109.5600471 388.275200
   1607   1606   1612     1   109.8000471 387.438400
   1607   1606   1608     1   107.5800459 329.699200
   1608   1606   1612     1   109.8000471 387.438400
   1610   1609   1618     1   109.7800468 425.094400
   1610   1609   1611     1   108.4600466 328.025600
   1611   1609   1618     1   109.7800468 425.094400
   1613   1612   3268     1   109.7800468 425.094400
   1613   1612   1614     1   108.4600466 328.025600
   1614   1612   3268     1   109.7800468 425.094400
   1616   1615   3298     1   109.7800468 425.094400
   1616   1615   1617     1   108.4600466 328.025600
   1617   1615   3298     1   109.7800468 425.094400
   1620   1621   1622     1   108.0100461 406.684800
   1620   1621   1623     1   108.0100461 406.684800
   1620   1624   1625     1   108.0100461 406.684800
   1620   1624   1626     1   108.0100461 406.684800
   1620   1627   1628     1   108.0100461 406.684800
   1620   1627   1629     1   108.0100461 406.684800
   1621   1620   1649     1   110.1100470 384.091200
   1621   1633   1634     1   109.8000471 387.438400
   1621   1633   1635     1   109.8000471 387.438400
   1622   1621   1633     1   110.5600475 386.601600
   1622   1621   1623     1   109.7500473 328.025600
   1623   1621   1633     1   110.5600475 386.601600
   1624   1620   1649     1   110.1100470 384.091200
   1624   1636   1637     1   109.8000471 387.438400
   1624   1636   1638     1   109.8000471 387.438400
   1625   1624   1636     1   110.5600475 386.601600
   1625   1624   1626     1   109.7500473 328.025600
   1626   1624   1636     1   110.5600475 386.601600
   1627   1620   1649     1   110.1100470 384.091200
   1627   1630   1631     1   109.8000471 387.438400
   1627   1630   1632     1   109.8000471 387.438400
   1628   1627   1630     1   110.5600475 386.601600
   1628   1627   1629     1   109.7500473 328.025600
   1629   1627   1630     1   110.5600475 386.601600
   1630   1639   1640     1   109.5600471 388.275200
   1630   1639   1641     1   109.5600471 388.275200
   1631   1630   1639     1   109.8000471 387.438400
   1631   1630   1632     1   107.5800459 329.699200
   1632   1630   1639     1   109.8000471 387.438400
   1633   1645   1646     1   109.5600471 388.275200
   1633   1645   1647     1   109.5600471 388.275200
   1634   1633   1645     1   109.8000471 387.438400
   1634   1633   1635     1   107.5800459 329.699200
   1635   1633   1645     1   109.8000471 387.438400
   1636   1642   1643     1   109.5600471 388.275200
   1636   1642   1644     1   109.5600471 388.275200
   1637   1636   1642     1   109.8000471 387.438400
   1637   1636   1638     1   107.5800459 329.699200
   1638   1636   1642     1   109.8000471 387.438400
   1640   1639   1648     1   109.7800468 425.094400
   1640   1639   1641     1   108.4600466 328.025600
   1641   1639   1648     1   109.7800468 425.094400
   1643   1642   3328     1   109.7800468 425.094400
   1643   1642   1644     1   108.4600466 328.025600
   1644   1642   3328     1   109.7800468 425.094400
   1646   1645   3358     1   109.7800468 425.094400
   1646   1645   1647     1   108.4600466 328.025600
   1647   1645   3358     1   109.7800468 425.094400
   1650   1651   1652     1   108.0100461 406.684800
   1650   1651   1653     1   108.0100461 406.684800
   1650   1654   1655     1   108.0100461 406.684800
   1650   1654   1656     1   108.0100461 406.684800
   1650   1657   1658     1   108.0100461 406.684800
   1650   1657   1659     1   108.0100461 406.684800
   1651   1650   1679     1   110.1100470 384.091200
   1651   1663   1664     1   109.8000471 387.438400
   1651   1663   1665     1   109.8000471 387.438400
   1652   1651   1663     1   110.5600475 386.601600
   1652   1651   1653     1   109.7500473 328.025600
   1653   1651   1663     1   110.5600475 386.601600
   1654   1650   1679     1   110.1100470 384.091200
   1654   1666   1667     1   109.8000471 387.438400
   1654   1666   1668     1   109.8000471 387.438400
   1655   1654   1666     1   110.5600475 386.601600
   1655   1654   1656     1   109.7500473 328.025600
   1656   1654   1666     1   110.5600475 386.601600
   1657   1650   1679     1   110.1100470 384.091200
   1657   1660   1661     1   109.8000471 387.438400
   1657   1660   1662     1   109.8000471 387.438400
   1658   1657   1660     1   110.5600475 386.601600
   1658   1657   1659     1   109.7500473 328.025600
   1659   1657   1660     1   110.5600475 386.601600
   1660   1669   1670     1   109.5600471 388.275200
   1660   1669   1671     1   109.5600471 388.275200
   1661   1660   1669     1   109.8000471 387.438400
   1661   1660   1662     1   107.5800459 329.699200
   1662   1660   1669     1   109.8000471 387.438400
   1663   1675   1676     1   109.5600471 388.275200
   1663   1675   1677     1   109.5600471 388.275200
   1664   1663   1675     1   109.8000471 387.438400
   1664   1663   1665     1   107.5800459 329.699200
   1665   1663   1675     1   109.8000471 387.438400
   1666   1672   1673     1   109.5600471 388.275200
   1666   1672   1674     1   109.5600471 388.275200
   1667   1666   1672     1   109.8000471 387.438400
   1667   1666   1668     1   107.5800459 329.699200
   1668   1666   1672     1   109.8000471 387.438400
   1670   1669   1678     1   109.7800468 425.094400
   1670   1669   1671     1   108.4600466 328.025600
   1671   1669   1678     1   109.7800468 425.094400
   1673   1672   3388     1   109.7800468 425.094400
   1673   1672   1674     1   108.4600466 328.025600
   1674   1672   3388     1   109.7800468 425.094400
   1676   1675   3418     1   109.7800468 425.094400
   1676   1675   1677     1   108.4600466 328.025600
   1677   1675   3418     1   109.7800468 425.094400
   1680   1681   1682     1   108.0100461 406.684800
   1680   1681   1683     1   108.0100461 406.684800
   1680   1684   1685     1   108.0100461 406.684800
   1680   1684   1686     1   108.0100461 406.684800
   1680   1687   1688     1   108.0100461 406.684800
   1680   1687   1689     1   108.0100461 406.684800
   1681   1680   1709     1   110.1100470 384.091200
   1681   1693   1694     1   109.8000471 387.438400
   1681   1693   1695     1   109.8000471 387.438400
   1682   1681   1693     1   110.5600475 386.601600
   1682   1681   1683     1   109.7500473 328.025600
   1683   1681   1693     1   110.5600475 386.601600
   1684   1680   1709     1   110.1100470 384.091200
   1684   1696   1697     1   109.8000471 387.438400
   1684   1696   1698     1   109.8000471 387.438400
   1685   1684   1696     1   110.5600475 386.601600
   1685   1684   1686     1   109.7500473 328.025600
   1686   1684   1696     1   110.5600475 386.601600
   1687   1680   1709     1   110.1100470 384.091200
   1687   1690   1691     1   109.8000471 387.438400
   1687   1690   1692     1   109.8000471 387.438400
   1688   1687   1690     1   110.5600475 386.601600
   1688   1687   1689     1   109.7500473 328.025600
   1689   1687   1690     1   110.5600475 386.601600
   1690   1699   1700     1   109.5600471 388.275200
   1690   1699   1701     1   109.5600471 388.275200
   1691   1690   1699     1   109.8000471 387.438400
   1691   1690   1692     1   107.5800459 329.699200
   1692   1690   1699     1   109.8000471 387.438400
   1693   1705   1706     1   109.5600471 388.275200
   1693   1705   1707     1   109.5600471 388.275200
   1694   1693   1705     1   109.8000471 387.438400
   1694   1693   1695     1   107.5800459 329.699200
   1695   1693   1705     1   109.8000471 387.438400
   1696   1702   1703     1   109.5600471 388.275200
   1696   1702   1704     1   109.5600471 388.275200
   1697   1696   1702     1   109.8000471 387.438400
   1697   1696   1698     1   107.5800459 329.699200
   1698   1696   1702     1   109.8000471 387.438400
   1700   1699   1708     1   109.7800468 425.094400
   1700   1699   1701     1   108.4600466 328.025600
   1701   1699   1708     1   109.7800468 425.094400
   1703   1702   3448     1   109.7800468 425.094400
   1703   1702   1704     1   108.4600466 328.025600
   1704   1702   3448     1   109.7800468 425.094400
   1706   1705   3478     1   109.7800468 425.094400
   1706   1705   1707     1   108.4600466 328.025600
   1707   1705   3478     1   109.7800468 425.094400
   1710   1711   1712     1   108.0100461 406.684800
   1710   1711   1713     1   108.0100461 406.684800
   1710   1714   1715     1   108.0100461 406.684800
   1710   1714   1716     1   108.0100461 406.684800
   1710   1717   1718     1   108.0100461 406.684800
   1710   1717   1719     1   108.0100461 406.684800
   1711   1710   1739     1   110.1100470 384.091200
   1711   1723   1724     1   109.8000471 387.438400
   1711   1723   1725     1   109.8000471 387.438400
   1712   1711   1723     1   110.5600475 386.601600
   1712   1711   1713     1   109.7500473 328.025600
   1713   1711   1723     1   110.5600475 386.601600
   1714   1710   1739     1   110.1100470 384.091200
   1714   1726   1727     1   109.8000471 387.438400
   1714   1726   1728     1   109.8000471 387.438400
   1715   1714   1726     1   110.5600475 386.601600
   1715   1714   1716     1   109.7500473 328.025600
   1716   1714   1726     1   110.5600475 386.601600
   1717   1710   1739     1   110.1100470 384.091200
   1717   1720   1721     1   109.8000471 387.438400
   1717   1720   1722     1   109.8000471 387.438400
   1718   1717   1720     1   110.5600475 386.601600
   1718   1717   1719     1   109.7500473 328.025600
   1719   1717   1720     1   110.5600475 386.601600
   1720   1729   1730     1   109.5600471 388.275200
   1720   1729   1731     1   109.5600471 388.275200
   1721   1720   1729     1   109.8000471 387.438400
   1721   1720   1722     1   107.5800459 329.699200
   1722   1720   1729     1   109.8000471 387.438400
   1723   1735   1736     1   109.5600471 388.275200
   1723   1735   1737     1   109.5600471 388.275200
   1724   1723   1735     1   109.8000471 387.438400
   1724   1723   1725     1   107.5800459 329.699200
   1725   1723   1735     1   109.8000471 387.438400
   1726   1732   1733     1   109.5600471 388.275200
   1726   1732   1734     1   109.5600471 388.275200
   1727   1726   1732     1   109.8000471 387.438400
   1727   1726   1728     1   107.5800459 329.699200
   1728   1726   1732     1   109.8000471 387.438400
   1730   1729   1738     1   109.7800468 425.094400
   1730   1729   1731     1   108.4600466 328.025600
   1731   1729   1738     1   109.7800468 425.094400
   1733   1732   3508     1   109.7800468 425.094400
   1733   1732   1734     1   108.4600466 328.025600
   1734   1732   3508     1   109.7800468 425.094400
   1736   1735   3538     1   109.7800468 425.094400
   1736   1735   1737     1   108.4600466 328.025600
   1737   1735   3538     1   109.7800468 425.094400
   1740   1741   1742     1   108.0100461 406.684800
   1740   1741   1743     1   108.0100461 406.684800
   1740   1744   1745     1   108.0100461 406.684800
   1740   1744   1746     1   108.0100461 406.684800
   1740   1747   1748     1   108.0100461 406.684800
   1740   1747   1749     1   108.0100461 406.684800
   1741   1740   1769     1   110.1100470 384.091200
   1741   1753   1754     1   109.8000471 387.438400
   1741   1753   1755     1   109.8000471 387.438400
   1742   1741   1753     1   110.5600475 386.601600
   1742   1741   1743     1   109.7500473 328.025600
   1743   1741   1753     1   110.5600475 386.601600
   1744   1740   1769     1   110.1100470 384.091200
   1744   1756   1757     1   109.8000471 387.438400
   1744   1756   1758     1   109.8000471 387.438400
   1745   1744   1756     1   110.5600475 386.601600
   1745   1744   1746     1   109.7500473 328.025600
   1746   1744   1756     1   110.5600475 386.601600
   1747   1740   1769     1   110.1100470 384.091200
   1747   1750   1751     1   109.8000471 387.438400
   1747   1750   1752     1   109.8000471 387.438400
   1748   1747   1750     1   110.5600475 386.601600
   1748   1747   1749     1   109.7500473 328.025600
   1749   1747   1750     1   110.5600475 386.601600
   1750   1759   1760     1   109.5600471 388.275200
   1750   1759   1761     1   109.5600471 388.275200
   1751   1750   1759     1   109.8000471 387.438400
   1751   1750   1752     1   107.5800459 329.699200
   1752   1750   1759     1   109.8000471 387.438400
   1753   1765   1766     1   109.5600471 388.275200
   1753   1765   1767     1   109.5600471 388.275200
   1754   1753   1765     1   109.8000471 387.438400
   1754   1753   1755     1   107.5800459 329.699200
   1755   1753   1765     1   109.8000471 387.438400
   1756   1762   1763     1   109.5600471 388.275200
   1756   1762   1764     1   109.5600471 388.275200
   1757   1756   1762     1   109.8000471 387.438400
   1757   1756   1758     1   107.5800459 329.699200
   1758   1756   1762     1   109.8000471 387.438400
   1760   1759   1768     1   109.7800468 425.094400
   1760   1759   1761     1   108.4600466 328.025600
   1761   1759   1768     1   109.7800468 425.094400
   1763   1762   3568     1   109.7800468 425.094400
   1763   1762   1764     1   108.4600466 328.025600
   1764   1762   3568     1   109.7800468 425.094400
   1766   1765   3598     1   109.7800468 425.094400
   1766   1765   1767     1   108.4600466 328.025600
   1767   1765   3598     1   109.7800468 425.094400
   1770   1771   1772     1   108.0100461 406.684800
   1770   1771   1773     1   108.0100461 406.684800
   1770   1774   1775     1   108.0100461 406.684800
   1770   1774   1776     1   108.0100461 406.684800
   1770   1777   1778     1   108.0100461 406.684800
   1770   1777   1779     1   108.0100461 406.684800
   1771   1770   1799     1   110.1100470 384.091200
   1771   1783   1784     1   109.8000471 387.438400
   1771   1783   1785     1   109.8000471 387.438400
   1772   1771   1783     1   110.5600475 386.601600
   1772   1771   1773     1   109.7500473 328.025600
   1773   1771   1783     1   110.5600475 386.601600
   1774   1770   1799     1   110.1100470 384.091200
   1774   1786   1787     1   109.8000471 387.438400
   1774   1786   1788     1   109.8000471 387.438400
   1775   1774   1786     1   110.5600475 386.601600
   1775   1774   1776     1   109.7500473 328.025600
   1776   1774   1786     1   110.5600475 386.601600
   1777   1770   1799     1   110.1100470 384.091200
   1777   1780   1781     1   109.8000471 387.438400
   1777   1780   1782     1   109.8000471 387.438400
   1778   1777   1780     1   110.5600475 386.601600
   1778   1777   1779     1   109.7500473 328.025600
   1779   1777   1780     1   110.5600475 386.601600
   1780   1789   1790     1   109.5600471 388.275200
   1780   1789   1791     1   109.5600471 388.275200
   1781   1780   1789     1   109.8000471 387.438400
   1781   1780   1782     1   107.5800459 329.699200
   1782   1780   1789     1   109.8000471 387.438400
   1783   1795   1796     1   109.5600471 388.275200
   1783   1795   1797     1   109.5600471 388.275200
   1784   1783   1795     1   109.8000471 387.438400
   1784   1783   1785     1   107.5800459 329.699200
   1785   1783   1795     1   109.8000471 387.438400
   1786   1792   1793     1   109.5600471 388.275200
   1786   1792   1794     1   109.5600471 388.275200
   1787   1786   1792     1   109.8000471 387.438400
   1787   1786   1788     1   107.5800459 329.699200
   1788   1786   1792     1   109.8000471 387.438400
   1790   1789   1798     1   109.7800468 425.094400
   1790   1789   1791     1   108.4600466 328.025600
   1791   1789   1798     1   109.7800468 425.094400
   1793   1792   3628     1   109.7800468 425.094400
   1793   1792   1794     1   108.4600466 328.025600
   1794   1792   3628     1   109.7800468 425.094400
   1796   1795   3658     1   109.7800468 425.094400
   1796   1795   1797     1   108.4600466 328.025600
   1797   1795   3658     1   109.7800468 425.094400
   1800   1801   1802     1   108.0100461 406.684800
   1800   1801   1803     1   108.0100461 406.684800
   1800   1804   1805     1   108.0100461 406.684800
   1800   1804   1806     1   108.0100461 406.684800
   1800   1807   1808     1   108.0100461 406.684800
   1800   1807   1809     1   108.0100461 406.684800
   1801   1800   1829     1   110.1100470 384.091200
   1801   1813   1814     1   109.8000471 387.438400
   1801   1813   1815     1   109.8000471 387.438400
   1802   1801   1813     1   110.5600475 386.601600
   1802   1801   1803     1   109.7500473 328.025600
   1803   1801   1813     1   110.5600475 386.601600
   1804   1800   1829     1   110.1100470 384.091200
   1804   1816   1817     1   109.8000471 387.438400
   1804   1816   1818     1   109.8000471 387.438400
   1805   1804   1816     1   110.5600475 386.601600
   1805   1804   1806     1   109.7500473 328.025600
   1806   1804   1816     1   110.5600475 386.601600
   1807   1800   1829     1   110.1100470 384.091200
   1807   1810   1811     1   109.8000471 387.438400
   1807   1810   1812     1   109.8000471 387.438400
   1808   1807   1810     1   110.5600475 386.601600
   1808   1807   1809     1   109.7500473 328.025600
   1809   1807   1810     1   110.5600475 386.601600
   1810   1819   1820     1   109.5600471 388.275200
   1810   1819   1821     1   109.5600471 388.275200
   1811   1810   1819     1   109.8000471 387.438400
   1811   1810   1812     1   107.5800459 329.699200
   1812   1810   1819     1   109.8000471 387.438400
   1813   1825   1826     1   109.5600471 388.275200
   1813   1825   1827     1   109.5600471 388.275200
   1814   1813   1825     1   109.8000471 387.438400
   1814   1813   1815     1   107.5800459 329.699200
   1815   1813   1825     1   109.8000471 387.438400
   1816   1822   1823     1   109.5600471 388.275200
   1816   1822   1824     1   109.5600471 388.275200
   1817   1816   1822     1   109.8000471 387.438400
   1817   1816   1818     1   107.5800459 329.699200
   1818   1816   1822     1   109.8000471 387.438400
   1820   1819   1828     1   109.7800468 425.094400
   1820   1819   1821     1   108.4600466 328.025600
   1821   1819   1828     1   109.7800468 425.094400
   1823   1822   3688     1   109.7800468 425.094400
   1823   1822   1824     1   108.4600466 328.025600
   1824   1822   3688     1   109.7800468 425.094400
   1826   1825   3718     1   109.7800468 425.094400
   1826   1825   1827     1   108.4600466 328.025600
   1827   1825   3718     1   109.7800468 425.094400
   1830   1831   1832     1   108.0100461 406.684800
   1830   1831   1833     1   108.0100461 406.684800
   1830   1834   1835     1   108.0100461 406.684800
   1830   1834   1836     1   108.0100461 406.684800
   1830   1837   1838     1   108.0100461 406.684800
   1830   1837   1839     1   108.0100461 406.684800
   1831   1830   1859     1   110.1100470 384.091200
   1831   1843   1844     1   109.8000471 387.438400
   1831   1843   1845     1   109.8000471 387.438400
   1832   1831   1843     1   110.5600475 386.601600
   1832   1831   1833     1   109.7500473 328.025600
   1833   1831   1843     1   110.5600475 386.601600
   1834   1830   1859     1   110.1100470 384.091200
   1834   1846   1847     1   109.8000471 387.438400
   1834   1846   1848     1   109.8000471 387.438400
   1835   1834   1846     1   110.5600475 386.601600
   1835   1834   1836     1   109.7500473 328.025600
   1836   1834   1846     1   110.5600475 386.601600
   1837   1830   1859     1   110.1100470 384.091200
   1837   1840   1841     1   109.8000471 387.438400
   1837   1840   1842     1   109.8000471 387.438400
   1838   1837   1840     1   110.5600475 386.601600
   1838   1837   1839     1   109.7500473 328.025600
   1839   1837   1840     1   110.5600475 386.601600
   1840   1849   1850     1   109.5600471 388.275200
   1840   1849   1851     1   109.5600471 388.275200
   1841   1840   1849     1   109.8000471 387.438400
   1841   1840   1842     1   107.5800459 329.699200
   1842   1840   1849     1   109.8000471 387.438400
   1843   1855   1856     1   109.5600471 388.275200
   1843   1855   1857     1   109.5600471 388.275200
   1844   1843   1855     1   109.8000471 387.438400
   1844   1843   1845     1   107.5800459 329.699200
   1845   1843   1855     1   109.8000471 387.438400
   1846   1852   1853     1   109.5600471 388.275200
   1846   1852   1854     1   109.5600471 388.275200
   1847   1846   1852     1   109.8000471 387.438400
   1847   1846   1848     1   107.5800459 329.699200
   1848   1846   1852     1   109.8000471 387.438400
   1850   1849   1858     1   109.7800468 425.094400
   1850   1849   1851     1   108.4600466 328.025600
   1851   1849   1858     1   109.7800468 425.094400
   1853   1852   3748     1   109.7800468 425.094400
   1853   1852   1854     1   108.4600466 328.025600
   1854   1852   3748     1   109.7800468 425.094400
   1856   1855   3778     1   109.7800468 425.094400
   1856   1855   1857     1   108.4600466 328.025600
   1857   1855   3778     1   109.7800468 425.094400
   1860   1861   1862     1   108.0100461 406.684800
   1860   1861   1863     1   108.0100461 406.684800
   1860   1864   1865     1   108.0100461 406.684800
   1860   1864   1866     1   108.0100461 406.684800
   1860   1867   1868     1   108.0100461 406.684800
   1860   1867   1869     1   108.0100461 406.684800
   1861   1860   1889     1   110.1100470 384.091200
   1861   1873   1874     1   109.8000471 387.438400
   1861   1873   1875     1   109.8000471 387.438400
   1862   1861   1873     1   110.5600475 386.601600
   1862   1861   1863     1   109.7500473 328.025600
   1863   1861   1873     1   110.5600475 386.601600
   1864   1860   1889     1   110.1100470 384.091200
   1864   1876   1877     1   109.8000471 387.438400
   1864   1876   1878     1   109.8000471 387.438400
   1865   1864   1876     1   110.5600475 386.601600
   1865   1864   1866     1   109.7500473 328.025600
   1866   1864   1876     1   110.5600475 386.601600
   1867   1860   1889     1   110.1100470 384.091200
   1867   1870   1871     1   109.8000471 387.438400
   1867   1870   1872     1   109.8000471 387.438400
   1868   1867   1870     1   110.5600475 386.601600
   1868   1867   1869     1   109.7500473 328.025600
   1869   1867   1870     1   110.5600475 386.601600
   1870   1879   1880     1   109.5600471 388.275200
   1870   1879   1881     1   109.5600471 388.275200
   1871   1870   1879     1   109.8000471 387.438400
   1871   1870   1872     1   107.5800459 329.699200
   1872   1870   1879     1   109.8000471 387.438400
   1873   1885   1886     1   109.5600471 388.275200
   1873   1885   1887     1   109.5600471 388.275200
   1874   1873   1885     1   109.8000471 387.438400
   1874   1873   1875     1   107.5800459 329.699200
   1875   1873   1885     1   109.8000471 387.438400
   1876   1882   1883     1   109.5600471 388.275200
   1876   1882   1884     1   109.5600471 388.275200
   1877   1876   1882     1   109.8000471 387.438400
   1877   1876   1878     1   107.5800459 329.699200
   1878   1876   1882     1   109.8000471 387.438400
   1880   1879   1888     1   109.7800468 425.094400
   1880   1879   1881     1   108.4600466 328.025600
   1881   1879   1888     1   109.7800468 425.094400
   1883   1882   3808     1   109.7800468 425.094400
   1883   1882   1884     1   108.4600466 328.025600
   1884   1882   3808     1   109.7800468 425.094400
   1886   1885   3838     1   109.7800468 425.094400
   1886   1885   1887     1   108.4600466 328.025600
   1887   1885   3838     1   109.7800468 425.094400
   1890   1891   1892     1   108.0100461 406.684800
   1890   1891   1893     1   108.0100461 406.684800
   1890   1894   1895     1   108.0100461 406.684800
   1890   1894   1896     1   108.0100461 406.684800
   1890   1897   1898     1   108.0100461 406.684800
   1890   1897   1899     1   108.0100461 406.684800
   1891   1890   1919     1   110.1100470 384.091200
   1891   1903   1904     1   109.8000471 387.438400
   1891   1903   1905     1   109.8000471 387.438400
   1892   1891   1903     1   110.5600475 386.601600
   1892   1891   1893     1   109.7500473 328.025600
   1893   1891   1903     1   110.5600475 386.601600
   1894   1890   1919     1   110.1100470 384.091200
   1894   1906   1907     1   109.8000471 387.438400
   1894   1906   1908     1   109.8000471 387.438400
   1895   1894   1906     1   110.5600475 386.601600
   1895   1894   1896     1   109.7500473 328.025600
   1896   1894   1906     1   110.5600475 386.601600
   1897   1890   1919     1   110.1100470 384.091200
   1897   1900   1901     1   109.8000471 387.438400
   1897   1900   1902     1   109.8000471 387.438400
   1898   1897   1900     1   110.5600475 386.601600
   1898   1897   1899     1   109.7500473 328.025600
   1899   1897   1900     1   110.5600475 386.601600
   1900   1909   1910     1   109.5600471 388.275200
   1900   1909   1911     1   109.5600471 388.275200
   1901   1900   1909     1   109.8000471 387.438400
   1901   1900   1902     1   107.5800459 329.699200
   1902   1900   1909     1   109.8000471 387.438400
   1903   1915   1916     1   109.5600471 388.275200
   1903   1915   1917     1   109.5600471 388.275200
   1904   1903   1915     1   109.8000471 387.438400
   1904   1903   1905     1   107.5800459 329.699200
   1905   1903   1915     1   109.8000471 387.438400
   1906   1912   1913     1   109.5600471 388.275200
   1906   1912   1914     1   109.5600471 388.275200
   1907   1906   1912     1   109.8000471 387.438400
   1907   1906   1908     1   107.5800459 329.699200
   1908   1906   1912     1   109.8000471 387.438400
   1910   1909   1918     1   109.7800468 425.094400
   1910   1909   1911     1   108.4600466 328.025600
   1911   1909   1918     1   109.7800468 425.094400
   1913   1912   3868     1   109.7800468 425.094400
   1913   1912   1914     1   108.4600466 328.025600
   1914   1912   3868     1   109.7800468 425.094400
   1916   1915   3898     1   109.7800468 425.094400
   1916   1915   1917     1   108.4600466 328.025600
   1917   1915   3898     1   109.7800468 425.094400
   1920   1921   1922     1   108.0100461 406.684800
   1920   1921   1923     1   108.0100461 406.684800
   1920   1924   1925     1   108.0100461 406.684800
   1920   1924   1926     1   108.0100461 406.684800
   1920   1927   1928     1   108.0100461 406.684800
   1920   1927   1929     1   108.0100461 406.684800
   1921   1920   1949     1   110.1100470 384.091200
   1921   1933   1934     1   109.8000471 387.438400
   1921   1933   1935     1   109.8000471 387.438400
   1922   1921   1933     1   110.5600475 386.601600
   1922   1921   1923     1   109.7500473 328.025600
   1923   1921   1933     1   110.5600475 386.601600
   1924   1920   1949     1   110.1100470 384.091200
   1924   1936   1937     1   109.8000471 387.438400
   1924   1936   1938     1   109.8000471 387.438400
   1925   1924   1936     1   110.5600475 386.601600
   1925   1924   1926     1   109.7500473 328.025600
   1926   1924   1936     1   110.5600475 386.601600
   1927   1920   1949     1   110.1100470 384.091200
   1927   1930   1931     1   109.8000471 387.438400
   1927   1930   1932     1   109.8000471 387.438400
   1928   1927   1930     1   110.5600475 386.601600
   1928   1927   1929     1   109.7500473 328.025600
   1929   1927   1930     1   110.5600475 386.601600
   1930   1939   1940     1   109.5600471 388.275200
   1930   1939   1941     1   109.5600471 388.275200
   1931   1930   1939     1   109.8000471 387.438400
   1931   1930   1932     1   107.5800459 329.699200
   1932   1930   1939     1   109.8000471 387.438400
   1933   1945   1946     1   109.5600471 388.275200
   1933   1945   1947     1   109.5600471 388.275200
   1934   1933   1945     1   109.8000471 387.438400
   1934   1933   1935     1   107.5800459 329.699200
   1935   1933   1945     1   109.8000471 387.438400
   1936   1942   1943     1   109.5600471 388.275200
   1936   1942   1944     1   109.5600471 388.275200
   1937   1936   1942     1   109.8000471 387.438400
   1937   1936   1938     1   107.5800459 329.699200
   1938   1936   1942     1   109.8000471 387.438400
   1940   1939   1948     1   109.7800468 425.094400
   1940   1939   1941     1   108.4600466 328.025600
   1941   1939   1948     1   109.7800468 425.094400
   1943   1942   3928     1   109.7800468 425.094400
   1943   1942   1944     1   108.4600466 328.025600
   1944   1942   3928     1   109.7800468 425.094400
   1946   1945   3958     1   109.7800468 425.094400
   1946   1945   1947     1   108.4600466 328.025600
   1947   1945   3958     1   109.7800468 425.094400
   1950   1951   1952     1   108.0100461 406.684800
   1950   1951   1953     1   108.0100461 406.684800
   1950   1954   1955     1   108.0100461 406.684800
   1950   1954   1956     1   108.0100461 406.684800
   1950   1957   1958     1   108.0100461 406.684800
   1950   1957   1959     1   108.0100461 406.684800
   1951   1950   1979     1   110.1100470 384.091200
   1951   1963   1964     1   109.8000471 387.438400
   1951   1963   1965     1   109.8000471 387.438400
   1952   1951   1963     1   110.5600475 386.601600
   1952   1951   1953     1   109.7500473 328.025600
   1953   1951   1963     1   110.5600475 386.601600
   1954   1950   1979     1   110.1100470 384.091200
   1954   1966   1967     1   109.8000471 387.438400
   1954   1966   1968     1   109.8000471 387.438400
   1955   1954   1966     1   110.5600475 386.601600
   1955   1954   1956     1   109.7500473 328.025600
   1956   1954   1966     1   110.5600475 386.601600
   1957   1950   1979     1   110.1100470 384.091200
   1957   1960   1961     1   109.8000471 387.438400
   1957   1960   1962     1   109.8000471 387.438400
   1958   1957   1960     1   110.5600475 386.601600
   1958   1957   1959     1   109.7500473 328.025600
   1959   1957   1960     1   110.5600475 386.601600
   1960   1969   1970     1   109.5600471 388.275200
   1960   1969   1971     1   109.5600471 388.275200
   1961   1960   1969     1   109.8000471 387.438400
   1961   1960   1962     1   107.5800459 329.699200
   1962   1960   1969     1   109.8000471 387.438400
   1963   1975   1976     1   109.5600471 388.275200
   1963   1975   1977     1   109.5600471 388.275200
   1964   1963   1975     1   109.8000471 387.438400
   1964   1963   1965     1   107.5800459 329.699200
   1965   1963   1975     1   109.8000471 387.438400
   1966   1972   1973     1   109.5600471 388.275200
   1966   1972   1974     1   109.5600471 388.275200
   1967   1966   1972     1   109.8000471 387.438400
   1967   1966   1968     1   107.5800459 329.699200
   1968   1966   1972     1   109.8000471 387.438400
   1970   1969   1978     1   109.7800468 425.094400
   1970   1969   1971     1   108.4600466 328.025600
   1971   1969   1978     1   109.7800468 425.094400
   1973   1972   3988     1   109.7800468 425.094400
   1973   1972   1974     1   108.4600466 328.025600
   1974   1972   3988     1   109.7800468 425.094400
   1976   1975   4018     1   109.7800468 425.094400
   1976   1975   1977     1   108.4600466 328.025600
   1977   1975   4018     1   109.7800468 425.094400
   1980   1981   1982     1   108.0100461 406.684800
   1980   1981   1983     1   108.0100461 406.684800
   1980   1984   1985     1   108.0100461 406.684800
   1980   1984   1986     1   108.0100461 406.684800
   1980   1987   1988     1   108.0100461 406.684800
   1980   1987   1989     1   108.0100461 406.684800
   1981   1980   2009     1   110.1100470 384.091200
   1981   1993   1994     1   109.8000471 387.438400
   1981   1993   1995     1   109.8000471 387.438400
   1982   1981   1993     1   110.5600475 386.601600
   1982   1981   1983     1   109.7500473 328.025600
   1983   1981   1993     1   110.5600475 386.601600
   1984   1980   2009     1   110.1100470 384.091200
   1984   1996   1997     1   109.8000471 387.438400
   1984   1996   1998     1   109.8000471 387.438400
   1985   1984   1996     1   110.5600475 386.601600
   1985   1984   1986     1   109.7500473 328.025600
   1986   1984   1996     1   110.5600475 386.601600
   1987   1980   2009     1   110.1100470 384.091200
   1987   1990   1991     1   109.8000471 387.438400
   1987   1990   1992     1   109.8000471 387.438400
   1988   1987   1990     1   110.5600475 386.601600
   1988   1987   1989     1   109.7500473 328.025600
   1989   1987   1990     1   110.5600475 386.601600
   1990   1999   2000     1   109.5600471 388.275200
   1990   1999   2001     1   109.5600471 388.275200
   1991   1990   1999     1   109.8000471 387.438400
   1991   1990   1992     1   107.5800459 329.699200
   1992   1990   1999     1   109.8000471 387.438400
   1993   2005   2006     1   109.5600471 388.275200
   1993   2005   2007     1   109.5600471 388.275200
   1994   1993   2005     1   109.8000471 387.438400
   1994   1993   1995     1   107.5800459 329.699200
   1995   1993   2005     1   109.8000471 387.438400
   1996   2002   2003     1   109.5600471 388.275200
   1996   2002   2004     1   109.5600471 388.275200
   1997   1996   2002     1   109.8000471 387.438400
   1997   1996   1998     1   107.5800459 329.699200
   1998   1996   2002     1   109.8000471 387.438400
   2000   1999   2008     1   109.7800468 425.094400
   2000   1999   2001     1   108.4600466 328.025600
   2001   1999   2008     1   109.7800468 425.094400
   2003   2002   4048     1   109.7800468 425.094400
   2003   2002   2004     1   108.4600466 328.025600
   2004   2002   4048     1   109.7800468 425.094400
   2006   2005   4078     1   109.7800468 425.094400
   2006   2005   2007     1   108.4600466 328.025600
   2007   2005   4078     1   109.7800468 425.094400
   2010   2011   2012     1   108.0100461 406.684800
   2010   2011   2013     1   108.0100461 406.684800
   2010   2014   2015     1   108.0100461 406.684800
   2010   2014   2016     1   108.0100461 406.684800
   2010   2017   2018     1   108.0100461 406.684800
   2010   2017   2019     1   108.0100461 406.684800
   2011   2010   2039     1   110.1100470 384.091200
   2011   2023   2024     1   109.8000471 387.438400
   2011   2023   2025     1   109.8000471 387.438400
   2012   2011   2023     1   110.5600475 386.601600
   2012   2011   2013     1   109.7500473 328.025600
   2013   2011   2023     1   110.5600475 386.601600
   2014   2010   2039     1   110.1100470 384.091200
   2014   2026   2027     1   109.8000471 387.438400
   2014   2026   2028     1   109.8000471 387.438400
   2015   2014   2026     1   110.5600475 386.601600
   2015   2014   2016     1   109.7500473 328.025600
   2016   2014   2026     1   110.5600475 386.601600
   2017   2010   2039     1   110.1100470 384.091200
   2017   2020   2021     1   109.8000471 387.438400
   2017   2020   2022     1   109.8000471 387.438400
   2018   2017   2020     1   110.5600475 386.601600
   2018   2017   2019     1   109.7500473 328.025600
   2019   2017   2020     1   110.5600475 386.601600
   2020   2029   2030     1   109.5600471 388.275200
   2020   2029   2031     1   109.5600471 388.275200
   2021   2020   2029     1   109.8000471 387.438400
   2021   2020   2022     1   107.5800459 329.699200
   2022   2020   2029     1   109.8000471 387.438400
   2023   2035   2036     1   109.5600471 388.275200
   2023   2035   2037     1   109.5600471 388.275200
   2024   2023   2035     1   109.8000471 387.438400
   2024   2023   2025     1   107.5800459 329.699200
   2025   2023   2035     1   109.8000471 387.438400
   2026   2032   2033     1   109.5600471 388.275200
   2026   2032   2034     1   109.5600471 388.275200
   2027   2026   2032     1   109.8000471 387.438400
   2027   2026   2028     1   107.5800459 329.699200
   2028   2026   2032     1   109.8000471 387.438400
   2030   2029   2038     1   109.7800468 425.094400
   2030   2029   2031     1   108.4600466 328.025600
   2031   2029   2038     1   109.7800468 425.094400
   2033   2032   4108     1   109.7800468 425.094400
   2033   2032   2034     1   108.4600466 328.025600
   2034   2032   4108     1   109.7800468 425.094400
   2036   2035   4138     1   109.7800468 425.094400
   2036   2035   2037     1   108.4600466 328.025600
   2037   2035   4138     1   109.7800468 425.094400
   2040   2041   2042     1   108.0100461 406.684800
   2040   2041   2043     1   108.0100461 406.684800
   2040   2044   2045     1   108.0100461 406.684800
   2040   2044   2046     1   108.0100461 406.684800
   2040   2047   2048     1   108.0100461 406.684800
   2040   2047   2049     1   108.0100461 406.684800
   2041   2040   2069     1   110.1100470 384.091200
   2041   2053   2054     1   109.8000471 387.438400
   2041   2053   2055     1   109.8000471 387.438400
   2042   2041   2053     1   110.5600475 386.601600
   2042   2041   2043     1   109.7500473 328.025600
   2043   2041   2053     1   110.5600475 386.601600
   2044   2040   2069     1   110.1100470 384.091200
   2044   2056   2057     1   109.8000471 387.438400
   2044   2056   2058     1   109.8000471 387.438400
   2045   2044   2056     1   110.5600475 386.601600
   2045   2044   2046     1   109.7500473 328.025600
   2046   2044   2056     1   110.5600475 386.601600
   2047   2040   2069     1   110.1100470 384.091200
   2047   2050   2051     1   109.8000471 387.438400
   2047   2050   2052     1   109.8000471 387.438400
   2048   2047   2050     1   110.5600475 386.601600
   2048   2047   2049     1   109.7500473 328.025600
   2049   2047   2050     1   110.5600475 386.601600
   2050   2059   2060     1   109.5600471 388.275200
   2050   2059   2061     1   109.5600471 388.275200
   2051   2050   2059     1   109.8000471 387.438400
   2051   2050   2052     1   107.5800459 329.699200
   2052   2050   2059     1   109.8000471 387.438400
   2053   2065   2066     1   109.5600471 388.275200
   2053   2065   2067     1   109.5600471 388.275200
   2054   2053   2065     1   109.8000471 387.438400
   2054   2053   2055     1   107.5800459 329.699200
   2055   2053   2065     1   109.8000471 387.438400
   2056   2062   2063     1   109.5600471 388.275200
   2056   2062   2064     1   109.5600471 388.275200
   2057   2056   2062     1   109.8000471 387.438400
   2057   2056   2058     1   107.5800459 329.699200
   2058   2056   2062     1   109.8000471 387.438400
   2060   2059   2068     1   109.7800468 425.094400
   2060   2059   2061     1   108.4600466 328.025600
   2061   2059   2068     1   109.7800468 425.094400
   2063   2062   4168     1   109.7800468 425.094400
   2063   2062   2064     1   108.4600466 328.025600
   2064   2062   4168     1   109.7800468 425.094400
   2066   2065   4198     1   109.7800468 425.094400
   2066   2065   2067     1   108.4600466 328.025600
   2067   2065   4198     1   109.7800468 425.094400
   2070   2071   2072     1   108.0100461 406.684800
   2070   2071   2073     1   108.0100461 406.684800
   2070   2074   2075     1   108.0100461 406.684800
   2070   2074   2076     1   108.0100461 406.684800
   2070   2077   2078     1   108.0100461 406.684800
   2070   2077   2079     1   108.0100461 406.684800
   2071   2070   2099     1   110.1100470 384.091200
   2071   2083   2084     1   109.8000471 387.438400
   2071   2083   2085     1   109.8000471 387.438400
   2072   2071   2083     1   110.5600475 386.601600
   2072   2071   2073     1   109.7500473 328.025600
   2073   2071   2083     1   110.5600475 386.601600
   2074   2070   2099     1   110.1100470 384.091200
   2074   2086   2087     1   109.8000471 387.438400
   2074   2086   2088     1   109.8000471 387.438400
   2075   2074   2086     1   110.5600475 386.601600
   2075   2074   2076     1   109.7500473 328.025600
   2076   2074   2086     1   110.5600475 386.601600
   2077   2070   2099     1   110.1100470 384.091200
   2077   2080   2081     1   109.8000471 387.438400
   2077   2080   2082     1   109.8000471 387.438400
   2078   2077   2080     1   110.5600475 386.601600
   2078   2077   2079     1   109.7500473 328.025600
   2079   2077   2080     1   110.5600475 386.601600
   2080   2089   2090     1   109.5600471 388.275200
   2080   2089   2091     1   109.5600471 388.275200
   2081   2080   2089     1   109.8000471 387.438400
   2081   2080   2082     1   107.5800459 329.699200
   2082   2080   2089     1   109.8000471 387.438400
   2083   2095   2096     1   109.5600471 388.275200
   2083   2095   2097     1   109.5600471 388.275200
   2084   2083   2095     1   109.8000471 387.438400
   2084   2083   2085     1   107.5800459 329.699200
   2085   2083   2095     1   109.8000471 387.438400
   2086   2092   2093     1   109.5600471 388.275200
   2086   2092   2094     1   109.5600471 388.275200
   2087   2086   2092     1   109.8000471 387.438400
   2087   2086   2088     1   107.5800459 329.699200
   2088   2086   2092     1   109.8000471 387.438400
   2090   2089   2098     1   109.7800468 425.094400
   2090   2089   2091     1   108.4600466 328.025600
   2091   2089   2098     1   109.7800468 425.094400
   2093   2092   4228     1   109.7800468 425.094400
   2093   2092   2094     1   108.4600466 328.025600
   2094   2092   4228     1   109.7800468 425.094400
   2096   2095   4258     1   109.7800468 425.094400
   2096   2095   2097     1   108.4600466 328.025600
   2097   2095   4258     1   109.7800468 425.094400
   2100   2101   2102     1   108.0100461 406.684800
   2100   2101   2103     1   108.0100461 406.684800
   2100   2104   2105     1   108.0100461 406.684800
   2100   2104   2106     1   108.0100461 406.684800
   2100   2107   2108     1   108.0100461 406.684800
   2100   2107   2109     1   108.0100461 406.684800
   2101   2100   2129     1   110.1100470 384.091200
   2101   2113   2114     1   109.8000471 387.438400
   2101   2113   2115     1   109.8000471 387.438400
   2102   2101   2113     1   110.5600475 386.601600
   2102   2101   2103     1   109.7500473 328.025600
   2103   2101   2113     1   110.5600475 386.601600
   2104   2100   2129     1   110.1100470 384.091200
   2104   2116   2117     1   109.8000471 387.438400
   2104   2116   2118     1   109.8000471 387.438400
   2105   2104   2116     1   110.5600475 386.601600
   2105   2104   2106     1   109.7500473 328.025600
   2106   2104   2116     1   110.5600475 386.601600
   2107   2100   2129     1   110.1100470 384.091200
   2107   2110   2111     1   109.8000471 387.438400
   2107   2110   2112     1   109.8000471 387.438400
   2108   2107   2110     1   110.5600475 386.601600
   2108   2107   2109     1   109.7500473 328.025600
   2109   2107   2110     1   110.5600475 386.601600
   2110   2119   2120     1   109.5600471 388.275200
   2110   2119   2121     1   109.5600471 388.275200
   2111   2110   2119     1   109.8000471 387.438400
   2111   2110   2112     1   107.5800459 329.699200
   2112   2110   2119     1   109.8000471 387.438400
   2113   2125   2126     1   109.5600471 388.275200
   2113   2125   2127     1   109.5600471 388.275200
   2114   2113   2125     1   109.8000471 387.438400
   2114   2113   2115     1   107.5800459 329.699200
   2115   2113   2125     1   109.8000471 387.438400
   2116   2122   2123     1   109.5600471 388.275200
   2116   2122   2124     1   109.5600471 388.275200
   2117   2116   2122     1   109.8000471 387.438400
   2117   2116   2118     1   107.5800459 329.699200
   2118   2116   2122     1   109.8000471 387.438400
   2120   2119   2128     1   109.7800468 425.094400
   2120   2119   2121     1   108.4600466 328.025600
   2121   2119   2128     1   109.7800468 425.094400
   2123   2122   4288     1   109.7800468 425.094400
   2123   2122   2124     1   108.4600466 328.025600
   2124   2122   4288     1   109.7800468 425.094400
   2126   2125   4318     1   109.7800468 425.094400
   2126   2125   2127     1   108.4600466 328.025600
   2127   2125   4318     1   109.7800468 425.094400
   2130   2131   2132     1   108.0100461 406.684800
   2130   2131   2133     1   108.0100461 406.684800
   2130   2134   2135     1   108.0100461 406.684800
   2130   2134   2136     1   108.0100461 406.684800
   2130   2137   2138     1   108.0100461 406.684800
   2130   2137   2139     1   108.0100461 406.684800
   2131   2130   2159     1   110.1100470 384.091200
   2131   2143   2144     1   109.8000471 387.438400
   2131   2143   2145     1   109.8000471 387.438400
   2132   2131   2143     1   110.5600475 386.601600
   2132   2131   2133     1   109.7500473 328.025600
   2133   2131   2143     1   110.5600475 386.601600
   2134   2130   2159     1   110.1100470 384.091200
   2134   2146   2147     1   109.8000471 387.438400
   2134   2146   2148     1   109.8000471 387.438400
   2135   2134   2146     1   110.5600475 386.601600
   2135   2134   2136     1   109.7500473 328.025600
   2136   2134   2146     1   110.5600475 386.601600
   2137   2130   2159     1   110.1100470 384.091200
   2137   2140   2141     1   109.8000471 387.438400
   2137   2140   2142     1   109.8000471 387.438400
   2138   2137   2140     1   110.5600475 386.601600
   2138   2137   2139     1   109.7500473 328.025600
   2139   2137   2140     1   110.5600475 386.601600
   2140   2149   2150     1   109.5600471 388.275200
   2140   2149   2151     1   109.5600471 388.275200
   2141   2140   2149     1   109.8000471 387.438400
   2141   2140   2142     1   107.5800459 329.699200
   2142   2140   2149     1   109.8000471 387.438400
   2143   2155   2156     1   109.5600471 388.275200
   2143   2155   2157     1   109.5600471 388.275200
   2144   2143   2155     1   109.8000471 387.438400
   2144   2143   2145     1   107.5800459 329.699200
   2145   2143   2155     1   109.8000471 387.438400
   2146   2152   2153     1   109.5600471 388.275200
   2146   2152   2154     1   109.5600471 388.275200
   2147   2146   2152     1   109.8000471 387.438400
   2147   2146   2148     1   107.5800459 329.699200
   2148   2146   2152     1   109.8000471 387.438400
   2150   2149   2158     1   109.7800468 425.094400
   2150   2149   2151     1   108.4600466 328.025600
   2151   2149   2158     1   109.7800468 425.094400
   2153   2152   4348     1   109.7800468 425.094400
   2153   2152   2154     1   108.4600466 328.025600
   2154   2152   4348     1   109.7800468 425.094400
   2156   2155   4378     1   109.7800468 425.094400
   2156   2155   2157     1   108.4600466 328.025600
   2157   2155   4378     1   109.7800468 425.094400
   2160   2161   2162     1   108.0100461 406.684800
   2160   2161   2163     1   108.0100461 406.684800
   2160   2164   2165     1   108.0100461 406.684800
   2160   2164   2166     1   108.0100461 406.684800
   2160   2167   2168     1   108.0100461 406.684800
   2160   2167   2169     1   108.0100461 406.684800
   2161   2160   2189     1   110.1100470 384.091200
   2161   2173   2174     1   109.8000471 387.438400
   2161   2173   2175     1   109.8000471 387.438400
   2162   2161   2173     1   110.5600475 386.601600
   2162   2161   2163     1   109.7500473 328.025600
   2163   2161   2173     1   110.5600475 386.601600
   2164   2160   2189     1   110.1100470 384.091200
   2164   2176   2177     1   109.8000471 387.438400
   2164   2176   2178     1   109.8000471 387.438400
   2165   2164   2176     1   110.5600475 386.601600
   2165   2164   2166     1   109.7500473 328.025600
   2166   2164   2176     1   110.5600475 386.601600
   2167   2160   2189     1   110.1100470 384.091200
   2167   2170   2171     1   109.8000471 387.438400
   2167   2170   2172     1   109.8000471 387.438400
   2168   2167   2170     1   110.5600475 386.601600
   2168   2167   2169     1   109.7500473 328.025600
   2169   2167   2170     1   110.5600475 386.601600
   2170   2179   2180     1   109.5600471 388.275200
   2170   2179   2181     1   109.5600471 388.275200
   2171   2170   2179     1   109.8000471 387.438400
   2171   2170   2172     1   107.5800459 329.699200
   2172   2170   2179     1   109.8000471 387.438400
   2173   2185   2186     1   109.5600471 388.275200
   2173   2185   2187     1   109.5600471 388.275200
   2174   2173   2185     1   109.8000471 387.438400
   2174   2173   2175     1   107.5800459 329.699200
   2175   2173   2185     1   109.8000471 387.438400
   2176   2182   2183     1   109.5600471 388.275200
   2176   2182   2184     1   109.5600471 388.275200
   2177   2176   2182     1   109.8000471 387.438400
   2177   2176   2178     1   107.5800459 329.699200
   2178   2176   2182     1   109.8000471 387.438400
   2180   2179   2188     1   109.7800468 425.094400
   2180   2179   2181     1   108.4600466 328.025600
   2181   2179   2188     1   109.7800468 425.094400
   2183   2182   4408     1   109.7800468 425.094400
   2183   2182   2184     1   108.4600466 328.025600
   2184   2182   4408     1   109.7800468 425.094400
   2186   2185   4438     1   109.7800468 425.094400
   2186   2185   2187     1   108.4600466 328.025600
   2187   2185   4438     1   109.7800468 425.094400
   2190   2191   2192     1   108.0100461 406.684800
   2190   2191   2193     1   108.0100461 406.684800
   2190   2194   2195     1   108.0100461 406.684800
   2190   2194   2196     1   108.0100461 406.684800
   2190   2197   2198     1   108.0100461 406.684800
   2190   2197   2199     1   108.0100461 406.684800
   2191   2190   2219     1   110.1100470 384.091200
   2191   2203   2204     1   109.8000471 387.438400
   2191   2203   2205     1   109.8000471 387.438400
   2192   2191   2203     1   110.5600475 386.601600
   2192   2191   2193     1   109.7500473 328.025600
   2193   2191   2203     1   110.5600475 386.601600
   2194   2190   2219     1   110.1100470 384.091200
   2194   2206   2207     1   109.8000471 387.438400
   2194   2206   2208     1   109.8000471 387.438400
   2195   2194   2206     1   110.5600475 386.601600
   2195   2194   2196     1   109.7500473 328.025600
   2196   2194   2206     1   110.5600475 386.601600
   2197   2190   2219     1   110.1100470 384.091200
   2197   2200   2201     1   109.8000471 387.438400
   2197   2200   2202     1   109.8000471 387.438400
   2198   2197   2200     1   110.5600475 386.601600
   2198   2197   2199     1   109.7500473 328.025600
   2199   2197   2200     1   110.5600475 386.601600
   2200   2209   2210     1   109.5600471 388.275200
   2200   2209   2211     1   109.5600471 388.275200
   2201   2200   2209     1   109.8000471 387.438400
   2201   2200   2202     1   107.5800459 329.699200
   2202   2200   2209     1   109.8000471 387.438400
   2203   2215   2216     1   109.5600471 388.275200
   2203   2215   2217     1   109.5600471 388.275200
   2204   2203   2215     1   109.8000471 387.438400
   2204   2203   2205     1   107.5800459 329.699200
   2205   2203   2215     1   109.8000471 387.438400
   2206   2212   2213     1   109.5600471 388.275200
   2206   2212   2214     1   109.5600471 388.275200
   2207   2206   2212     1   109.8000471 387.438400
   2207   2206   2208     1   107.5800459 329.699200
   2208   2206   2212     1   109.8000471 387.438400
   2210   2209   2218     1   109.7800468 425.094400
   2210   2209   2211     1   108.4600466 328.025600
   2211   2209   2218     1   109.7800468 425.094400
   2213   2212   4468     1   109.7800468 425.094400
   2213   2212   2214     1   108.4600466 328.025600
   2214   2212   4468     1   109.7800468 425.094400
   2216   2215   4498     1   109.7800468 425.094400
   2216   2215   2217     1   108.4600466 328.025600
   2217   2215   4498     1   109.7800468 425.094400
   2220   2221   2222     1   108.0100461 406.684800
   2220   2221   2223     1   108.0100461 406.684800
   2220   2224   2225     1   108.0100461 406.684800
   2220   2224   2226     1   108.0100461 406.684800
   2220   2227   2228     1   108.0100461 406.684800
   2220   2227   2229     1   108.0100461 406.684800
   2221   2220   2249     1   110.1100470 384.091200
   2221   2233   2234     1   109.8000471 387.438400
   2221   2233   2235     1   109.8000471 387.438400
   2222   2221   2233     1   110.5600475 386.601600
   2222   2221   2223     1   109.7500473 328.025600
   2223   2221   2233     1   110.5600475 386.601600
   2224   2220   2249     1   110.1100470 384.091200
   2224   2236   2237     1   109.8000471 387.438400
   2224   2236   2238     1   109.8000471 387.438400
   2225   2224   2236     1   110.5600475 386.601600
   2225   2224   2226     1   109.7500473 328.025600
   2226   2224   2236     1   110.5600475 386.601600
   2227   2220   2249     1   110.1100470 384.091200
   2227   2230   2231     1   109.8000471 387.438400
   2227   2230   2232     1   109.8000471 387.438400
   2228   2227   2230     1   110.5600475 386.601600
   2228   2227   2229     1   109.7500473 328.025600
   2229   2227   2230     1   110.5600475 386.601600
   2230   2239   2240     1   109.5600471 388.275200
   2230   2239   2241     1   109.5600471 388.275200
   2231   2230   2239     1   109.8000471 387.438400
   2231   2230   2232     1   107.5800459 329.699200
   2232   2230   2239     1   109.8000471 387.438400
   2233   2245   2246     1   109.5600471 388.275200
   2233   2245   2247     1   109.5600471 388.275200
   2234   2233   2245     1   109.8000471 387.438400
   2234   2233   2235     1   107.5800459 329.699200
   2235   2233   2245     1   109.8000471 387.438400
   2236   2242   2243     1   109.5600471 388.275200
   2236   2242   2244     1   109.5600471 388.275200
   2237   2236   2242     1   109.8000471 387.438400
   2237   2236   2238     1   107.5800459 329.699200
   2238   2236   2242     1   109.8000471 387.438400
   2240   2239   2248     1   109.7800468 425.094400
   2240   2239   2241     1   108.4600466 328.025600
   2241   2239   2248     1   109.7800468 425.094400
   2243   2242   4528     1   109.7800468 425.094400
   2243   2242   2244     1   108.4600466 328.025600
   2244   2242   4528     1   109.7800468 425.094400
   2246   2245   4558     1   109.7800468 425.094400
   2246   2245   2247     1   108.4600466 328.025600
   2247   2245   4558     1   109.7800468 425.094400
   2250   2251   2252     1   108.0100461 406.684800
   2250   2251   2253     1   108.0100461 406.684800
   2250   2254   2255     1   108.0100461 406.684800
   2250   2254   2256     1   108.0100461 406.684800
   2250   2257   2258     1   108.0100461 406.684800
   2250   2257   2259     1   108.0100461 406.684800
   2251   2250   2279     1   110.1100470 384.091200
   2251   2263   2264     1   109.8000471 387.438400
   2251   2263   2265     1   109.8000471 387.438400
   2252   2251   2263     1   110.5600475 386.601600
   2252   2251   2253     1   109.7500473 328.025600
   2253   2251   2263     1   110.5600475 386.601600
   2254   2250   2279     1   110.1100470 384.091200
   2254   2266   2267     1   109.8000471 387.438400
   2254   2266   2268     1   109.8000471 387.438400
   2255   2254   2266     1   110.5600475 386.601600
   2255   2254   2256     1   109.7500473 328.025600
   2256   2254   2266     1   110.5600475 386.601600
   2257   2250   2279     1   110.1100470 384.091200
   2257   2260   2261     1   109.8000471 387.438400
   2257   2260   2262     1   109.8000471 387.438400
   2258   2257   2260     1   110.5600475 386.601600
   2258   2257   2259     1   109.7500473 328.025600
   2259   2257   2260     1   110.5600475 386.601600
   2260   2269   2270     1   109.5600471 388.275200
   2260   2269   2271     1   109.5600471 388.275200
   2261   2260   2269     1   109.8000471 387.438400
   2261   2260   2262     1   107.5800459 329.699200
   2262   2260   2269     1   109.8000471 387.438400
   2263   2275   2276     1   109.5600471 388.275200
   2263   2275   2277     1   109.5600471 388.275200
   2264   2263   2275     1   109.8000471 387.438400
   2264   2263   2265     1   107.5800459 329.699200
   2265   2263   2275     1   109.8000471 387.438400
   2266   2272   2273     1   109.5600471 388.275200
   2266   2272   2274     1   109.5600471 388.275200
   2267   2266   2272     1   109.8000471 387.438400
   2267   2266   2268     1   107.5800459 329.699200
   2268   2266   2272     1   109.8000471 387.438400
   2270   2269   2278     1   109.7800468 425.094400
   2270   2269   2271     1   108.4600466 328.025600
   2271   2269   2278     1   109.7800468 425.094400
   2273   2272   4588     1   109.7800468 425.094400
   2273   2272   2274     1   108.4600466 328.025600
   2274   2272   4588     1   109.7800468 425.094400
   2276   2275   4618     1   109.7800468 425.094400
   2276   2275   2277     1   108.4600466 328.025600
   2277   2275   4618     1   109.7800468 425.094400
   2280   2281   2282     1   108.0100461 406.684800
   2280   2281   2283     1   108.0100461 406.684800
   2280   2284   2285     1   108.0100461 406.684800
   2280   2284   2286     1   108.0100461 406.684800
   2280   2287   2288     1   108.0100461 406.684800
   2280   2287   2289     1   108.0100461 406.684800
   2281   2280   2309     1   110.1100470 384.091200
   2281   2293   2294     1   109.8000471 387.438400
   2281   2293   2295     1   109.8000471 387.438400
   2282   2281   2293     1   110.5600475 386.601600
   2282   2281   2283     1   109.7500473 328.025600
   2283   2281   2293     1   110.5600475 386.601600
   2284   2280   2309     1   110.1100470 384.091200
   2284   2296   2297     1   109.8000471 387.438400
   2284   2296   2298     1   109.8000471 387.438400
   2285   2284   2296     1   110.5600475 386.601600
   2285   2284   2286     1   109.7500473 328.025600
   2286   2284   2296     1   110.5600475 386.601600
   2287   2280   2309     1   110.1100470 384.091200
   2287   2290   2291     1   109.8000471 387.438400
   2287   2290   2292     1   109.8000471 387.438400
   2288   2287   2290     1   110.5600475 386.601600
   2288   2287   2289     1   109.7500473 328.025600
   2289   2287   2290     1   110.5600475 386.601600
   2290   2299   2300     1   109.5600471 388.275200
   2290   2299   2301     1   109.5600471 388.275200
   2291   2290   2299     1   109.8000471 387.438400
   2291   2290   2292     1   107.5800459 329.699200
   2292   2290   2299     1   109.8000471 387.438400
   2293   2305   2306     1   109.5600471 388.275200
   2293   2305   2307     1   109.5600471 388.275200
   2294   2293   2305     1   109.8000471 387.438400
   2294   2293   2295     1   107.5800459 329.699200
   2295   2293   2305     1   109.8000471 387.438400
   2296   2302   2303     1   109.5600471 388.275200
   2296   2302   2304     1   109.5600471 388.275200
   2297   2296   2302     1   109.8000471 387.438400
   2297   2296   2298     1   107.5800459 329.699200
   2298   2296   2302     1   109.8000471 387.438400
   2300   2299   2308     1   109.7800468 425.094400
   2300   2299   2301     1   108.4600466 328.025600
   2301   2299   2308     1   109.7800468 425.094400
   2303   2302   4648     1   109.7800468 425.094400
   2303   2302   2304     1   108.4600466 328.025600
   2304   2302   4648     1   109.7800468 425.094400
   2306   2305   4678     1   109.7800468 425.094400
   2306   2305   2307     1   108.4600466 328.025600
   2307   2305   4678     1   109.7800468 425.094400
   2310   2311   2312     1   108.0100461 406.684800
   2310   2311   2313     1   108.0100461 406.684800
   2310   2314   2315     1   108.0100461 406.684800
   2310   2314   2316     1   108.0100461 406.684800
   2310   2317   2318     1   108.0100461 406.684800
   2310   2317   2319     1   108.0100461 406.684800
   2311   2310   2339     1   110.1100470 384.091200
   2311   2323   2324     1   109.8000471 387.438400
   2311   2323   2325     1   109.8000471 387.438400
   2312   2311   2323     1   110.5600475 386.601600
   2312   2311   2313     1   109.7500473 328.025600
   2313   2311   2323     1   110.5600475 386.601600
   2314   2310   2339     1   110.1100470 384.091200
   2314   2326   2327     1   109.8000471 387.438400
   2314   2326   2328     1   109.8000471 387.438400
   2315   2314   2326     1   110.5600475 386.601600
   2315   2314   2316     1   109.7500473 328.025600
   2316   2314   2326     1   110.5600475 386.601600
   2317   2310   2339     1   110.1100470 384.091200
   2317   2320   2321     1   109.8000471 387.438400
   2317   2320   2322     1   109.8000471 387.438400
   2318   2317   2320     1   110.5600475 386.601600
   2318   2317   2319     1   109.7500473 328.025600
   2319   2317   2320     1   110.5600475 386.601600
   2320   2329   2330     1   109.5600471 388.275200
   2320   2329   2331     1   109.5600471 388.275200
   2321   2320   2329     1   109.8000471 387.438400
   2321   2320   2322     1   107.5800459 329.699200
   2322   2320   2329     1   109.8000471 387.438400
   2323   2335   2336     1   109.5600471 388.275200
   2323   2335   2337     1   109.5600471 388.275200
   2324   2323   2335     1   109.8000471 387.438400
   2324   2323   2325     1   107.5800459 329.699200
   2325   2323   2335     1   109.8000471 387.438400
   2326   2332   2333     1   109.5600471 388.275200
   2326   2332   2334     1   109.5600471 388.275200
   2327   2326   2332     1   109.8000471 387.438400
   2327   2326   2328     1   107.5800459 329.699200
   2328   2326   2332     1   109.8000471 387.438400
   2330   2329   2338     1   109.7800468 425.094400
   2330   2329   2331     1   108.4600466 328.025600
   2331   2329   2338     1   109.7800468 425.094400
   2333   2332   4708     1   109.7800468 425.094400
   2333   2332   2334     1   108.4600466 328.025600
   2334   2332   4708     1   109.7800468 425.094400
   2336   2335   4738     1   109.7800468 425.094400
   2336   2335   2337     1   108.4600466 328.025600
   2337   2335   4738     1   109.7800468 425.094400
   2340   2341   2342     1   108.0100461 406.684800
   2340   2341   2343     1   108.0100461 406.684800
   2340   2344   2345     1   108.0100461 406.684800
   2340   2344   2346     1   108.0100461 406.684800
   2340   2347   2348     1   108.0100461 406.684800
   2340   2347   2349     1   108.0100461 406.684800
   2341   2340   2369     1   110.1100470 384.091200
   2341   2353   2354     1   109.8000471 387.438400
   2341   2353   2355     1   109.8000471 387.438400
   2342   2341   2353     1   110.5600475 386.601600
   2342   2341   2343     1   109.7500473 328.025600
   2343   2341   2353     1   110.5600475 386.601600
   2344   2340   2369     1   110.1100470 384.091200
   2344   2356   2357     1   109.8000471 387.438400
   2344   2356   2358     1   109.8000471 387.438400
   2345   2344   2356     1   110.5600475 386.601600
   2345   2344   2346     1   109.7500473 328.025600
   2346   2344   2356     1   110.5600475 386.601600
   2347   2340   2369     1   110.1100470 384.091200
   2347   2350   2351     1   109.8000471 387.438400
   2347   2350   2352     1   109.8000471 387.438400
   2348   2347   2350     1   110.5600475 386.601600
   2348   2347   2349     1   109.7500473 328.025600
   2349   2347   2350     1   110.5600475 386.601600
   2350   2359   2360     1   109.5600471 388.275200
   2350   2359   2361     1   109.5600471 388.275200
   2351   2350   2359     1   109.8000471 387.438400
   2351   2350   2352     1   107.5800459 329.699200
   2352   2350   2359     1   109.8000471 387.438400
   2353   2365   2366     1   109.5600471 388.275200
   2353   2365   2367     1   109.5600471 388.275200
   2354   2353   2365     1   109.8000471 387.438400
   2354   2353   2355     1   107.5800459 329.699200
   2355   2353   2365     1   109.8000471 387.438400
   2356   2362   2363     1   109.5600471 388.275200
   2356   2362   2364     1   109.5600471 388.275200
   2357   2356   2362     1   109.8000471 387.438400
   2357   2356   2358     1   107.5800459 329.699200
   2358   2356   2362     1   109.8000471 387.438400
   2360   2359   2368     1   109.7800468 425.094400
   2360   2359   2361     1   108.4600466 328.025600
   2361   2359   2368     1   109.7800468 425.094400
   2363   2362   4768     1   109.7800468 425.094400
   2363   2362   2364     1   108.4600466 328.025600
   2364   2362   4768     1   109.7800468 425.094400
   2366   2365   4798     1   109.7800468 425.094400
   2366   2365   2367     1   108.4600466 328.025600
   2367   2365   4798     1   109.7800468 425.094400
   2370   2371   2372     1   108.0100461 406.684800
   2370   2371   2373     1   108.0100461 406.684800
   2370   2374   2375     1   108.0100461 406.684800
   2370   2374   2376     1   108.0100461 406.684800
   2370   2377   2378     1   108.0100461 406.684800
   2370   2377   2379     1   108.0100461 406.684800
   2371   2370   2399     1   110.1100470 384.091200
   2371   2383   2384     1   109.8000471 387.438400
   2371   2383   2385     1   109.8000471 387.438400
   2372   2371   2383     1   110.5600475 386.601600
   2372   2371   2373     1   109.7500473 328.025600
   2373   2371   2383     1   110.5600475 386.601600
   2374   2370   2399     1   110.1100470 384.091200
   2374   2386   2387     1   109.8000471 387.438400
   2374   2386   2388     1   109.8000471 387.438400
   2375   2374   2386     1   110.5600475 386.601600
   2375   2374   2376     1   109.7500473 328.025600
   2376   2374   2386     1   110.5600475 386.601600
   2377   2370   2399     1   110.1100470 384.091200
   2377   2380   2381     1   109.8000471 387.438400
   2377   2380   2382     1   109.8000471 387.438400
   2378   2377   2380     1   110.5600475 386.601600
   2378   2377   2379     1   109.7500473 328.025600
   2379   2377   2380     1   110.5600475 386.601600
   2380   2389   2390     1   109.5600471 388.275200
   2380   2389   2391     1   109.5600471 388.275200
   2381   2380   2389     1   109.8000471 387.438400
   2381   2380   2382     1   107.5800459 329.699200
   2382   2380   2389     1   109.8000471 387.438400
   2383   2395   2396     1   109.5600471 388.275200
   2383   2395   2397     1   109.5600471 388.275200
   2384   2383   2395     1   109.8000471 387.438400
   2384   2383   2385     1   107.5800459 329.699200
   2385   2383   2395     1   109.8000471 387.438400
   2386   2392   2393     1   109.5600471 388.275200
   2386   2392   2394     1   109.5600471 388.275200
   2387   2386   2392     1   109.8000471 387.438400
   2387   2386   2388     1   107.5800459 329.699200
   2388   2386   2392     1   109.8000471 387.438400
   2390   2389   2398     1   109.7800468 425.094400
   2390   2389   2391     1   108.4600466 328.025600
   2391   2389   2398     1   109.7800468 425.094400
   2393   2392   4828     1   109.7800468 425.094400
   2393   2392   2394     1   108.4600466 328.025600
   2394   2392   4828     1   109.7800468 425.094400
   2396   2395   4858     1   109.7800468 425.094400
   2396   2395   2397     1   108.4600466 328.025600
   2397   2395   4858     1   109.7800468 425.094400
   2400   2401   2402     1   108.0100461 406.684800
   2400   2401   2403     1   108.0100461 406.684800
   2400   2404   2405     1   108.0100461 406.684800
   2400   2404   2406     1   108.0100461 406.684800
   2400   2407   2408     1   108.0100461 406.684800
   2400   2407   2409     1   108.0100461 406.684800
   2401   2400   2429     1   110.1100470 384.091200
   2401   2413   2414     1   109.8000471 387.438400
   2401   2413   2415     1   109.8000471 387.438400
   2402   2401   2413     1   110.5600475 386.601600
   2402   2401   2403     1   109.7500473 328.025600
   2403   2401   2413     1   110.5600475 386.601600
   2404   2400   2429     1   110.1100470 384.091200
   2404   2416   2417     1   109.8000471 387.438400
   2404   2416   2418     1   109.8000471 387.438400
   2405   2404   2416     1   110.5600475 386.601600
   2405   2404   2406     1   109.7500473 328.025600
   2406   2404   2416     1   110.5600475 386.601600
   2407   2400   2429     1   110.1100470 384.091200
   2407   2410   2411     1   109.8000471 387.438400
   2407   2410   2412     1   109.8000471 387.438400
   2408   2407   2410     1   110.5600475 386.601600
   2408   2407   2409     1   109.7500473 328.025600
   2409   2407   2410     1   110.5600475 386.601600
   2410   2419   2420     1   109.5600471 388.275200
   2410   2419   2421     1   109.5600471 388.275200
   2411   2410   2419     1   109.8000471 387.438400
   2411   2410   2412     1   107.5800459 329.699200
   2412   2410   2419     1   109.8000471 387.438400
   2413   2425   2426     1   109.5600471 388.275200
   2413   2425   2427     1   109.5600471 388.275200
   2414   2413   2425     1   109.8000471 387.438400
   2414   2413   2415     1   107.5800459 329.699200
   2415   2413   2425     1   109.8000471 387.438400
   2416   2422   2423     1   109.5600471 388.275200
   2416   2422   2424     1   109.5600471 388.275200
   2417   2416   2422     1   109.8000471 387.438400
   2417   2416   2418     1   107.5800459 329.699200
   2418   2416   2422     1   109.8000471 387.438400
   2420   2419   2428     1   109.7800468 425.094400
   2420   2419   2421     1   108.4600466 328.025600
   2421   2419   2428     1   109.7800468 425.094400
   2423   2422   4888     1   109.7800468 425.094400
   2423   2422   2424     1   108.4600466 328.025600
   2424   2422   4888     1   109.7800468 425.094400
   2426   2425   4918     1   109.7800468 425.094400
   2426   2425   2427     1   108.4600466 328.025600
   2427   2425   4918     1   109.7800468 425.094400
   2430   2431   2432     1   108.0100461 406.684800
   2430   2431   2433     1   108.0100461 406.684800
   2430   2434   2435     1   108.0100461 406.684800
   2430   2434   2436     1   108.0100461 406.684800
   2430   2437   2438     1   108.0100461 406.684800
   2430   2437   2439     1   108.0100461 406.684800
   2431   2430   2459     1   110.1100470 384.091200
   2431   2443   2444     1   109.8000471 387.438400
   2431   2443   2445     1   109.8000471 387.438400
   2432   2431   2443     1   110.5600475 386.601600
   2432   2431   2433     1   109.7500473 328.025600
   2433   2431   2443     1   110.5600475 386.601600
   2434   2430   2459     1   110.1100470 384.091200
   2434   2446   2447     1   109.8000471 387.438400
   2434   2446   2448     1   109.8000471 387.438400
   2435   2434   2446     1   110.5600475 386.601600
   2435   2434   2436     1   109.7500473 328.025600
   2436   2434   2446     1   110.5600475 386.601600
   2437   2430   2459     1   110.1100470 384.091200
   2437   2440   2441     1   109.8000471 387.438400
   2437   2440   2442     1   109.8000471 387.438400
   2438   2437   2440     1   110.5600475 386.601600
   2438   2437   2439     1   109.7500473 328.025600
   2439   2437   2440     1   110.5600475 386.601600
   2440   2449   2450     1   109.5600471 388.275200
   2440   2449   2451     1   109.5600471 388.275200
   2441   2440   2449     1   109.8000471 387.438400
   2441   2440   2442     1   107.5800459 329.699200
   2442   2440   2449     1   109.8000471 387.438400
   2443   2455   2456     1   109.5600471 388.275200
   2443   2455   2457     1   109.5600471 388.275200
   2444   2443   2455     1   109.8000471 387.438400
   2444   2443   2445     1   107.5800459 329.699200
   2445   2443   2455     1   109.8000471 387.438400
   2446   2452   2453     1   109.5600471 388.275200
   2446   2452   2454     1   109.5600471 388.275200
   2447   2446   2452     1   109.8000471 387.438400
   2447   2446   2448     1   107.5800459 329.699200
   2448   2446   2452     1   109.8000471 387.438400
   2450   2449   2458     1   109.7800468 425.094400
   2450   2449   2451     1   108.4600466 328.025600
   2451   2449   2458     1   109.7800468 425.094400
   2453   2452   4948     1   109.7800468 425.094400
   2453   2452   2454     1   108.4600466 328.025600
   2454   2452   4948     1   109.7800468 425.094400
   2456   2455   4978     1   109.7800468 425.094400
   2456   2455   2457     1   108.4600466 328.025600
   2457   2455   4978     1   109.7800468 425.094400
   2460   2461   2462     1   108.0100461 406.684800
   2460   2461   2463     1   108.0100461 406.684800
   2460   2464   2465     1   108.0100461 406.684800
   2460   2464   2466     1   108.0100461 406.684800
   2460   2467   2468     1   108.0100461 406.684800
   2460   2467   2469     1   108.0100461 406.684800
   2461   2460   2489     1   110.1100470 384.091200
   2461   2473   2474     1   109.8000471 387.438400
   2461   2473   2475     1   109.8000471 387.438400
   2462   2461   2473     1   110.5600475 386.601600
   2462   2461   2463     1   109.7500473 328.025600
   2463   2461   2473     1   110.5600475 386.601600
   2464   2460   2489     1   110.1100470 384.091200
   2464   2476   2477     1   109.8000471 387.438400
   2464   2476   2478     1   109.8000471 387.438400
   2465   2464   2476     1   110.5600475 386.601600
   2465   2464   2466     1   109.7500473 328.025600
   2466   2464   2476     1   110.5600475 386.601600
   2467   2460   2489     1   110.1100470 384.091200
   2467   2470   2471     1   109.8000471 387.438400
   2467   2470   2472     1   109.8000471 387.438400
   2468   2467   2470     1   110.5600475 386.601600
   2468   2467   2469     1   109.7500473 328.025600
   2469   2467   2470     1   110.5600475 386.601600
   2470   2479   2480     1   109.5600471 388.275200
   2470   2479   2481     1   109.5600471 388.275200
   2471   2470   2479     1   109.8000471 387.438400
   2471   2470   2472     1   107.5800459 329.699200
   2472   2470   2479     1   109.8000471 387.438400
   2473   2485   2486     1   109.5600471 388.275200
   2473   2485   2487     1   109.5600471 388.275200
   2474   2473   2485     1   109.8000471 387.438400
   2474   2473   2475     1   107.5800459 329.699200
   2475   2473   2485     1   109.8000471 387.438400
   2476   2482   2483     1   109.5600471 388.275200
   2476   2482   2484     1   109.5600471 388.275200
   2477   2476   2482     1   109.8000471 387.438400
   2477   2476   2478     1   107.5800459 329.699200
   2478   2476   2482     1   109.8000471 387.438400
   2480   2479   2488     1   109.7800468 425.094400
   2480   2479   2481     1   108.4600466 328.025600
   2481   2479   2488     1   109.7800468 425.094400
   2483   2482   5008     1   109.7800468 425.094400
   2483   2482   2484     1   108.4600466 328.025600
   2484   2482   5008     1   109.7800468 425.094400
   2486   2485   5038     1   109.7800468 425.094400
   2486   2485   2487     1   108.4600466 328.025600
   2487   2485   5038     1   109.7800468 425.094400
   2490   2491   2492     1   108.0100461 406.684800
   2490   2491   2493     1   108.0100461 406.684800
   2490   2494   2495     1   108.0100461 406.684800
   2490   2494   2496     1   108.0100461 406.684800
   2490   2497   2498     1   108.0100461 406.684800
   2490   2497   2499     1   108.0100461 406.684800
   2491   2490   2519     1   110.1100470 384.091200
   2491   2503   2504     1   109.8000471 387.438400
   2491   2503   2505     1   109.8000471 387.438400
   2492   2491   2503     1   110.5600475 386.601600
   2492   2491   2493     1   109.7500473 328.025600
   2493   2491   2503     1   110.5600475 386.601600
   2494   2490   2519     1   110.1100470 384.091200
   2494   2506   2507     1   109.8000471 387.438400
   2494   2506   2508     1   109.8000471 387.438400
   2495   2494   2506     1   110.5600475 386.601600
   2495   2494   2496     1   109.7500473 328.025600
   2496   2494   2506     1   110.5600475 386.601600
   2497   2490   2519     1   110.1100470 384.091200
   2497   2500   2501     1   109.8000471 387.438400
   2497   2500   2502     1   109.8000471 387.438400
   2498   2497   2500     1   110.5600475 386.601600
   2498   2497   2499     1   109.7500473 328.025600
   2499   2497   2500     1   110.5600475 386.601600
   2500   2509   2510     1   109.5600471 388.275200
   2500   2509   2511     1   109.5600471 388.275200
   2501   2500   2509     1   109.8000471 387.438400
   2501   2500   2502     1   107.5800459 329.699200
   2502   2500   2509     1   109.8000471 387.438400
   2503   2515   2516     1   109.5600471 388.275200
   2503   2515   2517     1   109.5600471 388.275200
   2504   2503   2515     1   109.8000471 387.438400
   2504   2503   2505     1   107.5800459 329.699200
   2505   2503   2515     1   109.8000471 387.438400
   2506   2512   2513     1   109.5600471 388.275200
   2506   2512   2514     1   109.5600471 388.275200
   2507   2506   2512     1   109.8000471 387.438400
   2507   2506   2508     1   107.5800459 329.699200
   2508   2506   2512     1   109.8000471 387.438400
   2510   2509   2518     1   109.7800468 425.094400
   2510   2509   2511     1   108.4600466 328.025600
   2511   2509   2518     1   109.7800468 425.094400
   2513   2512   5068     1   109.7800468 425.094400
   2513   2512   2514     1   108.4600466 328.025600
   2514   2512   5068     1   109.7800468 425.094400
   2516   2515   5098     1   109.7800468 425.094400
   2516   2515   2517     1   108.4600466 328.025600
   2517   2515   5098     1   109.7800468 425.094400
   2520   2521   2522     1   108.0100461 406.684800
   2520   2521   2523     1   108.0100461 406.684800
   2520   2524   2525     1   108.0100461 406.684800
   2520   2524   2526     1   108.0100461 406.684800
   2520   2527   2528     1   108.0100461 406.684800
   2520   2527   2529     1   108.0100461 406.684800
   2521   2520   2549     1   110.1100470 384.091200
   2521   2533   2534     1   109.8000471 387.438400
   2521   2533   2535     1   109.8000471 387.438400
   2522   2521   2533     1   110.5600475 386.601600
   2522   2521   2523     1   109.7500473 328.025600
   2523   2521   2533     1   110.5600475 386.601600
   2524   2520   2549     1   110.1100470 384.091200
   2524   2536   2537     1   109.8000471 387.438400
   2524   2536   2538     1   109.8000471 387.438400
   2525   2524   2536     1   110.5600475 386.601600
   2525   2524   2526     1   109.7500473 328.025600
   2526   2524   2536     1   110.5600475 386.601600
   2527   2520   2549     1   110.1100470 384.091200
   2527   2530   2531     1   109.8000471 387.438400
   2527   2530   2532     1   109.8000471 387.438400
   2528   2527   2530     1   110.5600475 386.601600
   2528   2527   2529     1   109.7500473 328.025600
   2529   2527   2530     1   110.5600475 386.601600
   2530   2539   2540     1   109.5600471 388.275200
   2530   2539   2541     1   109.5600471 388.275200
   2531   2530   2539     1   109.8000471 387.438400
   2531   2530   2532     1   107.5800459 329.699200
   2532   2530   2539     1   109.8000471 387.438400
   2533   2545   2546     1   109.5600471 388.275200
   2533   2545   2547     1   109.5600471 388.275200
   2534   2533   2545     1   109.8000471 387.438400
   2534   2533   2535     1   107.5800459 329.699200
   2535   2533   2545     1   109.8000471 387.438400
   2536   2542   2543     1   109.5600471 388.275200
   2536   2542   2544     1   109.5600471 388.275200
   2537   2536   2542     1   109.8000471 387.438400
   2537   2536   2538     1   107.5800459 329.699200
   2538   2536   2542     1   109.8000471 387.438400
   2540   2539   2548     1   109.7800468 425.094400
   2540   2539   2541     1   108.4600466 328.025600
   2541   2539   2548     1   109.7800468 425.094400
   2543   2542   5128     1   109.7800468 425.094400
   2543   2542   2544     1   108.4600466 328.025600
   2544   2542   5128     1   109.7800468 425.094400
   2546   2545   5158     1   109.7800468 425.094400
   2546   2545   2547     1   108.4600466 328.025600
   2547   2545   5158     1   109.7800468 425.094400
   2550   2551   2552     1   108.0100461 406.684800
   2550   2551   2553     1   108.0100461 406.684800
   2550   2554   2555     1   108.0100461 406.684800
   2550   2554   2556     1   108.0100461 406.684800
   2550   2557   2558     1   108.0100461 406.684800
   2550   2557   2559     1   108.0100461 406.684800
   2551   2550   2579     1   110.1100470 384.091200
   2551   2563   2564     1   109.8000471 387.438400
   2551   2563   2565     1   109.8000471 387.438400
   2552   2551   2563     1   110.5600475 386.601600
   2552   2551   2553     1   109.7500473 328.025600
   2553   2551   2563     1   110.5600475 386.601600
   2554   2550   2579     1   110.1100470 384.091200
   2554   2566   2567     1   109.8000471 387.438400
   2554   2566   2568     1   109.8000471 387.438400
   2555   2554   2566     1   110.5600475 386.601600
   2555   2554   2556     1   109.7500473 328.025600
   2556   2554   2566     1   110.5600475 386.601600
   2557   2550   2579     1   110.1100470 384.091200
   2557   2560   2561     1   109.8000471 387.438400
   2557   2560   2562     1   109.8000471 387.438400
   2558   2557   2560     1   110.5600475 386.601600
   2558   2557   2559     1   109.7500473 328.025600
   2559   2557   2560     1   110.5600475 386.601600
   2560   2569   2570     1   109.5600471 388.275200
   2560   2569   2571     1   109.5600471 388.275200
   2561   2560   2569     1   109.8000471 387.438400
   2561   2560   2562     1   107.5800459 329.699200
   2562   2560   2569     1   109.8000471 387.438400
   2563   2575   2576     1   109.5600471 388.275200
   2563   2575   2577     1   109.5600471 388.275200
   2564   2563   2575     1   109.8000471 387.438400
   2564   2563   2565     1   107.5800459 329.699200
   2565   2563   2575     1   109.8000471 387.438400
   2566   2572   2573     1   109.5600471 388.275200
   2566   2572   2574     1   109.5600471 388.275200
   2567   2566   2572     1   109.8000471 387.438400
   2567   2566   2568     1   107.5800459 329.699200
   2568   2566   2572     1   109.8000471 387.438400
   2570   2569   2578     1   109.7800468 425.094400
   2570   2569   2571     1   108.4600466 328.025600
   2571   2569   2578     1   109.7800468 425.094400
   2573   2572   5188     1   109.7800468 425.094400
   2573   2572   2574     1   108.4600466 328.025600
   2574   2572   5188     1   109.7800468 425.094400
   2576   2575   5218     1   109.7800468 425.094400
   2576   2575   2577     1   108.4600466 328.025600
   2577   2575   5218     1   109.7800468 425.094400
   2580   2581   2582     1   108.0100461 406.684800
   2580   2581   2583     1   108.0100461 406.684800
   2580   2584   2585     1   108.0100461 406.684800
   2580   2584   2586     1   108.0100461 406.684800
   2580   2587   2588     1   108.0100461 406.684800
   2580   2587   2589     1   108.0100461 406.684800
   2581   2580   2609     1   110.1100470 384.091200
   2581   2593   2594     1   109.8000471 387.438400
   2581   2593   2595     1   109.8000471 387.438400
   2582   2581   2593     1   110.5600475 386.601600
   2582   2581   2583     1   109.7500473 328.025600
   2583   2581   2593     1   110.5600475 386.601600
   2584   2580   2609     1   110.1100470 384.091200
   2584   2596   2597     1   109.8000471 387.438400
   2584   2596   2598     1   109.8000471 387.438400
   2585   2584   2596     1   110.5600475 386.601600
   2585   2584   2586     1   109.7500473 328.025600
   2586   2584   2596     1   110.5600475 386.601600
   2587   2580   2609     1   110.1100470 384.091200
   2587   2590   2591     1   109.8000471 387.438400
   2587   2590   2592     1   109.8000471 387.438400
   2588   2587   2590     1   110.5600475 386.601600
   2588   2587   2589     1   109.7500473 328.025600
   2589   2587   2590     1   110.5600475 386.601600
   2590   2599   2600     1   109.5600471 388.275200
   2590   2599   2601     1   109.5600471 388.275200
   2591   2590   2599     1   109.8000471 387.438400
   2591   2590   2592     1   107.5800459 329.699200
   2592   2590   2599     1   109.8000471 387.438400
   2593   2605   2606     1   109.5600471 388.275200
   2593   2605   2607     1   109.5600471 388.275200
   2594   2593   2605     1   109.8000471 387.438400
   2594   2593   2595     1   107.5800459 329.699200
   2595   2593   2605     1   109.8000471 387.438400
   2596   2602   2603     1   109.5600471 388.275200
   2596   2602   2604     1   109.5600471 388.275200
   2597   2596   2602     1   109.8000471 387.438400
   2597   2596   2598     1   107.5800459 329.699200
   2598   2596   2602     1   109.8000471 387.438400
   2600   2599   2608     1   109.7800468 425.094400
   2600   2599   2601     1   108.4600466 328.025600
   2601   2599   2608     1   109.7800468 425.094400
   2603   2602   5248     1   109.7800468 425.094400
   2603   2602   2604     1   108.4600466 328.025600
   2604   2602   5248     1   109.7800468 425.094400
   2606   2605   5278     1   109.7800468 425.094400
   2606   2605   2607     1   108.4600466 328.025600
   2607   2605   5278     1   109.7800468 425.094400
   2610   2611   2612     1   108.0100461 406.684800
   2610   2611   2613     1   108.0100461 406.684800
   2610   2614   2615     1   108.0100461 406.684800
   2610   2614   2616     1   108.0100461 406.684800
   2610   2617   2618     1   108.0100461 406.684800
   2610   2617   2619     1   108.0100461 406.684800
   2611   2610   2639     1   110.1100470 384.091200
   2611   2623   2624     1   109.8000471 387.438400
   2611   2623   2625     1   109.8000471 387.438400
   2612   2611   2623     1   110.5600475 386.601600
   2612   2611   2613     1   109.7500473 328.025600
   2613   2611   2623     1   110.5600475 386.601600
   2614   2610   2639     1   110.1100470 384.091200
   2614   2626   2627     1   109.8000471 387.438400
   2614   2626   2628     1   109.8000471 387.438400
   2615   2614   2626     1   110.5600475 386.601600
   2615   2614   2616     1   109.7500473 328.025600
   2616   2614   2626     1   110.5600475 386.601600
   2617   2610   2639     1   110.1100470 384.091200
   2617   2620   2621     1   109.8000471 387.438400
   2617   2620   2622     1   109.8000471 387.438400
   2618   2617   2620     1   110.5600475 386.601600
   2618   2617   2619     1   109.7500473 328.025600
   2619   2617   2620     1   110.5600475 386.601600
   2620   2629   2630     1   109.5600471 388.275200
   2620   2629   2631     1   109.5600471 388.275200
   2621   2620   2629     1   109.8000471 387.438400
   2621   2620   2622     1   107.5800459 329.699200
   2622   2620   2629     1   109.8000471 387.438400
   2623   2635   2636     1   109.5600471 388.275200
   2623   2635   2637     1   109.5600471 388.275200
   2624   2623   2635     1   109.8000471 387.438400
   2624   2623   2625     1   107.5800459 329.699200
   2625   2623   2635     1   109.8000471 387.438400
   2626   2632   2633     1   109.5600471 388.275200
   2626   2632   2634     1   109.5600471 388.275200
   2627   2626   2632     1   109.8000471 387.438400
   2627   2626   2628     1   107.5800459 329.699200
   2628   2626   2632     1   109.8000471 387.438400
   2630   2629   2638     1   109.7800468 425.094400
   2630   2629   2631     1   108.4600466 328.025600
   2631   2629   2638     1   109.7800468 425.094400
   2633   2632   5308     1   109.7800468 425.094400
   2633   2632   2634     1   108.4600466 328.025600
   2634   2632   5308     1   109.7800468 425.094400
   2636   2635   5338     1   109.7800468 425.094400
   2636   2635   2637     1   108.4600466 328.025600
   2637   2635   5338     1   109.7800468 425.094400
   2640   2641   2642     1   108.0100461 406.684800
   2640   2641   2643     1   108.0100461 406.684800
   2640   2644   2645     1   108.0100461 406.684800
   2640   2644   2646     1   108.0100461 406.684800
   2640   2647   2648     1   108.0100461 406.684800
   2640   2647   2649     1   108.0100461 406.684800
   2641   2640   2669     1   110.1100470 384.091200
   2641   2653   2654     1   109.8000471 387.438400
   2641   2653   2655     1   109.8000471 387.438400
   2642   2641   2653     1   110.5600475 386.601600
   2642   2641   2643     1   109.7500473 328.025600
   2643   2641   2653     1   110.5600475 386.601600
   2644   2640   2669     1   110.1100470 384.091200
   2644   2656   2657     1   109.8000471 387.438400
   2644   2656   2658     1   109.8000471 387.438400
   2645   2644   2656     1   110.5600475 386.601600
   2645   2644   2646     1   109.7500473 328.025600
   2646   2644   2656     1   110.5600475 386.601600
   2647   2640   2669     1   110.1100470 384.091200
   2647   2650   2651     1   109.8000471 387.438400
   2647   2650   2652     1   109.8000471 387.438400
   2648   2647   2650     1   110.5600475 386.601600
   2648   2647   2649     1   109.7500473 328.025600
   2649   2647   2650     1   110.5600475 386.601600
   2650   2659   2660     1   109.5600471 388.275200
   2650   2659   2661     1   109.5600471 388.275200
   2651   2650   2659     1   109.8000471 387.438400
   2651   2650   2652     1   107.5800459 329.699200
   2652   2650   2659     1   109.8000471 387.438400
   2653   2665   2666     1   109.5600471 388.275200
   2653   2665   2667     1   109.5600471 388.275200
   2654   2653   2665     1   109.8000471 387.438400
   2654   2653   2655     1   107.5800459 329.699200
   2655   2653   2665     1   109.8000471 387.438400
   2656   2662   2663     1   109.5600471 388.275200
   2656   2662   2664     1   109.5600471 388.275200
   2657   2656   2662     1   109.8000471 387.438400
   2657   2656   2658     1   107.5800459 329.699200
   2658   2656   2662     1   109.8000471 387.438400
   2660   2659   2668     1   109.7800468 425.094400
   2660   2659   2661     1   108.4600466 328.025600
   2661   2659   2668     1   109.7800468 425.094400
   2663   2662   5368     1   109.7800468 425.094400
   2663   2662   2664     1   108.4600466 328.025600
   2664   2662   5368     1   109.7800468 425.094400
   2666   2665   5398     1   109.7800468 425.094400
   2666   2665   2667     1   108.4600466 328.025600
   2667   2665   5398     1   109.7800468 425.094400
   2670   2671   2672     1   108.0100461 406.684800
   2670   2671   2673     1   108.0100461 406.684800
   2670   2674   2675     1   108.0100461 406.684800
   2670   2674   2676     1   108.0100461 406.684800
   2670   2677   2678     1   108.0100461 406.684800
   2670   2677   2679     1   108.0100461 406.684800
   2671   2670   2699     1   110.1100470 384.091200
   2671   2683   2684     1   109.8000471 387.438400
   2671   2683   2685     1   109.8000471 387.438400
   2672   2671   2683     1   110.5600475 386.601600
   2672   2671   2673     1   109.7500473 328.025600
   2673   2671   2683     1   110.5600475 386.601600
   2674   2670   2699     1   110.1100470 384.091200
   2674   2686   2687     1   109.8000471 387.438400
   2674   2686   2688     1   109.8000471 387.438400
   2675   2674   2686     1   110.5600475 386.601600
   2675   2674   2676     1   109.7500473 328.025600
   2676   2674   2686     1   110.5600475 386.601600
   2677   2670   2699     1   110.1100470 384.091200
   2677   2680   2681     1   109.8000471 387.438400
   2677   2680   2682     1   109.8000471 387.438400
   2678   2677   2680     1   110.5600475 386.601600
   2678   2677   2679     1   109.7500473 328.025600
   2679   2677   2680     1   110.5600475 386.601600
   2680   2689   2690     1   109.5600471 388.275200
   2680   2689   2691     1   109.5600471 388.275200
   2681   2680   2689     1   109.8000471 387.438400
   2681   2680   2682     1   107.5800459 329.699200
   2682   2680   2689     1   109.8000471 387.438400
   2683   2695   2696     1   109.5600471 388.275200
   2683   2695   2697     1   109.5600471 388.275200
   2684   2683   2695     1   109.8000471 387.438400
   2684   2683   2685     1   107.5800459 329.699200
   2685   2683   2695     1   109.8000471 387.438400
   2686   2692   2693     1   109.5600471 388.275200
   2686   2692   2694     1   109.5600471 388.275200
   2687   2686   2692     1   109.8000471 387.438400
   2687   2686   2688     1   107.5800459 329.699200
   2688   2686   2692     1   109.8000471 387.438400
   2690   2689   2698     1   109.7800468 425.094400
   2690   2689   2691     1   108.4600466 328.025600
   2691   2689   2698     1   109.7800468 425.094400
   2693   2692   5428     1   109.7800468 425.094400
   2693   2692   2694     1   108.4600466 328.025600
   2694   2692   5428     1   109.7800468 425.094400
   2696   2695   5458     1   109.7800468 425.094400
   2696   2695   2697     1   108.4600466 328.025600
   2697   2695   5458     1   109.7800468 425.094400
   2700   2701   2702     1   108.0100461 406.684800
   2700   2701   2703     1   108.0100461 406.684800
   2700   2704   2705     1   108.0100461 406.684800
   2700   2704   2706     1   108.0100461 406.684800
   2700   2707   2708     1   108.0100461 406.684800
   2700   2707   2709     1   108.0100461 406.684800
   2701   2700   2729     1   110.1100470 384.091200
   2701   2713   2714     1   109.8000471 387.438400
   2701   2713   2715     1   109.8000471 387.438400
   2702   2701   2713     1   110.5600475 386.601600
   2702   2701   2703     1   109.7500473 328.025600
   2703   2701   2713     1   110.5600475 386.601600
   2704   2700   2729     1   110.1100470 384.091200
   2704   2716   2717     1   109.8000471 387.438400
   2704   2716   2718     1   109.8000471 387.438400
   2705   2704   2716     1   110.5600475 386.601600
   2705   2704   2706     1   109.7500473 328.025600
   2706   2704   2716     1   110.5600475 386.601600
   2707   2700   2729     1   110.1100470 384.091200
   2707   2710   2711     1   109.8000471 387.438400
   2707   2710   2712     1   109.8000471 387.438400
   2708   2707   2710     1   110.5600475 386.601600
   2708   2707   2709     1   109.7500473 328.025600
   2709   2707   2710     1   110.5600475 386.601600
   2710   2719   2720     1   109.5600471 388.275200
   2710   2719   2721     1   109.5600471 388.275200
   2711   2710   2719     1   109.8000471 387.438400
   2711   2710   2712     1   107.5800459 329.699200
   2712   2710   2719     1   109.8000471 387.438400
   2713   2725   2726     1   109.5600471 388.275200
   2713   2725   2727     1   109.5600471 388.275200
   2714   2713   2725     1   109.8000471 387.438400
   2714   2713   2715     1   107.5800459 329.699200
   2715   2713   2725     1   109.8000471 387.438400
   2716   2722   2723     1   109.5600471 388.275200
   2716   2722   2724     1   109.5600471 388.275200
   2717   2716   2722     1   109.8000471 387.438400
   2717   2716   2718     1   107.5800459 329.699200
   2718   2716   2722     1   109.8000471 387.438400
   2720   2719   2728     1   109.7800468 425.094400
   2720   2719   2721     1   108.4600466 328.025600
   2721   2719   2728     1   109.7800468 425.094400
   2723   2722   5488     1   109.7800468 425.094400
   2723   2722   2724     1   108.4600466 328.025600
   2724   2722   5488     1   109.7800468 425.094400
   2726   2725   5518     1   109.7800468 425.094400
   2726   2725   2727     1   108.4600466 328.025600
   2727   2725   5518     1   109.7800468 425.094400
   2730   2731   2732     1   108.0100461 406.684800
   2730   2731   2733     1   108.0100461 406.684800
   2730   2734   2735     1   108.0100461 406.684800
   2730   2734   2736     1   108.0100461 406.684800
   2730   2737   2738     1   108.0100461 406.684800
   2730   2737   2739     1   108.0100461 406.684800
   2731   2730   2759     1   110.1100470 384.091200
   2731   2743   2744     1   109.8000471 387.438400
   2731   2743   2745     1   109.8000471 387.438400
   2732   2731   2743     1   110.5600475 386.601600
   2732   2731   2733     1   109.7500473 328.025600
   2733   2731   2743     1   110.5600475 386.601600
   2734   2730   2759     1   110.1100470 384.091200
   2734   2746   2747     1   109.8000471 387.438400
   2734   2746   2748     1   109.8000471 387.438400
   2735   2734   2746     1   110.5600475 386.601600
   2735   2734   2736     1   109.7500473 328.025600
   2736   2734   2746     1   110.5600475 386.601600
   2737   2730   2759     1   110.1100470 384.091200
   2737   2740   2741     1   109.8000471 387.438400
   2737   2740   2742     1   109.8000471 387.438400
   2738   2737   2740     1   110.5600475 386.601600
   2738   2737   2739     1   109.7500473 328.025600
   2739   2737   2740     1   110.5600475 386.601600
   2740   2749   2750     1   109.5600471 388.275200
   2740   2749   2751     1   109.5600471 388.275200
   2741   2740   2749     1   109.8000471 387.438400
   2741   2740   2742     1   107.5800459 329.699200
   2742   2740   2749     1   109.8000471 387.438400
   2743   2755   2756     1   109.5600471 388.275200
   2743   2755   2757     1   109.5600471 388.275200
   2744   2743   2755     1   109.8000471 387.438400
   2744   2743   2745     1   107.5800459 329.699200
   2745   2743   2755     1   109.8000471 387.438400
   2746   2752   2753     1   109.5600471 388.275200
   2746   2752   2754     1   109.5600471 388.275200
   2747   2746   2752     1   109.8000471 387.438400
   2747   2746   2748     1   107.5800459 329.699200
   2748   2746   2752     1   109.8000471 387.438400
   2750   2749   2758     1   109.7800468 425.094400
   2750   2749   2751     1   108.4600466 328.025600
   2751   2749   2758     1   109.7800468 425.094400
   2753   2752   5548     1   109.7800468 425.094400
   2753   2752   2754     1   108.4600466 328.025600
   2754   2752   5548     1   109.7800468 425.094400
   2756   2755   5578     1   109.7800468 425.094400
   2756   2755   2757     1   108.4600466 328.025600
   2757   2755   5578     1   109.7800468 425.094400
   2760   2761   2762     1   108.0100461 406.684800
   2760   2761   2763     1   108.0100461 406.684800
   2760   2764   2765     1   108.0100461 406.684800
   2760   2764   2766     1   108.0100461 406.684800
   2760   2767   2768     1   108.0100461 406.684800
   2760   2767   2769     1   108.0100461 406.684800
   2761   2760   2789     1   110.1100470 384.091200
   2761   2773   2774     1   109.8000471 387.438400
   2761   2773   2775     1   109.8000471 387.438400
   2762   2761   2773     1   110.5600475 386.601600
   2762   2761   2763     1   109.7500473 328.025600
   2763   2761   2773     1   110.5600475 386.601600
   2764   2760   2789     1   110.1100470 384.091200
   2764   2776   2777     1   109.8000471 387.438400
   2764   2776   2778     1   109.8000471 387.438400
   2765   2764   2776     1   110.5600475 386.601600
   2765   2764   2766     1   109.7500473 328.025600
   2766   2764   2776     1   110.5600475 386.601600
   2767   2760   2789     1   110.1100470 384.091200
   2767   2770   2771     1   109.8000471 387.438400
   2767   2770   2772     1   109.8000471 387.438400
   2768   2767   2770     1   110.5600475 386.601600
   2768   2767   2769     1   109.7500473 328.025600
   2769   2767   2770     1   110.5600475 386.601600
   2770   2779   2780     1   109.5600471 388.275200
   2770   2779   2781     1   109.5600471 388.275200
   2771   2770   2779     1   109.8000471 387.438400
   2771   2770   2772     1   107.5800459 329.699200
   2772   2770   2779     1   109.8000471 387.438400
   2773   2785   2786     1   109.5600471 388.275200
   2773   2785   2787     1   109.5600471 388.275200
   2774   2773   2785     1   109.8000471 387.438400
   2774   2773   2775     1   107.5800459 329.699200
   2775   2773   2785     1   109.8000471 387.438400
   2776   2782   2783     1   109.5600471 388.275200
   2776   2782   2784     1   109.5600471 388.275200
   2777   2776   2782     1   109.8000471 387.438400
   2777   2776   2778     1   107.5800459 329.699200
   2778   2776   2782     1   109.8000471 387.438400
   2780   2779   2788     1   109.7800468 425.094400
   2780   2779   2781     1   108.4600466 328.025600
   2781   2779   2788     1   109.7800468 425.094400
   2783   2782   5608     1   109.7800468 425.094400
   2783   2782   2784     1   108.4600466 328.025600
   2784   2782   5608     1   109.7800468 425.094400
   2786   2785   5638     1   109.7800468 425.094400
   2786   2785   2787     1   108.4600466 328.025600
   2787   2785   5638     1   109.7800468 425.094400
   2790   2791   2792     1   108.0100461 406.684800
   2790   2791   2793     1   108.0100461 406.684800
   2790   2794   2795     1   108.0100461 406.684800
   2790   2794   2796     1   108.0100461 406.684800
   2790   2797   2798     1   108.0100461 406.684800
   2790   2797   2799     1   108.0100461 406.684800
   2791   2790   2819     1   110.1100470 384.091200
   2791   2803   2804     1   109.8000471 387.438400
   2791   2803   2805     1   109.8000471 387.438400
   2792   2791   2803     1   110.5600475 386.601600
   2792   2791   2793     1   109.7500473 328.025600
   2793   2791   2803     1   110.5600475 386.601600
   2794   2790   2819     1   110.1100470 384.091200
   2794   2806   2807     1   109.8000471 387.438400
   2794   2806   2808     1   109.8000471 387.438400
   2795   2794   2806     1   110.5600475 386.601600
   2795   2794   2796     1   109.7500473 328.025600
   2796   2794   2806     1   110.5600475 386.601600
   2797   2790   2819     1   110.1100470 384.091200
   2797   2800   2801     1   109.8000471 387.438400
   2797   2800   2802     1   109.8000471 387.438400
   2798   2797   2800     1   110.5600475 386.601600
   2798   2797   2799     1   109.7500473 328.025600
   2799   2797   2800     1   110.5600475 386.601600
   2800   2809   2810     1   109.5600471 388.275200
   2800   2809   2811     1   109.5600471 388.275200
   2801   2800   2809     1   109.8000471 387.438400
   2801   2800   2802     1   107.5800459 329.699200
   2802   2800   2809     1   109.8000471 387.438400
   2803   2815   2816     1   109.5600471 388.275200
   2803   2815   2817     1   109.5600471 388.275200
   2804   2803   2815     1   109.8000471 387.438400
   2804   2803   2805     1   107.5800459 329.699200
   2805   2803   2815     1   109.8000471 387.438400
   2806   2812   2813     1   109.5600471 388.275200
   2806   2812   2814     1   109.5600471 388.275200
   2807   2806   2812     1   109.8000471 387.438400
   2807   2806   2808     1   107.5800459 329.699200
   2808   2806   2812     1   109.8000471 387.438400
   2810   2809   2818     1   109.7800468 425.094400
   2810   2809   2811     1   108.4600466 328.025600
   2811   2809   2818     1   109.7800468 425.094400
   2813   2812   5668     1   109.7800468 425.094400
   2813   2812   2814     1   108.4600466 328.025600
   2814   2812   5668     1   109.7800468 425.094400
   2816   2815   5698     1   109.7800468 425.094400
   2816   2815   2817     1   108.4600466 328.025600
   2817   2815   5698     1   109.7800468 425.094400
   2820   2821   2822     1   108.0100461 406.684800
   2820   2821   2823     1   108.0100461 406.684800
   2820   2824   2825     1   108.0100461 406.684800
   2820   2824   2826     1   108.0100461 406.684800
   2820   2827   2828     1   108.0100461 406.684800
   2820   2827   2829     1   108.0100461 406.684800
   2821   2820   2849     1   110.1100470 384.091200
   2821   2833   2834     1   109.8000471 387.438400
   2821   2833   2835     1   109.8000471 387.438400
   2822   2821   2833     1   110.5600475 386.601600
   2822   2821   2823     1   109.7500473 328.025600
   2823   2821   2833     1   110.5600475 386.601600
   2824   2820   2849     1   110.1100470 384.091200
   2824   2836   2837     1   109.8000471 387.438400
   2824   2836   2838     1   109.8000471 387.438400
   2825   2824   2836     1   110.5600475 386.601600
   2825   2824   2826     1   109.7500473 328.025600
   2826   2824   2836     1   110.5600475 386.601600
   2827   2820   2849     1   110.1100470 384.091200
   2827   2830   2831     1   109.8000471 387.438400
   2827   2830   2832     1   109.8000471 387.438400
   2828   2827   2830     1   110.5600475 386.601600
   2828   2827   2829     1   109.7500473 328.025600
   2829   2827   2830     1   110.5600475 386.601600
   2830   2839   2840     1   109.5600471 388.275200
   2830   2839   2841     1   109.5600471 388.275200
   2831   2830   2839     1   109.8000471 387.438400
   2831   2830   2832     1   107.5800459 329.699200
   2832   2830   2839     1   109.8000471 387.438400
   2833   2845   2846     1   109.5600471 388.275200
   2833   2845   2847     1   109.5600471 388.275200
   2834   2833   2845     1   109.8000471 387.438400
   2834   2833   2835     1   107.5800459 329.699200
   2835   2833   2845     1   109.8000471 387.438400
   2836   2842   2843     1   109.5600471 388.275200
   2836   2842   2844     1   109.5600471 388.275200
   2837   2836   2842     1   109.8000471 387.438400
   2837   2836   2838     1   107.5800459 329.699200
   2838   2836   2842     1   109.8000471 387.438400
   2840   2839   2848     1   109.7800468 425.094400
   2840   2839   2841     1   108.4600466 328.025600
   2841   2839   2848     1   109.7800468 425.094400
   2843   2842   5710     1   109.7800468 425.094400
   2843   2842   2844     1   108.4600466 328.025600
   2844   2842   5710     1   109.7800468 425.094400
   2846   2845   5733     1   109.7800468 425.094400
   2846   2845   2847     1   108.4600466 328.025600
   2847   2845   5733     1   109.7800468 425.094400
   2850   2851   2852     1   108.0100461 406.684800
   2850   2851   2853     1   108.0100461 406.684800
   2850   2854   2855     1   108.0100461 406.684800
   2850   2854   2856     1   108.0100461 406.684800
   2850   2857   2858     1   108.0100461 406.684800
   2850   2857   2859     1   108.0100461 406.684800
   2851   2850   2879     1   110.1100470 384.091200
   2851   2863   2864     1   109.8000471 387.438400
   2851   2863   2865     1   109.8000471 387.438400
   2852   2851   2863     1   110.5600475 386.601600
   2852   2851   2853     1   109.7500473 328.025600
   2853   2851   2863     1   110.5600475 386.601600
   2854   2850   2879     1   110.1100470 384.091200
   2854   2866   2867     1   109.8000471 387.438400
   2854   2866   2868     1   109.8000471 387.438400
   2855   2854   2866     1   110.5600475 386.601600
   2855   2854   2856     1   109.7500473 328.025600
   2856   2854   2866     1   110.5600475 386.601600
   2857   2850   2879     1   110.1100470 384.091200
   2857   2860   2861     1   109.8000471 387.438400
   2857   2860   2862     1   109.8000471 387.438400
   2858   2857   2860     1   110.5600475 386.601600
   2858   2857   2859     1   109.7500473 328.025600
   2859   2857   2860     1   110.5600475 386.601600
   2860   2869   2870     1   109.5600471 388.275200
   2860   2869   2871     1   109.5600471 388.275200
   2861   2860   2869     1   109.8000471 387.438400
   2861   2860   2862     1   107.5800459 329.699200
   2862   2860   2869     1   109.8000471 387.438400
   2863   2875   2876     1   109.5600471 388.275200
   2863   2875   2877     1   109.5600471 388.275200
   2864   2863   2875     1   109.8000471 387.438400
   2864   2863   2865     1   107.5800459 329.699200
   2865   2863   2875     1   109.8000471 387.438400
   2866   2872   2873     1   109.5600471 388.275200
   2866   2872   2874     1   109.5600471 388.275200
   2867   2866   2872     1   109.8000471 387.438400
   2867   2866   2868     1   107.5800459 329.699200
   2868   2866   2872     1   109.8000471 387.438400
   2870   2869   2878     1   109.7800468 425.094400
   2870   2869   2871     1   108.4600466 328.025600
   2871   2869   2878     1   109.7800468 425.094400
   2873   2872   5756     1   109.7800468 425.094400
   2873   2872   2874     1   108.4600466 328.025600
   2874   2872   5756     1   109.7800468 425.094400
   2876   2875   5779     1   109.7800468 425.094400
   2876   2875   2877     1   108.4600466 328.025600
   2877   2875   5779     1   109.7800468 425.094400
   2880   2881   2882     1   108.0100461 406.684800
   2880   2881   2883     1   108.0100461 406.684800
   2880   2884   2885     1   108.0100461 406.684800
   2880   2884   2886     1   108.0100461 406.684800
   2880   2887   2888     1   108.0100461 406.684800
   2880   2887   2889     1   108.0100461 406.684800
   2881   2880   2909     1   110.1100470 384.091200
   2881   2893   2894     1   109.8000471 387.438400
   2881   2893   2895     1   109.8000471 387.438400
   2882   2881   2893     1   110.5600475 386.601600
   2882   2881   2883     1   109.7500473 328.025600
   2883   2881   2893     1   110.5600475 386.601600
   2884   2880   2909     1   110.1100470 384.091200
   2884   2896   2897     1   109.8000471 387.438400
   2884   2896   2898     1   109.8000471 387.438400
   2885   2884   2896     1   110.5600475 386.601600
   2885   2884   2886     1   109.7500473 328.025600
   2886   2884   2896     1   110.5600475 386.601600
   2887   2880   2909     1   110.1100470 384.091200
   2887   2890   2891     1   109.8000471 387.438400
   2887   2890   2892     1   109.8000471 387.438400
   2888   2887   2890     1   110.5600475 386.601600
   2888   2887   2889     1   109.7500473 328.025600
   2889   2887   2890     1   110.5600475 386.601600
   2890   2899   2900     1   109.5600471 388.275200
   2890   2899   2901     1   109.5600471 388.275200
   2891   2890   2899     1   109.8000471 387.438400
   2891   2890   2892     1   107.5800459 329.699200
   2892   2890   2899     1   109.8000471 387.438400
   2893   2905   2906     1   109.5600471 388.275200
   2893   2905   2907     1   109.5600471 388.275200
   2894   2893   2905     1   109.8000471 387.438400
   2894   2893   2895     1   107.5800459 329.699200
   2895   2893   2905     1   109.8000471 387.438400
   2896   2902   2903     1   109.5600471 388.275200
   2896   2902   2904     1   109.5600471 388.275200
   2897   2896   2902     1   109.8000471 387.438400
   2897   2896   2898     1   107.5800459 329.699200
   2898   2896   2902     1   109.8000471 387.438400
   2900   2899   2908     1   109.7800468 425.094400
   2900   2899   2901     1   108.4600466 328.025600
   2901   2899   2908     1   109.7800468 425.094400
   2903   2902   5802     1   109.7800468 425.094400
   2903   2902   2904     1   108.4600466 328.025600
   2904   2902   5802     1   109.7800468 425.094400
   2906   2905   5825     1   109.7800468 425.094400
   2906   2905   2907     1   108.4600466 328.025600
   2907   2905   5825     1   109.7800468 425.094400
   2910   2911   2912     1   108.0100461 406.684800
   2910   2911   2913     1   108.0100461 406.684800
   2910   2914   2915     1   108.0100461 406.684800
   2910   2914   2916     1   108.0100461 406.684800
   2910   2917   2918     1   108.0100461 406.684800
   2910   2917   2919     1   108.0100461 406.684800
   2911   2910   2939     1   110.1100470 384.091200
   2911   2923   2924     1   109.8000471 387.438400
   2911   2923   2925     1   109.8000471 387.438400
   2912   2911   2923     1   110.5600475 386.601600
   2912   2911   2913     1   109.7500473 328.025600
   2913   2911   2923     1   110.5600475 386.601600
   2914   2910   2939     1   110.1100470 384.091200
   2914   2926   2927     1   109.8000471 387.438400
   2914   2926   2928     1   109.8000471 387.438400
   2915   2914   2926     1   110.5600475 386.601600
   2915   2914   2916     1   109.7500473 328.025600
   2916   2914   2926     1   110.5600475 386.601600
   2917   2910   2939     1   110.1100470 384.091200
   2917   2920   2921     1   109.8000471 387.438400
   2917   2920   2922     1   109.8000471 387.438400
   2918   2917   2920     1   110.5600475 386.601600
   2918   2917   2919     1   109.7500473 328.025600
   2919   2917   2920     1   110.5600475 386.601600
   2920   2929   2930     1   109.5600471 388.275200
   2920   2929   2931     1   109.5600471 388.275200
   2921   2920   2929     1   109.8000471 387.438400
   2921   2920   2922     1   107.5800459 329.699200
   2922   2920   2929     1   109.8000471 387.438400
   2923   2935   2936     1   109.5600471 388.275200
   2923   2935   2937     1   109.5600471 388.275200
   2924   2923   2935     1   109.8000471 387.438400
   2924   2923   2925     1   107.5800459 329.699200
   2925   2923   2935     1   109.8000471 387.438400
   2926   2932   2933     1   109.5600471 388.275200
   2926   2932   2934     1   109.5600471 388.275200
   2927   2926   2932     1   109.8000471 387.438400
   2927   2926   2928     1   107.5800459 329.699200
   2928   2926   2932     1   109.8000471 387.438400
   2930   2929   2938     1   109.7800468 425.094400
   2930   2929   2931     1   108.4600466 328.025600
   2931   2929   2938     1   109.7800468 425.094400
   2933   2932   5848     1   109.7800468 425.094400
   2933   2932   2934     1   108.4600466 328.025600
   2934   2932   5848     1   109.7800468 425.094400
   2936   2935   5871     1   109.7800468 425.094400
   2936   2935   2937     1   108.4600466 328.025600
   2937   2935   5871     1   109.7800468 425.094400
   2940   2941   2942     1   108.0100461 406.684800
   2940   2941   2943     1   108.0100461 406.684800
   2940   2944   2945     1   108.0100461 406.684800
   2940   2944   2946     1   108.0100461 406.684800
   2940   2947   2948     1   108.0100461 406.684800
   2940   2947   2949     1   108.0100461 406.684800
   2941   2940   2969     1   110.1100470 384.091200
   2941   2953   2954     1   109.8000471 387.438400
   2941   2953   2955     1   109.8000471 387.438400
   2942   2941   2953     1   110.5600475 386.601600
   2942   2941   2943     1   109.7500473 328.025600
   2943   2941   2953     1   110.5600475 386.601600
   2944   2940   2969     1   110.1100470 384.091200
   2944   2956   2957     1   109.8000471 387.438400
   2944   2956   2958     1   109.8000471 387.438400
   2945   2944   2956     1   110.5600475 386.601600
   2945   2944   2946     1   109.7500473 328.025600
   2946   2944   2956     1   110.5600475 386.601600
   2947   2940   2969     1   110.1100470 384.091200
   2947   2950   2951     1   109.8000471 387.438400
   2947   2950   2952     1   109.8000471 387.438400
   2948   2947   2950     1   110.5600475 386.601600
   2948   2947   2949     1   109.7500473 328.025600
   2949   2947   2950     1   110.5600475 386.601600
   2950   2959   2960     1   109.5600471 388.275200
   2950   2959   2961     1   109.5600471 388.275200
   2951   2950   2959     1   109.8000471 387.438400
   2951   2950   2952     1   107.5800459 329.699200
   2952   2950   2959     1   109.8000471 387.438400
   2953   2965   2966     1   109.5600471 388.275200
   2953   2965   2967     1   109.5600471 388.275200
   2954   2953   2965     1   109.8000471 387.438400
   2954   2953   2955     1   107.5800459 329.699200
   2955   2953   2965     1   109.8000471 387.438400
   2956   2962   2963     1   109.5600471 388.275200
   2956   2962   2964     1   109.5600471 388.275200
   2957   2956   2962     1   109.8000471 387.438400
   2957   2956   2958     1   107.5800459 329.699200
   2958   2956   2962     1   109.8000471 387.438400
   2960   2959   2968     1   109.7800468 425.094400
   2960   2959   2961     1   108.4600466 328.025600
   2961   2959   2968     1   109.7800468 425.094400
   2963   2962   5894     1   109.7800468 425.094400
   2963   2962   2964     1   108.4600466 328.025600
   2964   2962   5894     1   109.7800468 425.094400
   2966   2965   5917     1   109.7800468 425.094400
   2966   2965   2967     1   108.4600466 328.025600
   2967   2965   5917     1   109.7800468 425.094400
   2970   2971   2972     1   108.0100461 406.684800
   2970   2971   2973     1   108.0100461 406.684800
   2970   2974   2975     1   108.0100461 406.684800
   2970   2974   2976     1   108.0100461 406.684800
   2970   2977   2978     1   108.0100461 406.684800
   2970   2977   2979     1   108.0100461 406.684800
   2971   2970   2999     1   110.1100470 384.091200
   2971   2983   2984     1   109.8000471 387.438400
   2971   2983   2985     1   109.8000471 387.438400
   2972   2971   2983     1   110.5600475 386.601600
   2972   2971   2973     1   109.7500473 328.025600
   2973   2971   2983     1   110.5600475 386.601600
   2974   2970   2999     1   110.1100470 384.091200
   2974   2986   2987     1   109.8000471 387.438400
   2974   2986   2988     1   109.8000471 387.438400
   2975   2974   2986     1   110.5600475 386.601600
   2975   2974   2976     1   109.7500473 328.025600
   2976   2974   2986     1   110.5600475 386.601600
   2977   2970   2999     1   110.1100470 384.091200
   2977   2980   2981     1   109.8000471 387.438400
   2977   2980   2982     1   109.8000471 387.438400
   2978   2977   2980     1   110.5600475 386.601600
   2978   2977   2979     1   109.7500473 328.025600
   2979   2977   2980     1   110.5600475 386.601600
   2980   2989   2990     1   109.5600471 388.275200
   2980   2989   2991     1   109.5600471 388.275200
   2981   2980   2989     1   109.8000471 387.438400
   2981   2980   2982     1   107.5800459 329.699200
   2982   2980   2989     1   109.8000471 387.438400
   2983   2995   2996     1   109.5600471 388.275200
   2983   2995   2997     1   109.5600471 388.275200
   2984   2983   2995     1   109.8000471 387.438400
   2984   2983   2985     1   107.5800459 329.699200
   2985   2983   2995     1   109.8000471 387.438400
   2986   2992   2993     1   109.5600471 388.275200
   2986   2992   2994     1   109.5600471 388.275200
   2987   2986   2992     1   109.8000471 387.438400
   2987   2986   2988     1   107.5800459 329.699200
   2988   2986   2992     1   109.8000471 387.438400
   2990   2989   2998     1   109.7800468 425.094400
   2990   2989   2991     1   108.4600466 328.025600
   2991   2989   2998     1   109.7800468 425.094400
   2993   2992   5940     1   109.7800468 425.094400
   2993   2992   2994     1   108.4600466 328.025600
   2994   2992   5940     1   109.7800468 425.094400
   2996   2995   5963     1   109.7800468 425.094400
   2996   2995   2997     1   108.4600466 328.025600
   2997   2995   5963     1   109.7800468 425.094400
   3000   3001   3002     1   108.0100461 406.684800
   3000   3001   3003     1   108.0100461 406.684800
   3000   3004   3005     1   108.0100461 406.684800
   3000   3004   3006     1   108.0100461 406.684800
   3000   3007   3008     1   108.0100461 406.684800
   3000   3007   3009     1   108.0100461 406.684800
   3001   3000   3029     1   110.1100470 384.091200
   3001   3013   3014     1   109.8000471 387.438400
   3001   3013   3015     1   109.8000471 387.438400
   3002   3001   3013     1   110.5600475 386.601600
   3002   3001   3003     1   109.7500473 328.025600
   3003   3001   3013     1   110.5600475 386.601600
   3004   3000   3029     1   110.1100470 384.091200
   3004   3016   3017     1   109.8000471 387.438400
   3004   3016   3018     1   109.8000471 387.438400
   3005   3004   3016     1   110.5600475 386.601600
   3005   3004   3006     1   109.7500473 328.025600
   3006   3004   3016     1   110.5600475 386.601600
   3007   3000   3029     1   110.1100470 384.091200
   3007   3010   3011     1   109.8000471 387.438400
   3007   3010   3012     1   109.8000471 387.438400
   3008   3007   3010     1   110.5600475 386.601600
   3008   3007   3009     1   109.7500473 328.025600
   3009   3007   3010     1   110.5600475 386.601600
   3010   3019   3020     1   109.5600471 388.275200
   3010   3019   3021     1   109.5600471 388.275200
   3011   3010   3019     1   109.8000471 387.438400
   3011   3010   3012     1   107.5800459 329.699200
   3012   3010   3019     1   109.8000471 387.438400
   3013   3025   3026     1   109.5600471 388.275200
   3013   3025   3027     1   109.5600471 388.275200
   3014   3013   3025     1   109.8000471 387.438400
   3014   3013   3015     1   107.5800459 329.699200
   3015   3013   3025     1   109.8000471 387.438400
   3016   3022   3023     1   109.5600471 388.275200
   3016   3022   3024     1   109.5600471 388.275200
   3017   3016   3022     1   109.8000471 387.438400
   3017   3016   3018     1   107.5800459 329.699200
   3018   3016   3022     1   109.8000471 387.438400
   3020   3019   3028     1   109.7800468 425.094400
   3020   3019   3021     1   108.4600466 328.025600
   3021   3019   3028     1   109.7800468 425.094400
   3023   3022   5986     1   109.7800468 425.094400
   3023   3022   3024     1   108.4600466 328.025600
   3024   3022   5986     1   109.7800468 425.094400
   3026   3025   6009     1   109.7800468 425.094400
   3026   3025   3027     1   108.4600466 328.025600
   3027   3025   6009     1   109.7800468 425.094400
   3030   3031   3032     1   108.0100461 406.684800
   3030   3031   3033     1   108.0100461 406.684800
   3030   3034   3035     1   108.0100461 406.684800
   3030   3034   3036     1   108.0100461 406.684800
   3030   3037   3038     1   108.0100461 406.684800
   3030   3037   3039     1   108.0100461 406.684800
   3031   3030   3059     1   110.1100470 384.091200
   3031   3043   3044     1   109.8000471 387.438400
   3031   3043   3045     1   109.8000471 387.438400
   3032   3031   3043     1   110.5600475 386.601600
   3032   3031   3033     1   109.7500473 328.025600
   3033   3031   3043     1   110.5600475 386.601600
   3034   3030   3059     1   110.1100470 384.091200
   3034   3046   3047     1   109.8000471 387.438400
   3034   3046   3048     1   109.8000471 387.438400
   3035   3034   3046     1   110.5600475 386.601600
   3035   3034   3036     1   109.7500473 328.025600
   3036   3034   3046     1   110.5600475 386.601600
   3037   3030   3059     1   110.1100470 384.091200
   3037   3040   3041     1   109.8000471 387.438400
   3037   3040   3042     1   109.8000471 387.438400
   3038   3037   3040     1   110.5600475 386.601600
   3038   3037   3039     1   109.7500473 328.025600
   3039   3037   3040     1   110.5600475 386.601600
   3040   3049   3050     1   109.5600471 388.275200
   3040   3049   3051     1   109.5600471 388.275200
   3041   3040   3049     1   109.8000471 387.438400
   3041   3040   3042     1   107.5800459 329.699200
   3042   3040   3049     1   109.8000471 387.438400
   3043   3055   3056     1   109.5600471 388.275200
   3043   3055   3057     1   109.5600471 388.275200
   3044   3043   3055     1   109.8000471 387.438400
   3044   3043   3045     1   107.5800459 329.699200
   3045   3043   3055     1   109.8000471 387.438400
   3046   3052   3053     1   109.5600471 388.275200
   3046   3052   3054     1   109.5600471 388.275200
   3047   3046   3052     1   109.8000471 387.438400
   3047   3046   3048     1   107.5800459 329.699200
   3048   3046   3052     1   109.8000471 387.438400
   3050   3049   3058     1   109.7800468 425.094400
   3050   3049   3051     1   108.4600466 328.025600
   3051   3049   3058     1   109.7800468 425.094400
   3053   3052   6032     1   109.7800468 425.094400
   3053   3052   3054     1   108.4600466 328.025600
   3054   3052   6032     1   109.7800468 425.094400
   3056   3055   6055     1   109.7800468 425.094400
   3056   3055   3057     1   108.4600466 328.025600
   3057   3055   6055     1   109.7800468 425.094400
   3060   3061   3062     1   108.0100461 406.684800
   3060   3061   3063     1   108.0100461 406.684800
   3060   3064   3065     1   108.0100461 406.684800
   3060   3064   3066     1   108.0100461 406.684800
   3060   3067   3068     1   108.0100461 406.684800
   3060   3067   3069     1   108.0100461 406.684800
   3061   3060   3089     1   110.1100470 384.091200
   3061   3073   3074     1   109.8000471 387.438400
   3061   3073   3075     1   109.8000471 387.438400
   3062   3061   3073     1   110.5600475 386.601600
   3062   3061   3063     1   109.7500473 328.025600
   3063   3061   3073     1   110.5600475 386.601600
   3064   3060   3089     1   110.1100470 384.091200
   3064   3076   3077     1   109.8000471 387.438400
   3064   3076   3078     1   109.8000471 387.438400
   3065   3064   3076     1   110.5600475 386.601600
   3065   3064   3066     1   109.7500473 328.025600
   3066   3064   3076     1   110.5600475 386.601600
   3067   3060   3089     1   110.1100470 384.091200
   3067   3070   3071     1   109.8000471 387.438400
   3067   3070   3072     1   109.8000471 387.438400
   3068   3067   3070     1   110.5600475 386.601600
   3068   3067   3069     1   109.7500473 328.025600
   3069   3067   3070     1   110.5600475 386.601600
   3070   3079   3080     1   109.5600471 388.275200
   3070   3079   3081     1   109.5600471 388.275200
   3071   3070   3079     1   109.8000471 387.438400
   3071   3070   3072     1   107.5800459 329.699200
   3072   3070   3079     1   109.8000471 387.438400
   3073   3085   3086     1   109.5600471 388.275200
   3073   3085   3087     1   109.5600471 388.275200
   3074   3073   3085     1   109.8000471 387.438400
   3074   3073   3075     1   107.5800459 329.699200
   3075   3073   3085     1   109.8000471 387.438400
   3076   3082   3083     1   109.5600471 388.275200
   3076   3082   3084     1   109.5600471 388.275200
   3077   3076   3082     1   109.8000471 387.438400
   3077   3076   3078     1   107.5800459 329.699200
   3078   3076   3082     1   109.8000471 387.438400
   3080   3079   3088     1   109.7800468 425.094400
   3080   3079   3081     1   108.4600466 328.025600
   3081   3079   3088     1   109.7800468 425.094400
   3083   3082   6078     1   109.7800468 425.094400
   3083   3082   3084     1   108.4600466 328.025600
   3084   3082   6078     1   109.7800468 425.094400
   3086   3085   6101     1   109.7800468 425.094400
   3086   3085   3087     1   108.4600466 328.025600
   3087   3085   6101     1   109.7800468 425.094400
   3090   3091   3092     1   108.0100461 406.684800
   3090   3091   3093     1   108.0100461 406.684800
   3090   3094   3095     1   108.0100461 406.684800
   3090   3094   3096     1   108.0100461 406.684800
   3090   3097   3098     1   108.0100461 406.684800
   3090   3097   3099     1   108.0100461 406.684800
   3091   3090   3119     1   110.1100470 384.091200
   3091   3103   3104     1   109.8000471 387.438400
   3091   3103   3105     1   109.8000471 387.438400
   3092   3091   3103     1   110.5600475 386.601600
   3092   3091   3093     1   109.7500473 328.025600
   3093   3091   3103     1   110.5600475 386.601600
   3094   3090   3119     1   110.1100470 384.091200
   3094   3106   3107     1   109.8000471 387.438400
   3094   3106   3108     1   109.8000471 387.438400
   3095   3094   3106     1   110.5600475 386.601600
   3095   3094   3096     1   109.7500473 328.025600
   3096   3094   3106     1   110.5600475 386.601600
   3097   3090   3119     1   110.1100470 384.091200
   3097   3100   3101     1   109.8000471 387.438400
   3097   3100   3102     1   109.8000471 387.438400
   3098   3097   3100     1   110.5600475 386.601600
   3098   3097   3099     1   109.7500473 328.025600
   3099   3097   3100     1   110.5600475 386.601600
   3100   3109   3110     1   109.5600471 388.275200
   3100   3109   3111     1   109.5600471 388.275200
   3101   3100   3109     1   109.8000471 387.438400
   3101   3100   3102     1   107.5800459 329.699200
   3102   3100   3109     1   109.8000471 387.438400
   3103   3115   3116     1   109.5600471 388.275200
   3103   3115   3117     1   109.5600471 388.275200
   3104   3103   3115     1   109.8000471 387.438400
   3104   3103   3105     1   107.5800459 329.699200
   3105   3103   3115     1   109.8000471 387.438400
   3106   3112   3113     1   109.5600471 388.275200
   3106   3112   3114     1   109.5600471 388.275200
   3107   3106   3112     1   109.8000471 387.438400
   3107   3106   3108     1   107.5800459 329.699200
   3108   3106   3112     1   109.8000471 387.438400
   3110   3109   3118     1   109.7800468 425.094400
   3110   3109   3111     1   108.4600466 328.025600
   3111   3109   3118     1   109.7800468 425.094400
   3113   3112   6124     1   109.7800468 425.094400
   3113   3112   3114     1   108.4600466 328.025600
   3114   3112   6124     1   109.7800468 425.094400
   3116   3115   6147     1   109.7800468 425.094400
   3116   3115   3117     1   108.4600466 328.025600
   3117   3115   6147     1   109.7800468 425.094400
   3120   3121   3122     1   108.0100461 406.684800
   3120   3121   3123     1   108.0100461 406.684800
   3120   3124   3125     1   108.0100461 406.684800
   3120   3124   3126     1   108.0100461 406.684800
   3120   3127   3128     1   108.0100461 406.684800
   3120   3127   3129     1   108.0100461 406.684800
   3121   3120   3149     1   110.1100470 384.091200
   3121   3133   3134     1   109.8000471 387.438400
   3121   3133   3135     1   109.8000471 387.438400
   3122   3121   3133     1   110.5600475 386.601600
   3122   3121   3123     1   109.7500473 328.025600
   3123   3121   3133     1   110.5600475 386.601600
   3124   3120   3149     1   110.1100470 384.091200
   3124   3136   3137     1   109.8000471 387.438400
   3124   3136   3138     1   109.8000471 387.438400
   3125   3124   3136     1   110.5600475 386.601600
   3125   3124   3126     1   109.7500473 328.025600
   3126   3124   3136     1   110.5600475 386.601600
   3127   3120   3149     1   110.1100470 384.091200
   3127   3130   3131     1   109.8000471 387.438400
   3127   3130   3132     1   109.8000471 387.438400
   3128   3127   3130     1   110.5600475 386.601600
   3128   3127   3129     1   109.7500473 328.025600
   3129   3127   3130     1   110.5600475 386.601600
   3130   3139   3140     1   109.5600471 388.275200
   3130   3139   3141     1   109.5600471 388.275200
   3131   3130   3139     1   109.8000471 387.438400
   3131   3130   3132     1   107.5800459 329.699200
   3132   3130   3139     1   109.8000471 387.438400
   3133   3145   3146     1   109.5600471 388.275200
   3133   3145   3147     1   109.5600471 388.275200
   3134   3133   3145     1   109.8000471 387.438400
   3134   3133   3135     1   107.5800459 329.699200
   3135   3133   3145     1   109.8000471 387.438400
   3136   3142   3143     1   109.5600471 388.275200
   3136   3142   3144     1   109.5600471 388.275200
   3137   3136   3142     1   109.8000471 387.438400
   3137   3136   3138     1   107.5800459 329.699200
   3138   3136   3142     1   109.8000471 387.438400
   3140   3139   3148     1   109.7800468 425.094400
   3140   3139   3141     1   108.4600466 328.025600
   3141   3139   3148     1   109.7800468 425.094400
   3143   3142   6170     1   109.7800468 425.094400
   3143   3142   3144     1   108.4600466 328.025600
   3144   3142   6170     1   109.7800468 425.094400
   3146   3145   6193     1   109.7800468 425.094400
   3146   3145   3147     1   108.4600466 328.025600
   3147   3145   6193     1   109.7800468 425.094400
   3150   3151   3152     1   108.0100461 406.684800
   3150   3151   3153     1   108.0100461 406.684800
   3150   3154   3155     1   108.0100461 406.684800
   3150   3154   3156     1   108.0100461 406.684800
   3150   3157   3158     1   108.0100461 406.684800
   3150   3157   3159     1   108.0100461 406.684800
   3151   3150   3179     1   110.1100470 384.091200
   3151   3163   3164     1   109.8000471 387.438400
   3151   3163   3165     1   109.8000471 387.438400
   3152   3151   3163     1   110.5600475 386.601600
   3152   3151   3153     1   109.7500473 328.025600
   3153   3151   3163     1   110.5600475 386.601600
   3154   3150   3179     1   110.1100470 384.091200
   3154   3166   3167     1   109.8000471 387.438400
   3154   3166   3168     1   109.8000471 387.438400
   3155   3154   3166     1   110.5600475 386.601600
   3155   3154   3156     1   109.7500473 328.025600
   3156   3154   3166     1   110.5600475 386.601600
   3157   3150   3179     1   110.1100470 384.091200
   3157   3160   3161     1   109.8000471 387.438400
   3157   3160   3162     1   109.8000471 387.438400
   3158   3157   3160     1   110.5600475 386.601600
   3158   3157   3159     1   109.7500473 328.025600
   3159   3157   3160     1   110.5600475 386.601600
   3160   3169   3170     1   109.5600471 388.275200
   3160   3169   3171     1   109.5600471 388.275200
   3161   3160   3169     1   109.8000471 387.438400
   3161   3160   3162     1   107.5800459 329.699200
   3162   3160   3169     1   109.8000471 387.438400
   3163   3175   3176     1   109.5600471 388.275200
   3163   3175   3177     1   109.5600471 388.275200
   3164   3163   3175     1   109.8000471 387.438400
   3164   3163   3165     1   107.5800459 329.699200
   3165   3163   3175     1   109.8000471 387.438400
   3166   3172   3173     1   109.5600471 388.275200
   3166   3172   3174     1   109.5600471 388.275200
   3167   3166   3172     1   109.8000471 387.438400
   3167   3166   3168     1   107.5800459 329.699200
   3168   3166   3172     1   109.8000471 387.438400
   3170   3169   3178     1   109.7800468 425.094400
   3170   3169   3171     1   108.4600466 328.025600
   3171   3169   3178     1   109.7800468 425.094400
   3173   3172   6216     1   109.7800468 425.094400
   3173   3172   3174     1   108.4600466 328.025600
   3174   3172   6216     1   109.7800468 425.094400
   3176   3175   6239     1   109.7800468 425.094400
   3176   3175   3177     1   108.4600466 328.025600
   3177   3175   6239     1   109.7800468 425.094400
   3180   3181   3182     1   108.0100461 406.684800
   3180   3181   3183     1   108.0100461 406.684800
   3180   3184   3185     1   108.0100461 406.684800
   3180   3184   3186     1   108.0100461 406.684800
   3180   3187   3188     1   108.0100461 406.684800
   3180   3187   3189     1   108.0100461 406.684800
   3181   3180   3209     1   110.1100470 384.091200
   3181   3193   3194     1   109.8000471 387.438400
   3181   3193   3195     1   109.8000471 387.438400
   3182   3181   3193     1   110.5600475 386.601600
   3182   3181   3183     1   109.7500473 328.025600
   3183   3181   3193     1   110.5600475 386.601600
   3184   3180   3209     1   110.1100470 384.091200
   3184   3196   3197     1   109.8000471 387.438400
   3184   3196   3198     1   109.8000471 387.438400
   3185   3184   3196     1   110.5600475 386.601600
   3185   3184   3186     1   109.7500473 328.025600
   3186   3184   3196     1   110.5600475 386.601600
   3187   3180   3209     1   110.1100470 384.091200
   3187   3190   3191     1   109.8000471 387.438400
   3187   3190   3192     1   109.8000471 387.438400
   3188   3187   3190     1   110.5600475 386.601600
   3188   3187   3189     1   109.7500473 328.025600
   3189   3187   3190     1   110.5600475 386.601600
   3190   3199   3200     1   109.5600471 388.275200
   3190   3199   3201     1   109.5600471 388.275200
   3191   3190   3199     1   109.8000471 387.438400
   3191   3190   3192     1   107.5800459 329.699200
   3192   3190   3199     1   109.8000471 387.438400
   3193   3205   3206     1   109.5600471 388.275200
   3193   3205   3207     1   109.5600471 388.275200
   3194   3193   3205     1   109.8000471 387.438400
   3194   3193   3195     1   107.5800459 329.699200
   3195   3193   3205     1   109.8000471 387.438400
   3196   3202   3203     1   109.5600471 388.275200
   3196   3202   3204     1   109.5600471 388.275200
   3197   3196   3202     1   109.8000471 387.438400
   3197   3196   3198     1   107.5800459 329.699200
   3198   3196   3202     1   109.8000471 387.438400
   3200   3199   3208     1   109.7800468 425.094400
   3200   3199   3201     1   108.4600466 328.025600
   3201   3199   3208     1   109.7800468 425.094400
   3203   3202   6262     1   109.7800468 425.094400
   3203   3202   3204     1   108.4600466 328.025600
   3204   3202   6262     1   109.7800468 425.094400
   3206   3205   6285     1   109.7800468 425.094400
   3206   3205   3207     1   108.4600466 328.025600
   3207   3205   6285     1   109.7800468 425.094400
   3210   3211   3212     1   108.0100461 406.684800
   3210   3211   3213     1   108.0100461 406.684800
   3210   3214   3215     1   108.0100461 406.684800
   3210   3214   3216     1   108.0100461 406.684800
   3210   3217   3218     1   108.0100461 406.684800
   3210   3217   3219     1   108.0100461 406.684800
   3211   3210   3239     1   110.1100470 384.091200
   3211   3223   3224     1   109.8000471 387.438400
   3211   3223   3225     1   109.8000471 387.438400
   3212   3211   3223     1   110.5600475 386.601600
   3212   3211   3213     1   109.7500473 328.025600
   3213   3211   3223     1   110.5600475 386.601600
   3214   3210   3239     1   110.1100470 384.091200
   3214   3226   3227     1   109.8000471 387.438400
   3214   3226   3228     1   109.8000471 387.438400
   3215   3214   3226     1   110.5600475 386.601600
   3215   3214   3216     1   109.7500473 328.025600
   3216   3214   3226     1   110.5600475 386.601600
   3217   3210   3239     1   110.1100470 384.091200
   3217   3220   3221     1   109.8000471 387.438400
   3217   3220   3222     1   109.8000471 387.438400
   3218   3217   3220     1   110.5600475 386.601600
   3218   3217   3219     1   109.7500473 328.025600
   3219   3217   3220     1   110.5600475 386.601600
   3220   3229   3230     1   109.5600471 388.275200
   3220   3229   3231     1   109.5600471 388.275200
   3221   3220   3229     1   109.8000471 387.438400
   3221   3220   3222     1   107.5800459 329.699200
   3222   3220   3229     1   109.8000471 387.438400
   3223   3235   3236     1   109.5600471 388.275200
   3223   3235   3237     1   109.5600471 388.275200
   3224   3223   3235     1   109.8000471 387.438400
   3224   3223   3225     1   107.5800459 329.699200
   3225   3223   3235     1   109.8000471 387.438400
   3226   3232   3233     1   109.5600471 388.275200
   3226   3232   3234     1   109.5600471 388.275200
   3227   3226   3232     1   109.8000471 387.438400
   3227   3226   3228     1   107.5800459 329.699200
   3228   3226   3232     1   109.8000471 387.438400
   3230   3229   3238     1   109.7800468 425.094400
   3230   3229   3231     1   108.4600466 328.025600
   3231   3229   3238     1   109.7800468 425.094400
   3233   3232   6308     1   109.7800468 425.094400
   3233   3232   3234     1   108.4600466 328.025600
   3234   3232   6308     1   109.7800468 425.094400
   3236   3235   6331     1   109.7800468 425.094400
   3236   3235   3237     1   108.4600466 328.025600
   3237   3235   6331     1   109.7800468 425.094400
   3240   3241   3242     1   108.0100461 406.684800
   3240   3241   3243     1   108.0100461 406.684800
   3240   3244   3245     1   108.0100461 406.684800
   3240   3244   3246     1   108.0100461 406.684800
   3240   3247   3248     1   108.0100461 406.684800
   3240   3247   3249     1   108.0100461 406.684800
   3241   3240   3269     1   110.1100470 384.091200
   3241   3253   3254     1   109.8000471 387.438400
   3241   3253   3255     1   109.8000471 387.438400
   3242   3241   3253     1   110.5600475 386.601600
   3242   3241   3243     1   109.7500473 328.025600
   3243   3241   3253     1   110.5600475 386.601600
   3244   3240   3269     1   110.1100470 384.091200
   3244   3256   3257     1   109.8000471 387.438400
   3244   3256   3258     1   109.8000471 387.438400
   3245   3244   3256     1   110.5600475 386.601600
   3245   3244   3246     1   109.7500473 328.025600
   3246   3244   3256     1   110.5600475 386.601600
   3247   3240   3269     1   110.1100470 384.091200
   3247   3250   3251     1   109.8000471 387.438400
   3247   3250   3252     1   109.8000471 387.438400
   3248   3247   3250     1   110.5600475 386.601600
   3248   3247   3249     1   109.7500473 328.025600
   3249   3247   3250     1   110.5600475 386.601600
   3250   3259   3260     1   109.5600471 388.275200
   3250   3259   3261     1   109.5600471 388.275200
   3251   3250   3259     1   109.8000471 387.438400
   3251   3250   3252     1   107.5800459 329.699200
   3252   3250   3259     1   109.8000471 387.438400
   3253   3265   3266     1   109.5600471 388.275200
   3253   3265   3267     1   109.5600471 388.275200
   3254   3253   3265     1   109.8000471 387.438400
   3254   3253   3255     1   107.5800459 329.699200
   3255   3253   3265     1   109.8000471 387.438400
   3256   3262   3263     1   109.5600471 388.275200
   3256   3262   3264     1   109.5600471 388.275200
   3257   3256   3262     1   109.8000471 387.438400
   3257   3256   3258     1   107.5800459 329.699200
   3258   3256   3262     1   109.8000471 387.438400
   3260   3259   3268     1   109.7800468 425.094400
   3260   3259   3261     1   108.4600466 328.025600
   3261   3259   3268     1   109.7800468 425.094400
   3263   3262   6354     1   109.7800468 425.094400
   3263   3262   3264     1   108.4600466 328.025600
   3264   3262   6354     1   109.7800468 425.094400
   3266   3265   6377     1   109.7800468 425.094400
   3266   3265   3267     1   108.4600466 328.025600
   3267   3265   6377     1   109.7800468 425.094400
   3270   3271   3272     1   108.0100461 406.684800
   3270   3271   3273     1   108.0100461 406.684800
   3270   3274   3275     1   108.0100461 406.684800
   3270   3274   3276     1   108.0100461 406.684800
   3270   3277   3278     1   108.0100461 406.684800
   3270   3277   3279     1   108.0100461 406.684800
   3271   3270   3299     1   110.1100470 384.091200
   3271   3283   3284     1   109.8000471 387.438400
   3271   3283   3285     1   109.8000471 387.438400
   3272   3271   3283     1   110.5600475 386.601600
   3272   3271   3273     1   109.7500473 328.025600
   3273   3271   3283     1   110.5600475 386.601600
   3274   3270   3299     1   110.1100470 384.091200
   3274   3286   3287     1   109.8000471 387.438400
   3274   3286   3288     1   109.8000471 387.438400
   3275   3274   3286     1   110.5600475 386.601600
   3275   3274   3276     1   109.7500473 328.025600
   3276   3274   3286     1   110.5600475 386.601600
   3277   3270   3299     1   110.1100470 384.091200
   3277   3280   3281     1   109.8000471 387.438400
   3277   3280   3282     1   109.8000471 387.438400
   3278   3277   3280     1   110.5600475 386.601600
   3278   3277   3279     1   109.7500473 328.025600
   3279   3277   3280     1   110.5600475 386.601600
   3280   3289   3290     1   109.5600471 388.275200
   3280   3289   3291     1   109.5600471 388.275200
   3281   3280   3289     1   109.8000471 387.438400
   3281   3280   3282     1   107.5800459 329.699200
   3282   3280   3289     1   109.8000471 387.438400
   3283   3295   3296     1   109.5600471 388.275200
   3283   3295   3297     1   109.5600471 388.275200
   3284   3283   3295     1   109.8000471 387.438400
   3284   3283   3285     1   107.5800459 329.699200
   3285   3283   3295     1   109.8000471 387.438400
   3286   3292   3293     1   109.5600471 388.275200
   3286   3292   3294     1   109.5600471 388.275200
   3287   3286   3292     1   109.8000471 387.438400
   3287   3286   3288     1   107.5800459 329.699200
   3288   3286   3292     1   109.8000471 387.438400
   3290   3289   3298     1   109.7800468 425.094400
   3290   3289   3291     1   108.4600466 328.025600
   3291   3289   3298     1   109.7800468 425.094400
   3293   3292   6400     1   109.7800468 425.094400
   3293   3292   3294     1   108.4600466 328.025600
   3294   3292   6400     1   109.7800468 425.094400
   3296   3295   6423     1   109.7800468 425.094400
   3296   3295   3297     1   108.4600466 328.025600
   3297   3295   6423     1   109.7800468 425.094400
   3300   3301   3302     1   108.0100461 406.684800
   3300   3301   3303     1   108.0100461 406.684800
   3300   3304   3305     1   108.0100461 406.684800
   3300   3304   3306     1   108.0100461 406.684800
   3300   3307   3308     1   108.0100461 406.684800
   3300   3307   3309     1   108.0100461 406.684800
   3301   3300   3329     1   110.1100470 384.091200
   3301   3313   3314     1   109.8000471 387.438400
   3301   3313   3315     1   109.8000471 387.438400
   3302   3301   3313     1   110.5600475 386.601600
   3302   3301   3303     1   109.7500473 328.025600
   3303   3301   3313     1   110.5600475 386.601600
   3304   3300   3329     1   110.1100470 384.091200
   3304   3316   3317     1   109.8000471 387.438400
   3304   3316   3318     1   109.8000471 387.438400
   3305   3304   3316     1   110.5600475 386.601600
   3305   3304   3306     1   109.7500473 328.025600
   3306   3304   3316     1   110.5600475 386.601600
   3307   3300   3329     1   110.1100470 384.091200
   3307   3310   3311     1   109.8000471 387.438400
   3307   3310   3312     1   109.8000471 387.438400
   3308   3307   3310     1   110.5600475 386.601600
   3308   3307   3309     1   109.7500473 328.025600
   3309   3307   3310     1   110.5600475 386.601600
   3310   3319   3320     1   109.5600471 388.275200
   3310   3319   3321     1   109.5600471 388.275200
   3311   3310   3319     1   109.8000471 387.438400
   3311   3310   3312     1   107.5800459 329.699200
   3312   3310   3319     1   109.8000471 387.438400
   3313   3325   3326     1   109.5600471 388.275200
   3313   3325   3327     1   109.5600471 388.275200
   3314   3313   3325     1   109.8000471 387.438400
   3314   3313   3315     1   107.5800459 329.699200
   3315   3313   3325     1   109.8000471 387.438400
   3316   3322   3323     1   109.5600471 388.275200
   3316   3322   3324     1   109.5600471 388.275200
   3317   3316   3322     1   109.8000471 387.438400
   3317   3316   3318     1   107.5800459 329.699200
   3318   3316   3322     1   109.8000471 387.438400
   3320   3319   3328     1   109.7800468 425.094400
   3320   3319   3321     1   108.4600466 328.025600
   3321   3319   3328     1   109.7800468 425.094400
   3323   3322   6446     1   109.7800468 425.094400
   3323   3322   3324     1   108.4600466 328.025600
   3324   3322   6446     1   109.7800468 425.094400
   3326   3325   6469     1   109.7800468 425.094400
   3326   3325   3327     1   108.4600466 328.025600
   3327   3325   6469     1   109.7800468 425.094400
   3330   3331   3332     1   108.0100461 406.684800
   3330   3331   3333     1   108.0100461 406.684800
   3330   3334   3335     1   108.0100461 406.684800
   3330   3334   3336     1   108.0100461 406.684800
   3330   3337   3338     1   108.0100461 406.684800
   3330   3337   3339     1   108.0100461 406.684800
   3331   3330   3359     1   110.1100470 384.091200
   3331   3343   3344     1   109.8000471 387.438400
   3331   3343   3345     1   109.8000471 387.438400
   3332   3331   3343     1   110.5600475 386.601600
   3332   3331   3333     1   109.7500473 328.025600
   3333   3331   3343     1   110.5600475 386.601600
   3334   3330   3359     1   110.1100470 384.091200
   3334   3346   3347     1   109.8000471 387.438400
   3334   3346   3348     1   109.8000471 387.438400
   3335   3334   3346     1   110.5600475 386.601600
   3335   3334   3336     1   109.7500473 328.025600
   3336   3334   3346     1   110.5600475 386.601600
   3337   3330   3359     1   110.1100470 384.091200
   3337   3340   3341     1   109.8000471 387.438400
   3337   3340   3342     1   109.8000471 387.438400
   3338   3337   3340     1   110.5600475 386.601600
   3338   3337   3339     1   109.7500473 328.025600
   3339   3337   3340     1   110.5600475 386.601600
   3340   3349   3350     1   109.5600471 388.275200
   3340   3349   3351     1   109.5600471 388.275200
   3341   3340   3349     1   109.8000471 387.438400
   3341   3340   3342     1   107.5800459 329.699200
   3342   3340   3349     1   109.8000471 387.438400
   3343   3355   3356     1   109.5600471 388.275200
   3343   3355   3357     1   109.5600471 388.275200
   3344   3343   3355     1   109.8000471 387.438400
   3344   3343   3345     1   107.5800459 329.699200
   3345   3343   3355     1   109.8000471 387.438400
   3346   3352   3353     1   109.5600471 388.275200
   3346   3352   3354     1   109.5600471 388.275200
   3347   3346   3352     1   109.8000471 387.438400
   3347   3346   3348     1   107.5800459 329.699200
   3348   3346   3352     1   109.8000471 387.438400
   3350   3349   3358     1   109.7800468 425.094400
   3350   3349   3351     1   108.4600466 328.025600
   3351   3349   3358     1   109.7800468 425.094400
   3353   3352   6492     1   109.7800468 425.094400
   3353   3352   3354     1   108.4600466 328.025600
   3354   3352   6492     1   109.7800468 425.094400
   3356   3355   6515     1   109.7800468 425.094400
   3356   3355   3357     1   108.4600466 328.025600
   3357   3355   6515     1   109.7800468 425.094400
   3360   3361   3362     1   108.0100461 406.684800
   3360   3361   3363     1   108.0100461 406.684800
   3360   3364   3365     1   108.0100461 406.684800
   3360   3364   3366     1   108.0100461 406.684800
   3360   3367   3368     1   108.0100461 406.684800
   3360   3367   3369     1   108.0100461 406.684800
   3361   3360   3389     1   110.1100470 384.091200
   3361   3373   3374     1   109.8000471 387.438400
   3361   3373   3375     1   109.8000471 387.438400
   3362   3361   3373     1   110.5600475 386.601600
   3362   3361   3363     1   109.7500473 328.025600
   3363   3361   3373     1   110.5600475 386.601600
   3364   3360   3389     1   110.1100470 384.091200
   3364   3376   3377     1   109.8000471 387.438400
   3364   3376   3378     1   109.8000471 387.438400
   3365   3364   3376     1   110.5600475 386.601600
   3365   3364   3366     1   109.7500473 328.025600
   3366   3364   3376     1   110.5600475 386.601600
   3367   3360   3389     1   110.1100470 384.091200
   3367   3370   3371     1   109.8000471 387.438400
   3367   3370   3372     1   109.8000471 387.438400
   3368   3367   3370     1   110.5600475 386.601600
   3368   3367   3369     1   109.7500473 328.025600
   3369   3367   3370     1   110.5600475 386.601600
   3370   3379   3380     1   109.5600471 388.275200
   3370   3379   3381     1   109.5600471 388.275200
   3371   3370   3379     1   109.8000471 387.438400
   3371   3370   3372     1   107.5800459 329.699200
   3372   3370   3379     1   109.8000471 387.438400
   3373   3385   3386     1   109.5600471 388.275200
   3373   3385   3387     1   109.5600471 388.275200
   3374   3373   3385     1   109.8000471 387.438400
   3374   3373   3375     1   107.5800459 329.699200
   3375   3373   3385     1   109.8000471 387.438400
   3376   3382   3383     1   109.5600471 388.275200
   3376   3382   3384     1   109.5600471 388.275200
   3377   3376   3382     1   109.8000471 387.438400
   3377   3376   3378     1   107.5800459 329.699200
   3378   3376   3382     1   109.8000471 387.438400
   3380   3379   3388     1   109.7800468 425.094400
   3380   3379   3381     1   108.4600466 328.025600
   3381   3379   3388     1   109.7800468 425.094400
   3383   3382   6538     1   109.7800468 425.094400
   3383   3382   3384     1   108.4600466 328.025600
   3384   3382   6538     1   109.7800468 425.094400
   3386   3385   6561     1   109.7800468 425.094400
   3386   3385   3387     1   108.4600466 328.025600
   3387   3385   6561     1   109.7800468 425.094400
   3390   3391   3392     1   108.0100461 406.684800
   3390   3391   3393     1   108.0100461 406.684800
   3390   3394   3395     1   108.0100461 406.684800
   3390   3394   3396     1   108.0100461 406.684800
   3390   3397   3398     1   108.0100461 406.684800
   3390   3397   3399     1   108.0100461 406.684800
   3391   3390   3419     1   110.1100470 384.091200
   3391   3403   3404     1   109.8000471 387.438400
   3391   3403   3405     1   109.8000471 387.438400
   3392   3391   3403     1   110.5600475 386.601600
   3392   3391   3393     1   109.7500473 328.025600
   3393   3391   3403     1   110.5600475 386.601600
   3394   3390   3419     1   110.1100470 384.091200
   3394   3406   3407     1   109.8000471 387.438400
   3394   3406   3408     1   109.8000471 387.438400
   3395   3394   3406     1   110.5600475 386.601600
   3395   3394   3396     1   109.7500473 328.025600
   3396   3394   3406     1   110.5600475 386.601600
   3397   3390   3419     1   110.1100470 384.091200
   3397   3400   3401     1   109.8000471 387.438400
   3397   3400   3402     1   109.8000471 387.438400
   3398   3397   3400     1   110.5600475 386.601600
   3398   3397   3399     1   109.7500473 328.025600
   3399   3397   3400     1   110.5600475 386.601600
   3400   3409   3410     1   109.5600471 388.275200
   3400   3409   3411     1   109.5600471 388.275200
   3401   3400   3409     1   109.8000471 387.438400
   3401   3400   3402     1   107.5800459 329.699200
   3402   3400   3409     1   109.8000471 387.438400
   3403   3415   3416     1   109.5600471 388.275200
   3403   3415   3417     1   109.5600471 388.275200
   3404   3403   3415     1   109.8000471 387.438400
   3404   3403   3405     1   107.5800459 329.699200
   3405   3403   3415     1   109.8000471 387.438400
   3406   3412   3413     1   109.5600471 388.275200
   3406   3412   3414     1   109.5600471 388.275200
   3407   3406   3412     1   109.8000471 387.438400
   3407   3406   3408     1   107.5800459 329.699200
   3408   3406   3412     1   109.8000471 387.438400
   3410   3409   3418     1   109.7800468 425.094400
   3410   3409   3411     1   108.4600466 328.025600
   3411   3409   3418     1   109.7800468 425.094400
   3413   3412   6584     1   109.7800468 425.094400
   3413   3412   3414     1   108.4600466 328.025600
   3414   3412   6584     1   109.7800468 425.094400
   3416   3415   6607     1   109.7800468 425.094400
   3416   3415   3417     1   108.4600466 328.025600
   3417   3415   6607     1   109.7800468 425.094400
   3420   3421   3422     1   108.0100461 406.684800
   3420   3421   3423     1   108.0100461 406.684800
   3420   3424   3425     1   108.0100461 406.684800
   3420   3424   3426     1   108.0100461 406.684800
   3420   3427   3428     1   108.0100461 406.684800
   3420   3427   3429     1   108.0100461 406.684800
   3421   3420   3449     1   110.1100470 384.091200
   3421   3433   3434     1   109.8000471 387.438400
   3421   3433   3435     1   109.8000471 387.438400
   3422   3421   3433     1   110.5600475 386.601600
   3422   3421   3423     1   109.7500473 328.025600
   3423   3421   3433     1   110.5600475 386.601600
   3424   3420   3449     1   110.1100470 384.091200
   3424   3436   3437     1   109.8000471 387.438400
   3424   3436   3438     1   109.8000471 387.438400
   3425   3424   3436     1   110.5600475 386.601600
   3425   3424   3426     1   109.7500473 328.025600
   3426   3424   3436     1   110.5600475 386.601600
   3427   3420   3449     1   110.1100470 384.091200
   3427   3430   3431     1   109.8000471 387.438400
   3427   3430   3432     1   109.8000471 387.438400
   3428   3427   3430     1   110.5600475 386.601600
   3428   3427   3429     1   109.7500473 328.025600
   3429   3427   3430     1   110.5600475 386.601600
   3430   3439   3440     1   109.5600471 388.275200
   3430   3439   3441     1   109.5600471 388.275200
   3431   3430   3439     1   109.8000471 387.438400
   3431   3430   3432     1   107.5800459 329.699200
   3432   3430   3439     1   109.8000471 387.438400
   3433   3445   3446     1   109.5600471 388.275200
   3433   3445   3447     1   109.5600471 388.275200
   3434   3433   3445     1   109.8000471 387.438400
   3434   3433   3435     1   107.5800459 329.699200
   3435   3433   3445     1   109.8000471 387.438400
   3436   3442   3443     1   109.5600471 388.275200
   3436   3442   3444     1   109.5600471 388.275200
   3437   3436   3442     1   109.8000471 387.438400
   3437   3436   3438     1   107.5800459 329.699200
   3438   3436   3442     1   109.8000471 387.438400
   3440   3439   3448     1   109.7800468 425.094400
   3440   3439   3441     1   108.4600466 328.025600
   3441   3439   3448     1   109.7800468 425.094400
   3443   3442   6630     1   109.7800468 425.094400
   3443   3442   3444     1   108.4600466 328.025600
   3444   3442   6630     1   109.7800468 425.094400
   3446   3445   6653     1   109.7800468 425.094400
   3446   3445   3447     1   108.4600466 328.025600
   3447   3445   6653     1   109.7800468 425.094400
   3450   3451   3452     1   108.0100461 406.684800
   3450   3451   3453     1   108.0100461 406.684800
   3450   3454   3455     1   108.0100461 406.684800
   3450   3454   3456     1   108.0100461 406.684800
   3450   3457   3458     1   108.0100461 406.684800
   3450   3457   3459     1   108.0100461 406.684800
   3451   3450   3479     1   110.1100470 384.091200
   3451   3463   3464     1   109.8000471 387.438400
   3451   3463   3465     1   109.8000471 387.438400
   3452   3451   3463     1   110.5600475 386.601600
   3452   3451   3453     1   109.7500473 328.025600
   3453   3451   3463     1   110.5600475 386.601600
   3454   3450   3479     1   110.1100470 384.091200
   3454   3466   3467     1   109.8000471 387.438400
   3454   3466   3468     1   109.8000471 387.438400
   3455   3454   3466     1   110.5600475 386.601600
   3455   3454   3456     1   109.7500473 328.025600
   3456   3454   3466     1   110.5600475 386.601600
   3457   3450   3479     1   110.1100470 384.091200
   3457   3460   3461     1   109.8000471 387.438400
   3457   3460   3462     1   109.8000471 387.438400
   3458   3457   3460     1   110.5600475 386.601600
   3458   3457   3459     1   109.7500473 328.025600
   3459   3457   3460     1   110.5600475 386.601600
   3460   3469   3470     1   109.5600471 388.275200
   3460   3469   3471     1   109.5600471 388.275200
   3461   3460   3469     1   109.8000471 387.438400
   3461   3460   3462     1   107.5800459 329.699200
   3462   3460   3469     1   109.8000471 387.438400
   3463   3475   3476     1   109.5600471 388.275200
   3463   3475   3477     1   109.5600471 388.275200
   3464   3463   3475     1   109.8000471 387.438400
   3464   3463   3465     1   107.5800459 329.699200
   3465   3463   3475     1   109.8000471 387.438400
   3466   3472   3473     1   109.5600471 388.275200
   3466   3472   3474     1   109.5600471 388.275200
   3467   3466   3472     1   109.8000471 387.438400
   3467   3466   3468     1   107.5800459 329.699200
   3468   3466   3472     1   109.8000471 387.438400
   3470   3469   3478     1   109.7800468 425.094400
   3470   3469   3471     1   108.4600466 328.025600
   3471   3469   3478     1   109.7800468 425.094400
   3473   3472   6676     1   109.7800468 425.094400
   3473   3472   3474     1   108.4600466 328.025600
   3474   3472   6676     1   109.7800468 425.094400
   3476   3475   6699     1   109.7800468 425.094400
   3476   3475   3477     1   108.4600466 328.025600
   3477   3475   6699     1   109.7800468 425.094400
   3480   3481   3482     1   108.0100461 406.684800
   3480   3481   3483     1   108.0100461 406.684800
   3480   3484   3485     1   108.0100461 406.684800
   3480   3484   3486     1   108.0100461 406.684800
   3480   3487   3488     1   108.0100461 406.684800
   3480   3487   3489     1   108.0100461 406.684800
   3481   3480   3509     1   110.1100470 384.091200
   3481   3493   3494     1   109.8000471 387.438400
   3481   3493   3495     1   109.8000471 387.438400
   3482   3481   3493     1   110.5600475 386.601600
   3482   3481   3483     1   109.7500473 328.025600
   3483   3481   3493     1   110.5600475 386.601600
   3484   3480   3509     1   110.1100470 384.091200
   3484   3496   3497     1   109.8000471 387.438400
   3484   3496   3498     1   109.8000471 387.438400
   3485   3484   3496     1   110.5600475 386.601600
   3485   3484   3486     1   109.7500473 328.025600
   3486   3484   3496     1   110.5600475 386.601600
   3487   3480   3509     1   110.1100470 384.091200
   3487   3490   3491     1   109.8000471 387.438400
   3487   3490   3492     1   109.8000471 387.438400
   3488   3487   3490     1   110.5600475 386.601600
   3488   3487   3489     1   109.7500473 328.025600
   3489   3487   3490     1   110.5600475 386.601600
   3490   3499   3500     1   109.5600471 388.275200
   3490   3499   3501     1   109.5600471 388.275200
   3491   3490   3499     1   109.8000471 387.438400
   3491   3490   3492     1   107.5800459 329.699200
   3492   3490   3499     1   109.8000471 387.438400
   3493   3505   3506     1   109.5600471 388.275200
   3493   3505   3507     1   109.5600471 388.275200
   3494   3493   3505     1   109.8000471 387.438400
   3494   3493   3495     1   107.5800459 329.699200
   3495   3493   3505     1   109.8000471 387.438400
   3496   3502   3503     1   109.5600471 388.275200
   3496   3502   3504     1   109.5600471 388.275200
   3497   3496   3502     1   109.8000471 387.438400
   3497   3496   3498     1   107.5800459 329.699200
   3498   3496   3502     1   109.8000471 387.438400
   3500   3499   3508     1   109.7800468 425.094400
   3500   3499   3501     1   108.4600466 328.025600
   3501   3499   3508     1   109.7800468 425.094400
   3503   3502   6722     1   109.7800468 425.094400
   3503   3502   3504     1   108.4600466 328.025600
   3504   3502   6722     1   109.7800468 425.094400
   3506   3505   6745     1   109.7800468 425.094400
   3506   3505   3507     1   108.4600466 328.025600
   3507   3505   6745     1   109.7800468 425.094400
   3510   3511   3512     1   108.0100461 406.684800
   3510   3511   3513     1   108.0100461 406.684800
   3510   3514   3515     1   108.0100461 406.684800
   3510   3514   3516     1   108.0100461 406.684800
   3510   3517   3518     1   108.0100461 406.684800
   3510   3517   3519     1   108.0100461 406.684800
   3511   3510   3539     1   110.1100470 384.091200
   3511   3523   3524     1   109.8000471 387.438400
   3511   3523   3525     1   109.8000471 387.438400
   3512   3511   3523     1   110.5600475 386.601600
   3512   3511   3513     1   109.7500473 328.025600
   3513   3511   3523     1   110.5600475 386.601600
   3514   3510   3539     1   110.1100470 384.091200
   3514   3526   3527     1   109.8000471 387.438400
   3514   3526   3528     1   109.8000471 387.438400
   3515   3514   3526     1   110.5600475 386.601600
   3515   3514   3516     1   109.7500473 328.025600
   3516   3514   3526     1   110.5600475 386.601600
   3517   3510   3539     1   110.1100470 384.091200
   3517   3520   3521     1   109.8000471 387.438400
   3517   3520   3522     1   109.8000471 387.438400
   3518   3517   3520     1   110.5600475 386.601600
   3518   3517   3519     1   109.7500473 328.025600
   3519   3517   3520     1   110.5600475 386.601600
   3520   3529   3530     1   109.5600471 388.275200
   3520   3529   3531     1   109.5600471 388.275200
   3521   3520   3529     1   109.8000471 387.438400
   3521   3520   3522     1   107.5800459 329.699200
   3522   3520   3529     1   109.8000471 387.438400
   3523   3535   3536     1   109.5600471 388.275200
   3523   3535   3537     1   109.5600471 388.275200
   3524   3523   3535     1   109.8000471 387.438400
   3524   3523   3525     1   107.5800459 329.699200
   3525   3523   3535     1   109.8000471 387.438400
   3526   3532   3533     1   109.5600471 388.275200
   3526   3532   3534     1   109.5600471 388.275200
   3527   3526   3532     1   109.8000471 387.438400
   3527   3526   3528     1   107.5800459 329.699200
   3528   3526   3532     1   109.8000471 387.438400
   3530   3529   3538     1   109.7800468 425.094400
   3530   3529   3531     1   108.4600466 328.025600
   3531   3529   3538     1   109.7800468 425.094400
   3533   3532   6768     1   109.7800468 425.094400
   3533   3532   3534     1   108.4600466 328.025600
   3534   3532   6768     1   109.7800468 425.094400
   3536   3535   6791     1   109.7800468 425.094400
   3536   3535   3537     1   108.4600466 328.025600
   3537   3535   6791     1   109.7800468 425.094400
   3540   3541   3542     1   108.0100461 406.684800
   3540   3541   3543     1   108.0100461 406.684800
   3540   3544   3545     1   108.0100461 406.684800
   3540   3544   3546     1   108.0100461 406.684800
   3540   3547   3548     1   108.0100461 406.684800
   3540   3547   3549     1   108.0100461 406.684800
   3541   3540   3569     1   110.1100470 384.091200
   3541   3553   3554     1   109.8000471 387.438400
   3541   3553   3555     1   109.8000471 387.438400
   3542   3541   3553     1   110.5600475 386.601600
   3542   3541   3543     1   109.7500473 328.025600
   3543   3541   3553     1   110.5600475 386.601600
   3544   3540   3569     1   110.1100470 384.091200
   3544   3556   3557     1   109.8000471 387.438400
   3544   3556   3558     1   109.8000471 387.438400
   3545   3544   3556     1   110.5600475 386.601600
   3545   3544   3546     1   109.7500473 328.025600
   3546   3544   3556     1   110.5600475 386.601600
   3547   3540   3569     1   110.1100470 384.091200
   3547   3550   3551     1   109.8000471 387.438400
   3547   3550   3552     1   109.8000471 387.438400
   3548   3547   3550     1   110.5600475 386.601600
   3548   3547   3549     1   109.7500473 328.025600
   3549   3547   3550     1   110.5600475 386.601600
   3550   3559   3560     1   109.5600471 388.275200
   3550   3559   3561     1   109.5600471 388.275200
   3551   3550   3559     1   109.8000471 387.438400
   3551   3550   3552     1   107.5800459 329.699200
   3552   3550   3559     1   109.8000471 387.438400
   3553   3565   3566     1   109.5600471 388.275200
   3553   3565   3567     1   109.5600471 388.275200
   3554   3553   3565     1   109.8000471 387.438400
   3554   3553   3555     1   107.5800459 329.699200
   3555   3553   3565     1   109.8000471 387.438400
   3556   3562   3563     1   109.5600471 388.275200
   3556   3562   3564     1   109.5600471 388.275200
   3557   3556   3562     1   109.8000471 387.438400
   3557   3556   3558     1   107.5800459 329.699200
   3558   3556   3562     1   109.8000471 387.438400
   3560   3559   3568     1   109.7800468 425.094400
   3560   3559   3561     1   108.4600466 328.025600
   3561   3559   3568     1   109.7800468 425.094400
   3563   3562   6814     1   109.7800468 425.094400
   3563   3562   3564     1   108.4600466 328.025600
   3564   3562   6814     1   109.7800468 425.094400
   3566   3565   6837     1   109.7800468 425.094400
   3566   3565   3567     1   108.4600466 328.025600
   3567   3565   6837     1   109.7800468 425.094400
   3570   3571   3572     1   108.0100461 406.684800
   3570   3571   3573     1   108.0100461 406.684800
   3570   3574   3575     1   108.0100461 406.684800
   3570   3574   3576     1   108.0100461 406.684800
   3570   3577   3578     1   108.0100461 406.684800
   3570   3577   3579     1   108.0100461 406.684800
   3571   3570   3599     1   110.1100470 384.091200
   3571   3583   3584     1   109.8000471 387.438400
   3571   3583   3585     1   109.8000471 387.438400
   3572   3571   3583     1   110.5600475 386.601600
   3572   3571   3573     1   109.7500473 328.025600
   3573   3571   3583     1   110.5600475 386.601600
   3574   3570   3599     1   110.1100470 384.091200
   3574   3586   3587     1   109.8000471 387.438400
   3574   3586   3588     1   109.8000471 387.438400
   3575   3574   3586     1   110.5600475 386.601600
   3575   3574   3576     1   109.7500473 328.025600
   3576   3574   3586     1   110.5600475 386.601600
   3577   3570   3599     1   110.1100470 384.091200
   3577   3580   3581     1   109.8000471 387.438400
   3577   3580   3582     1   109.8000471 387.438400
   3578   3577   3580     1   110.5600475 386.601600
   3578   3577   3579     1   109.7500473 328.025600
   3579   3577   3580     1   110.5600475 386.601600
   3580   3589   3590     1   109.5600471 388.275200
   3580   3589   3591     1   109.5600471 388.275200
   3581   3580   3589     1   109.8000471 387.438400
   3581   3580   3582     1   107.5800459 329.699200
   3582   3580   3589     1   109.8000471 387.438400
   3583   3595   3596     1   109.5600471 388.275200
   3583   3595   3597     1   109.5600471 388.275200
   3584   3583   3595     1   109.8000471 387.438400
   3584   3583   3585     1   107.5800459 329.699200
   3585   3583   3595     1   109.8000471 387.438400
   3586   3592   3593     1   109.5600471 388.275200
   3586   3592   3594     1   109.5600471 388.275200
   3587   3586   3592     1   109.8000471 387.438400
   3587   3586   3588     1   107.5800459 329.699200
   3588   3586   3592     1   109.8000471 387.438400
   3590   3589   3598     1   109.7800468 425.094400
   3590   3589   3591     1   108.4600466 328.025600
   3591   3589   3598     1   109.7800468 425.094400
   3593   3592   6860     1   109.7800468 425.094400
   3593   3592   3594     1   108.4600466 328.025600
   3594   3592   6860     1   109.7800468 425.094400
   3596   3595   6883     1   109.7800468 425.094400
   3596   3595   3597     1   108.4600466 328.025600
   3597   3595   6883     1   109.7800468 425.094400
   3600   3601   3602     1   108.0100461 406.684800
   3600   3601   3603     1   108.0100461 406.684800
   3600   3604   3605     1   108.0100461 406.684800
   3600   3604   3606     1   108.0100461 406.684800
   3600   3607   3608     1   108.0100461 406.684800
   3600   3607   3609     1   108.0100461 406.684800
   3601   3600   3629     1   110.1100470 384.091200
   3601   3613   3614     1   109.8000471 387.438400
   3601   3613   3615     1   109.8000471 387.438400
   3602   3601   3613     1   110.5600475 386.601600
   3602   3601   3603     1   109.7500473 328.025600
   3603   3601   3613     1   110.5600475 386.601600
   3604   3600   3629     1   110.1100470 384.091200
   3604   3616   3617     1   109.8000471 387.438400
   3604   3616   3618     1   109.8000471 387.438400
   3605   3604   3616     1   110.5600475 386.601600
   3605   3604   3606     1   109.7500473 328.025600
   3606   3604   3616     1   110.5600475 386.601600
   3607   3600   3629     1   110.1100470 384.091200
   3607   3610   3611     1   109.8000471 387.438400
   3607   3610   3612     1   109.8000471 387.438400
   3608   3607   3610     1   110.5600475 386.601600
   3608   3607   3609     1   109.7500473 328.025600
   3609   3607   3610     1   110.5600475 386.601600
   3610   3619   3620     1   109.5600471 388.275200
   3610   3619   3621     1   109.5600471 388.275200
   3611   3610   3619     1   109.8000471 387.438400
   3611   3610   3612     1   107.5800459 329.699200
   3612   3610   3619     1   109.8000471 387.438400
   3613   3625   3626     1   109.5600471 388.275200
   3613   3625   3627     1   109.5600471 388.275200
   3614   3613   3625     1   109.8000471 387.438400
   3614   3613   3615     1   107.5800459 329.699200
   3615   3613   3625     1   109.8000471 387.438400
   3616   3622   3623     1   109.5600471 388.275200
   3616   3622   3624     1   109.5600471 388.275200
   3617   3616   3622     1   109.8000471 387.438400
   3617   3616   3618     1   107.5800459 329.699200
   3618   3616   3622     1   109.8000471 387.438400
   3620   3619   3628     1   109.7800468 425.094400
   3620   3619   3621     1   108.4600466 328.025600
   3621   3619   3628     1   109.7800468 425.094400
   3623   3622   6906     1   109.7800468 425.094400
   3623   3622   3624     1   108.4600466 328.025600
   3624   3622   6906     1   109.7800468 425.094400
   3626   3625   6929     1   109.7800468 425.094400
   3626   3625   3627     1   108.4600466 328.025600
   3627   3625   6929     1   109.7800468 425.094400
   3630   3631   3632     1   108.0100461 406.684800
   3630   3631   3633     1   108.0100461 406.684800
   3630   3634   3635     1   108.0100461 406.684800
   3630   3634   3636     1   108.0100461 406.684800
   3630   3637   3638     1   108.0100461 406.684800
   3630   3637   3639     1   108.0100461 406.684800
   3631   3630   3659     1   110.1100470 384.091200
   3631   3643   3644     1   109.8000471 387.438400
   3631   3643   3645     1   109.8000471 387.438400
   3632   3631   3643     1   110.5600475 386.601600
   3632   3631   3633     1   109.7500473 328.025600
   3633   3631   3643     1   110.5600475 386.601600
   3634   3630   3659     1   110.1100470 384.091200
   3634   3646   3647     1   109.8000471 387.438400
   3634   3646   3648     1   109.8000471 387.438400
   3635   3634   3646     1   110.5600475 386.601600
   3635   3634   3636     1   109.7500473 328.025600
   3636   3634   3646     1   110.5600475 386.601600
   3637   3630   3659     1   110.1100470 384.091200
   3637   3640   3641     1   109.8000471 387.438400
   3637   3640   3642     1   109.8000471 387.438400
   3638   3637   3640     1   110.5600475 386.601600
   3638   3637   3639     1   109.7500473 328.025600
   3639   3637   3640     1   110.5600475 386.601600
   3640   3649   3650     1   109.5600471 388.275200
   3640   3649   3651     1   109.5600471 388.275200
   3641   3640   3649     1   109.8000471 387.438400
   3641   3640   3642     1   107.5800459 329.699200
   3642   3640   3649     1   109.8000471 387.438400
   3643   3655   3656     1   109.5600471 388.275200
   3643   3655   3657     1   109.5600471 388.275200
   3644   3643   3655     1   109.8000471 387.438400
   3644   3643   3645     1   107.5800459 329.699200
   3645   3643   3655     1   109.8000471 387.438400
   3646   3652   3653     1   109.5600471 388.275200
   3646   3652   3654     1   109.5600471 388.275200
   3647   3646   3652     1   109.8000471 387.438400
   3647   3646   3648     1   107.5800459 329.699200
   3648   3646   3652     1   109.8000471 387.438400
   3650   3649   3658     1   109.7800468 425.094400
   3650   3649   3651     1   108.4600466 328.025600
   3651   3649   3658     1   109.7800468 425.094400
   3653   3652   6952     1   109.7800468 425.094400
   3653   3652   3654     1   108.4600466 328.025600
   3654   3652   6952     1   109.7800468 425.094400
   3656   3655   6975     1   109.7800468 425.094400
   3656   3655   3657     1   108.4600466 328.025600
   3657   3655   6975     1   109.7800468 425.094400
   3660   3661   3662     1   108.0100461 406.684800
   3660   3661   3663     1   108.0100461 406.684800
   3660   3664   3665     1   108.0100461 406.684800
   3660   3664   3666     1   108.0100461 406.684800
   3660   3667   3668     1   108.0100461 406.684800
   3660   3667   3669     1   108.0100461 406.684800
   3661   3660   3689     1   110.1100470 384.091200
   3661   3673   3674     1   109.8000471 387.438400
   3661   3673   3675     1   109.8000471 387.438400
   3662   3661   3673     1   110.5600475 386.601600
   3662   3661   3663     1   109.7500473 328.025600
   3663   3661   3673     1   110.5600475 386.601600
   3664   3660   3689     1   110.1100470 384.091200
   3664   3676   3677     1   109.8000471 387.438400
   3664   3676   3678     1   109.8000471 387.438400
   3665   3664   3676     1   110.5600475 386.601600
   3665   3664   3666     1   109.7500473 328.025600
   3666   3664   3676     1   110.5600475 386.601600
   3667   3660   3689     1   110.1100470 384.091200
   3667   3670   3671     1   109.8000471 387.438400
   3667   3670   3672     1   109.8000471 387.438400
   3668   3667   3670     1   110.5600475 386.601600
   3668   3667   3669     1   109.7500473 328.025600
   3669   3667   3670     1   110.5600475 386.601600
   3670   3679   3680     1   109.5600471 388.275200
   3670   3679   3681     1   109.5600471 388.275200
   3671   3670   3679     1   109.8000471 387.438400
   3671   3670   3672     1   107.5800459 329.699200
   3672   3670   3679     1   109.8000471 387.438400
   3673   3685   3686     1   109.5600471 388.275200
   3673   3685   3687     1   109.5600471 388.275200
   3674   3673   3685     1   109.8000471 387.438400
   3674   3673   3675     1   107.5800459 329.699200
   3675   3673   3685     1   109.8000471 387.438400
   3676   3682   3683     1   109.5600471 388.275200
   3676   3682   3684     1   109.5600471 388.275200
   3677   3676   3682     1   109.8000471 387.438400
   3677   3676   3678     1   107.5800459 329.699200
   3678   3676   3682     1   109.8000471 387.438400
   3680   3679   3688     1   109.7800468 425.094400
   3680   3679   3681     1   108.4600466 328.025600
   3681   3679   3688     1   109.7800468 425.094400
   3683   3682   6998     1   109.7800468 425.094400
   3683   3682   3684     1   108.4600466 328.025600
   3684   3682   6998     1   109.7800468 425.094400
   3686   3685   7021     1   109.7800468 425.094400
   3686   3685   3687     1   108.4600466 328.025600
   3687   3685   7021     1   109.7800468 425.094400
   3690   3691   3692     1   108.0100461 406.684800
   3690   3691   3693     1   108.0100461 406.684800
   3690   3694   3695     1   108.0100461 406.684800
   3690   3694   3696     1   108.0100461 406.684800
   3690   3697   3698     1   108.0100461 406.684800
   3690   3697   3699     1   108.0100461 406.684800
   3691   3690   3719     1   110.1100470 384.091200
   3691   3703   3704     1   109.8000471 387.438400
   3691   3703   3705     1   109.8000471 387.438400
   3692   3691   3703     1   110.5600475 386.601600
   3692   3691   3693     1   109.7500473 328.025600
   3693   3691   3703     1   110.5600475 386.601600
   3694   3690   3719     1   110.1100470 384.091200
   3694   3706   3707     1   109.8000471 387.438400
   3694   3706   3708     1   109.8000471 387.438400
   3695   3694   3706     1   110.5600475 386.601600
   3695   3694   3696     1   109.7500473 328.025600
   3696   3694   3706     1   110.5600475 386.601600
   3697   3690   3719     1   110.1100470 384.091200
   3697   3700   3701     1   109.8000471 387.438400
   3697   3700   3702     1   109.8000471 387.438400
   3698   3697   3700     1   110.5600475 386.601600
   3698   3697   3699     1   109.7500473 328.025600
   3699   3697   3700     1   110.5600475 386.601600
   3700   3709   3710     1   109.5600471 388.275200
   3700   3709   3711     1   109.5600471 388.275200
   3701   3700   3709     1   109.8000471 387.438400
   3701   3700   3702     1   107.5800459 329.699200
   3702   3700   3709     1   109.8000471 387.438400
   3703   3715   3716     1   109.5600471 388.275200
   3703   3715   3717     1   109.5600471 388.275200
   3704   3703   3715     1   109.8000471 387.438400
   3704   3703   3705     1   107.5800459 329.699200
   3705   3703   3715     1   109.8000471 387.438400
   3706   3712   3713     1   109.5600471 388.275200
   3706   3712   3714     1   109.5600471 388.275200
   3707   3706   3712     1   109.8000471 387.438400
   3707   3706   3708     1   107.5800459 329.699200
   3708   3706   3712     1   109.8000471 387.438400
   3710   3709   3718     1   109.7800468 425.094400
   3710   3709   3711     1   108.4600466 328.025600
   3711   3709   3718     1   109.7800468 425.094400
   3713   3712   7044     1   109.7800468 425.094400
   3713   3712   3714     1   108.4600466 328.025600
   3714   3712   7044     1   109.7800468 425.094400
   3716   3715   7067     1   109.7800468 425.094400
   3716   3715   3717     1   108.4600466 328.025600
   3717   3715   7067     1   109.7800468 425.094400
   3720   3721   3722     1   108.0100461 406.684800
   3720   3721   3723     1   108.0100461 406.684800
   3720   3724   3725     1   108.0100461 406.684800
   3720   3724   3726     1   108.0100461 406.684800
   3720   3727   3728     1   108.0100461 406.684800
   3720   3727   3729     1   108.0100461 406.684800
   3721   3720   3749     1   110.1100470 384.091200
   3721   3733   3734     1   109.8000471 387.438400
   3721   3733   3735     1   109.8000471 387.438400
   3722   3721   3733     1   110.5600475 386.601600
   3722   3721   3723     1   109.7500473 328.025600
   3723   3721   3733     1   110.5600475 386.601600
   3724   3720   3749     1   110.1100470 384.091200
   3724   3736   3737     1   109.8000471 387.438400
   3724   3736   3738     1   109.8000471 387.438400
   3725   3724   3736     1   110.5600475 386.601600
   3725   3724   3726     1   109.7500473 328.025600
   3726   3724   3736     1   110.5600475 386.601600
   3727   3720   3749     1   110.1100470 384.091200
   3727   3730   3731     1   109.8000471 387.438400
   3727   3730   3732     1   109.8000471 387.438400
   3728   3727   3730     1   110.5600475 386.601600
   3728   3727   3729     1   109.7500473 328.025600
   3729   3727   3730     1   110.5600475 386.601600
   3730   3739   3740     1   109.5600471 388.275200
   3730   3739   3741     1   109.5600471 388.275200
   3731   3730   3739     1   109.8000471 387.438400
   3731   3730   3732     1   107.5800459 329.699200
   3732   3730   3739     1   109.8000471 387.438400
   3733   3745   3746     1   109.5600471 388.275200
   3733   3745   3747     1   109.5600471 388.275200
   3734   3733   3745     1   109.8000471 387.438400
   3734   3733   3735     1   107.5800459 329.699200
   3735   3733   3745     1   109.8000471 387.438400
   3736   3742   3743     1   109.5600471 388.275200
   3736   3742   3744     1   109.5600471 388.275200
   3737   3736   3742     1   109.8000471 387.438400
   3737   3736   3738     1   107.5800459 329.699200
   3738   3736   3742     1   109.8000471 387.438400
   3740   3739   3748     1   109.7800468 425.094400
   3740   3739   3741     1   108.4600466 328.025600
   3741   3739   3748     1   109.7800468 425.094400
   3743   3742   7090     1   109.7800468 425.094400
   3743   3742   3744     1   108.4600466 328.025600
   3744   3742   7090     1   109.7800468 425.094400
   3746   3745   7113     1   109.7800468 425.094400
   3746   3745   3747     1   108.4600466 328.025600
   3747   3745   7113     1   109.7800468 425.094400
   3750   3751   3752     1   108.0100461 406.684800
   3750   3751   3753     1   108.0100461 406.684800
   3750   3754   3755     1   108.0100461 406.684800
   3750   3754   3756     1   108.0100461 406.684800
   3750   3757   3758     1   108.0100461 406.684800
   3750   3757   3759     1   108.0100461 406.684800
   3751   3750   3779     1   110.1100470 384.091200
   3751   3763   3764     1   109.8000471 387.438400
   3751   3763   3765     1   109.8000471 387.438400
   3752   3751   3763     1   110.5600475 386.601600
   3752   3751   3753     1   109.7500473 328.025600
   3753   3751   3763     1   110.5600475 386.601600
   3754   3750   3779     1   110.1100470 384.091200
   3754   3766   3767     1   109.8000471 387.438400
   3754   3766   3768     1   109.8000471 387.438400
   3755   3754   3766     1   110.5600475 386.601600
   3755   3754   3756     1   109.7500473 328.025600
   3756   3754   3766     1   110.5600475 386.601600
   3757   3750   3779     1   110.1100470 384.091200
   3757   3760   3761     1   109.8000471 387.438400
   3757   3760   3762     1   109.8000471 387.438400
   3758   3757   3760     1   110.5600475 386.601600
   3758   3757   3759     1   109.7500473 328.025600
   3759   3757   3760     1   110.5600475 386.601600
   3760   3769   3770     1   109.5600471 388.275200
   3760   3769   3771     1   109.5600471 388.275200
   3761   3760   3769     1   109.8000471 387.438400
   3761   3760   3762     1   107.5800459 329.699200
   3762   3760   3769     1   109.8000471 387.438400
   3763   3775   3776     1   109.5600471 388.275200
   3763   3775   3777     1   109.5600471 388.275200
   3764   3763   3775     1   109.8000471 387.438400
   3764   3763   3765     1   107.5800459 329.699200
   3765   3763   3775     1   109.8000471 387.438400
   3766   3772   3773     1   109.5600471 388.275200
   3766   3772   3774     1   109.5600471 388.275200
   3767   3766   3772     1   109.8000471 387.438400
   3767   3766   3768     1   107.5800459 329.699200
   3768   3766   3772     1   109.8000471 387.438400
   3770   3769   3778     1   109.7800468 425.094400
   3770   3769   3771     1   108.4600466 328.025600
   3771   3769   3778     1   109.7800468 425.094400
   3773   3772   7136     1   109.7800468 425.094400
   3773   3772   3774     1   108.4600466 328.025600
   3774   3772   7136     1   109.7800468 425.094400
   3776   3775   7159     1   109.7800468 425.094400
   3776   3775   3777     1   108.4600466 328.025600
   3777   3775   7159     1   109.7800468 425.094400
   3780   3781   3782     1   108.0100461 406.684800
   3780   3781   3783     1   108.0100461 406.684800
   3780   3784   3785     1   108.0100461 406.684800
   3780   3784   3786     1   108.0100461 406.684800
   3780   3787   3788     1   108.0100461 406.684800
   3780   3787   3789     1   108.0100461 406.684800
   3781   3780   3809     1   110.1100470 384.091200
   3781   3793   3794     1   109.8000471 387.438400
   3781   3793   3795     1   109.8000471 387.438400
   3782   3781   3793     1   110.5600475 386.601600
   3782   3781   3783     1   109.7500473 328.025600
   3783   3781   3793     1   110.5600475 386.601600
   3784   3780   3809     1   110.1100470 384.091200
   3784   3796   3797     1   109.8000471 387.438400
   3784   3796   3798     1   109.8000471 387.438400
   3785   3784   3796     1   110.5600475 386.601600
   3785   3784   3786     1   109.7500473 328.025600
   3786   3784   3796     1   110.5600475 386.601600
   3787   3780   3809     1   110.1100470 384.091200
   3787   3790   3791     1   109.8000471 387.438400
   3787   3790   3792     1   109.8000471 387.438400
   3788   3787   3790     1   110.5600475 386.601600
   3788   3787   3789     1   109.7500473 328.025600
   3789   3787   3790     1   110.5600475 386.601600
   3790   3799   3800     1   109.5600471 388.275200
   3790   3799   3801     1   109.5600471 388.275200
   3791   3790   3799     1   109.8000471 387.438400
   3791   3790   3792     1   107.5800459 329.699200
   3792   3790   3799     1   109.8000471 387.438400
   3793   3805   3806     1   109.5600471 388.275200
   3793   3805   3807     1   109.5600471 388.275200
   3794   3793   3805     1   109.8000471 387.438400
   3794   3793   3795     1   107.5800459 329.699200
   3795   3793   3805     1   109.8000471 387.438400
   3796   3802   3803     1   109.5600471 388.275200
   3796   3802   3804     1   109.5600471 388.275200
   3797   3796   3802     1   109.8000471 387.438400
   3797   3796   3798     1   107.5800459 329.699200
   3798   3796   3802     1   109.8000471 387.438400
   3800   3799   3808     1   109.7800468 425.094400
   3800   3799   3801     1   108.4600466 328.025600
   3801   3799   3808     1   109.7800468 425.094400
   3803   3802   7182     1   109.7800468 425.094400
   3803   3802   3804     1   108.4600466 328.025600
   3804   3802   7182     1   109.7800468 425.094400
   3806   3805   7205     1   109.7800468 425.094400
   3806   3805   3807     1   108.4600466 328.025600
   3807   3805   7205     1   109.7800468 425.094400
   3810   3811   3812     1   108.0100461 406.684800
   3810   3811   3813     1   108.0100461 406.684800
   3810   3814   3815     1   108.0100461 406.684800
   3810   3814   3816     1   108.0100461 406.684800
   3810   3817   3818     1   108.0100461 406.684800
   3810   3817   3819     1   108.0100461 406.684800
   3811   3810   3839     1   110.1100470 384.091200
   3811   3823   3824     1   109.8000471 387.438400
   3811   3823   3825     1   109.8000471 387.438400
   3812   3811   3823     1   110.5600475 386.601600
   3812   3811   3813     1   109.7500473 328.025600
   3813   3811   3823     1   110.5600475 386.601600
   3814   3810   3839     1   110.1100470 384.091200
   3814   3826   3827     1   109.8000471 387.438400
   3814   3826   3828     1   109.8000471 387.438400
   3815   3814   3826     1   110.5600475 386.601600
   3815   3814   3816     1   109.7500473 328.025600
   3816   3814   3826     1   110.5600475 386.601600
   3817   3810   3839     1   110.1100470 384.091200
   3817   3820   3821     1   109.8000471 387.438400
   3817   3820   3822     1   109.8000471 387.438400
   3818   3817   3820     1   110.5600475 386.601600
   3818   3817   3819     1   109.7500473 328.025600
   3819   3817   3820     1   110.5600475 386.601600
   3820   3829   3830     1   109.5600471 388.275200
   3820   3829   3831     1   109.5600471 388.275200
   3821   3820   3829     1   109.8000471 387.438400
   3821   3820   3822     1   107.5800459 329.699200
   3822   3820   3829     1   109.8000471 387.438400
   3823   3835   3836     1   109.5600471 388.275200
   3823   3835   3837     1   109.5600471 388.275200
   3824   3823   3835     1   109.8000471 387.438400
   3824   3823   3825     1   107.5800459 329.699200
   3825   3823   3835     1   109.8000471 387.438400
   3826   3832   3833     1   109.5600471 388.275200
   3826   3832   3834     1   109.5600471 388.275200
   3827   3826   3832     1   109.8000471 387.438400
   3827   3826   3828     1   107.5800459 329.699200
   3828   3826   3832     1   109.8000471 387.438400
   3830   3829   3838     1   109.7800468 425.094400
   3830   3829   3831     1   108.4600466 328.025600
   3831   3829   3838     1   109.7800468 425.094400
   3833   3832   7228     1   109.7800468 425.094400
   3833   3832   3834     1   108.4600466 328.025600
   3834   3832   7228     1   109.7800468 425.094400
   3836   3835   7251     1   109.7800468 425.094400
   3836   3835   3837     1   108.4600466 328.025600
   3837   3835   7251     1   109.7800468 425.094400
   3840   3841   3842     1   108.0100461 406.684800
   3840   3841   3843     1   108.0100461 406.684800
   3840   3844   3845     1   108.0100461 406.684800
   3840   3844   3846     1   108.0100461 406.684800
   3840   3847   3848     1   108.0100461 406.684800
   3840   3847   3849     1   108.0100461 406.684800
   3841   3840   3869     1   110.1100470 384.091200
   3841   3853   3854     1   109.8000471 387.438400
   3841   3853   3855     1   109.8000471 387.438400
   3842   3841   3853     1   110.5600475 386.601600
   3842   3841   3843     1   109.7500473 328.025600
   3843   3841   3853     1   110.5600475 386.601600
   3844   3840   3869     1   110.1100470 384.091200
   3844   3856   3857     1   109.8000471 387.438400
   3844   3856   3858     1   109.8000471 387.438400
   3845   3844   3856     1   110.5600475 386.601600
   3845   3844   3846     1   109.7500473 328.025600
   3846   3844   3856     1   110.5600475 386.601600
   3847   3840   3869     1   110.1100470 384.091200
   3847   3850   3851     1   109.8000471 387.438400
   3847   3850   3852     1   109.8000471 387.438400
   3848   3847   3850     1   110.5600475 386.601600
   3848   3847   3849     1   109.7500473 328.025600
   3849   3847   3850     1   110.5600475 386.601600
   3850   3859   3860     1   109.5600471 388.275200
   3850   3859   3861     1   109.5600471 388.275200
   3851   3850   3859     1   109.8000471 387.438400
   3851   3850   3852     1   107.5800459 329.699200
   3852   3850   3859     1   109.8000471 387.438400
   3853   3865   3866     1   109.5600471 388.275200
   3853   3865   3867     1   109.5600471 388.275200
   3854   3853   3865     1   109.8000471 387.438400
   3854   3853   3855     1   107.5800459 329.699200
   3855   3853   3865     1   109.8000471 387.438400
   3856   3862   3863     1   109.5600471 388.275200
   3856   3862   3864     1   109.5600471 388.275200
   3857   3856   3862     1   109.8000471 387.438400
   3857   3856   3858     1   107.5800459 329.699200
   3858   3856   3862     1   109.8000471 387.438400
   3860   3859   3868     1   109.7800468 425.094400
   3860   3859   3861     1   108.4600466 328.025600
   3861   3859   3868     1   109.7800468 425.094400
   3863   3862   7274     1   109.7800468 425.094400
   3863   3862   3864     1   108.4600466 328.025600
   3864   3862   7274     1   109.7800468 425.094400
   3866   3865   7297     1   109.7800468 425.094400
   3866   3865   3867     1   108.4600466 328.025600
   3867   3865   7297     1   109.7800468 425.094400
   3870   3871   3872     1   108.0100461 406.684800
   3870   3871   3873     1   108.0100461 406.684800
   3870   3874   3875     1   108.0100461 406.684800
   3870   3874   3876     1   108.0100461 406.684800
   3870   3877   3878     1   108.0100461 406.684800
   3870   3877   3879     1   108.0100461 406.684800
   3871   3870   3899     1   110.1100470 384.091200
   3871   3883   3884     1   109.8000471 387.438400
   3871   3883   3885     1   109.8000471 387.438400
   3872   3871   3883     1   110.5600475 386.601600
   3872   3871   3873     1   109.7500473 328.025600
   3873   3871   3883     1   110.5600475 386.601600
   3874   3870   3899     1   110.1100470 384.091200
   3874   3886   3887     1   109.8000471 387.438400
   3874   3886   3888     1   109.8000471 387.438400
   3875   3874   3886     1   110.5600475 386.601600
   3875   3874   3876     1   109.7500473 328.025600
   3876   3874   3886     1   110.5600475 386.601600
   3877   3870   3899     1   110.1100470 384.091200
   3877   3880   3881     1   109.8000471 387.438400
   3877   3880   3882     1   109.8000471 387.438400
   3878   3877   3880     1   110.5600475 386.601600
   3878   3877   3879     1   109.7500473 328.025600
   3879   3877   3880     1   110.5600475 386.601600
   3880   3889   3890     1   109.5600471 388.275200
   3880   3889   3891     1   109.5600471 388.275200
   3881   3880   3889     1   109.8000471 387.438400
   3881   3880   3882     1   107.5800459 329.699200
   3882   3880   3889     1   109.8000471 387.438400
   3883   3895   3896     1   109.5600471 388.275200
   3883   3895   3897     1   109.5600471 388.275200
   3884   3883   3895     1   109.8000471 387.438400
   3884   3883   3885     1   107.5800459 329.699200
   3885   3883   3895     1   109.8000471 387.438400
   3886   3892   3893     1   109.5600471 388.275200
   3886   3892   3894     1   109.5600471 388.275200
   3887   3886   3892     1   109.8000471 387.438400
   3887   3886   3888     1   107.5800459 329.699200
   3888   3886   3892     1   109.8000471 387.438400
   3890   3889   3898     1   109.7800468 425.094400
   3890   3889   3891     1   108.4600466 328.025600
   3891   3889   3898     1   109.7800468 425.094400
   3893   3892   7320     1   109.7800468 425.094400
   3893   3892   3894     1   108.4600466 328.025600
   3894   3892   7320     1   109.7800468 425.094400
   3896   3895   7343     1   109.7800468 425.094400
   3896   3895   3897     1   108.4600466 328.025600
   3897   3895   7343     1   109.7800468 425.094400
   3900   3901   3902     1   108.0100461 406.684800
   3900   3901   3903     1   108.0100461 406.684800
   3900   3904   3905     1   108.0100461 406.684800
   3900   3904   3906     1   108.0100461 406.684800
   3900   3907   3908     1   108.0100461 406.684800
   3900   3907   3909     1   108.0100461 406.684800
   3901   3900   3929     1   110.1100470 384.091200
   3901   3913   3914     1   109.8000471 387.438400
   3901   3913   3915     1   109.8000471 387.438400
   3902   3901   3913     1   110.5600475 386.601600
   3902   3901   3903     1   109.7500473 328.025600
   3903   3901   3913     1   110.5600475 386.601600
   3904   3900   3929     1   110.1100470 384.091200
   3904   3916   3917     1   109.8000471 387.438400
   3904   3916   3918     1   109.8000471 387.438400
   3905   3904   3916     1   110.5600475 386.601600
   3905   3904   3906     1   109.7500473 328.025600
   3906   3904   3916     1   110.5600475 386.601600
   3907   3900   3929     1   110.1100470 384.091200
   3907   3910   3911     1   109.8000471 387.438400
   3907   3910   3912     1   109.8000471 387.438400
   3908   3907   3910     1   110.5600475 386.601600
   3908   3907   3909     1   109.7500473 328.025600
   3909   3907   3910     1   110.5600475 386.601600
   3910   3919   3920     1   109.5600471 388.275200
   3910   3919   3921     1   109.5600471 388.275200
   3911   3910   3919     1   109.8000471 387.438400
   3911   3910   3912     1   107.5800459 329.699200
   3912   3910   3919     1   109.8000471 387.438400
   3913   3925   3926     1   109.5600471 388.275200
   3913   3925   3927     1   109.5600471 388.275200
   3914   3913   3925     1   109.8000471 387.438400
   3914   3913   3915     1   107.5800459 329.699200
   3915   3913   3925     1   109.8000471 387.438400
   3916   3922   3923     1   109.5600471 388.275200
   3916   3922   3924     1   109.5600471 388.275200
   3917   3916   3922     1   109.8000471 387.438400
   3917   3916   3918     1   107.5800459 329.699200
   3918   3916   3922     1   109.8000471 387.438400
   3920   3919   3928     1   109.7800468 425.094400
   3920   3919   3921     1   108.4600466 328.025600
   3921   3919   3928     1   109.7800468 425.094400
   3923   3922   7366     1   109.7800468 425.094400
   3923   3922   3924     1   108.4600466 328.025600
   3924   3922   7366     1   109.7800468 425.094400
   3926   3925   7389     1   109.7800468 425.094400
   3926   3925   3927     1   108.4600466 328.025600
   3927   3925   7389     1   109.7800468 425.094400
   3930   3931   3932     1   108.0100461 406.684800
   3930   3931   3933     1   108.0100461 406.684800
   3930   3934   3935     1   108.0100461 406.684800
   3930   3934   3936     1   108.0100461 406.684800
   3930   3937   3938     1   108.0100461 406.684800
   3930   3937   3939     1   108.0100461 406.684800
   3931   3930   3959     1   110.1100470 384.091200
   3931   3943   3944     1   109.8000471 387.438400
   3931   3943   3945     1   109.8000471 387.438400
   3932   3931   3943     1   110.5600475 386.601600
   3932   3931   3933     1   109.7500473 328.025600
   3933   3931   3943     1   110.5600475 386.601600
   3934   3930   3959     1   110.1100470 384.091200
   3934   3946   3947     1   109.8000471 387.438400
   3934   3946   3948     1   109.8000471 387.438400
   3935   3934   3946     1   110.5600475 386.601600
   3935   3934   3936     1   109.7500473 328.025600
   3936   3934   3946     1   110.5600475 386.601600
   3937   3930   3959     1   110.1100470 384.091200
   3937   3940   3941     1   109.8000471 387.438400
   3937   3940   3942     1   109.8000471 387.438400
   3938   3937   3940     1   110.5600475 386.601600
   3938   3937   3939     1   109.7500473 328.025600
   3939   3937   3940     1   110.5600475 386.601600
   3940   3949   3950     1   109.5600471 388.275200
   3940   3949   3951     1   109.5600471 388.275200
   3941   3940   3949     1   109.8000471 387.438400
   3941   3940   3942     1   107.5800459 329.699200
   3942   3940   3949     1   109.8000471 387.438400
   3943   3955   3956     1   109.5600471 388.275200
   3943   3955   3957     1   109.5600471 388.275200
   3944   3943   3955     1   109.8000471 387.438400
   3944   3943   3945     1   107.5800459 329.699200
   3945   3943   3955     1   109.8000471 387.438400
   3946   3952   3953     1   109.5600471 388.275200
   3946   3952   3954     1   109.5600471 388.275200
   3947   3946   3952     1   109.8000471 387.438400
   3947   3946   3948     1   107.5800459 329.699200
   3948   3946   3952     1   109.8000471 387.438400
   3950   3949   3958     1   109.7800468 425.094400
   3950   3949   3951     1   108.4600466 328.025600
   3951   3949   3958     1   109.7800468 425.094400
   3953   3952   7412     1   109.7800468 425.094400
   3953   3952   3954     1   108.4600466 328.025600
   3954   3952   7412     1   109.7800468 425.094400
   3956   3955   7435     1   109.7800468 425.094400
   3956   3955   3957     1   108.4600466 328.025600
   3957   3955   7435     1   109.7800468 425.094400
   3960   3961   3962     1   108.0100461 406.684800
   3960   3961   3963     1   108.0100461 406.684800
   3960   3964   3965     1   108.0100461 406.684800
   3960   3964   3966     1   108.0100461 406.684800
   3960   3967   3968     1   108.0100461 406.684800
   3960   3967   3969     1   108.0100461 406.684800
   3961   3960   3989     1   110.1100470 384.091200
   3961   3973   3974     1   109.8000471 387.438400
   3961   3973   3975     1   109.8000471 387.438400
   3962   3961   3973     1   110.5600475 386.601600
   3962   3961   3963     1   109.7500473 328.025600
   3963   3961   3973     1   110.5600475 386.601600
   3964   3960   3989     1   110.1100470 384.091200
   3964   3976   3977     1   109.8000471 387.438400
   3964   3976   3978     1   109.8000471 387.438400
   3965   3964   3976     1   110.5600475 386.601600
   3965   3964   3966     1   109.7500473 328.025600
   3966   3964   3976     1   110.5600475 386.601600
   3967   3960   3989     1   110.1100470 384.091200
   3967   3970   3971     1   109.8000471 387.438400
   3967   3970   3972     1   109.8000471 387.438400
   3968   3967   3970     1   110.5600475 386.601600
   3968   3967   3969     1   109.7500473 328.025600
   3969   3967   3970     1   110.5600475 386.601600
   3970   3979   3980     1   109.5600471 388.275200
   3970   3979   3981     1   109.5600471 388.275200
   3971   3970   3979     1   109.8000471 387.438400
   3971   3970   3972     1   107.5800459 329.699200
   3972   3970   3979     1   109.8000471 387.438400
   3973   3985   3986     1   109.5600471 388.275200
   3973   3985   3987     1   109.5600471 388.275200
   3974   3973   3985     1   109.8000471 387.438400
   3974   3973   3975     1   107.5800459 329.699200
   3975   3973   3985     1   109.8000471 387.438400
   3976   3982   3983     1   109.5600471 388.275200
   3976   3982   3984     1   109.5600471 388.275200
   3977   3976   3982     1   109.8000471 387.438400
   3977   3976   3978     1   107.5800459 329.699200
   3978   3976   3982     1   109.8000471 387.438400
   3980   3979   3988     1   109.7800468 425.094400
   3980   3979   3981     1   108.4600466 328.025600
   3981   3979   3988     1   109.7800468 425.094400
   3983   3982   7458     1   109.7800468 425.094400
   3983   3982   3984     1   108.4600466 328.025600
   3984   3982   7458     1   109.7800468 425.094400
   3986   3985   7481     1   109.7800468 425.094400
   3986   3985   3987     1   108.4600466 328.025600
   3987   3985   7481     1   109.7800468 425.094400
   3990   3991   3992     1   108.0100461 406.684800
   3990   3991   3993     1   108.0100461 406.684800
   3990   3994   3995     1   108.0100461 406.684800
   3990   3994   3996     1   108.0100461 406.684800
   3990   3997   3998     1   108.0100461 406.684800
   3990   3997   3999     1   108.0100461 406.684800
   3991   3990   4019     1   110.1100470 384.091200
   3991   4003   4004     1   109.8000471 387.438400
   3991   4003   4005     1   109.8000471 387.438400
   3992   3991   4003     1   110.5600475 386.601600
   3992   3991   3993     1   109.7500473 328.025600
   3993   3991   4003     1   110.5600475 386.601600
   3994   3990   4019     1   110.1100470 384.091200
   3994   4006   4007     1   109.8000471 387.438400
   3994   4006   4008     1   109.8000471 387.438400
   3995   3994   4006     1   110.5600475 386.601600
   3995   3994   3996     1   109.7500473 328.025600
   3996   3994   4006     1   110.5600475 386.601600
   3997   3990   4019     1   110.1100470 384.091200
   3997   4000   4001     1   109.8000471 387.438400
   3997   4000   4002     1   109.8000471 387.438400
   3998   3997   4000     1   110.5600475 386.601600
   3998   3997   3999     1   109.7500473 328.025600
   3999   3997   4000     1   110.5600475 386.601600
   4000   4009   4010     1   109.5600471 388.275200
   4000   4009   4011     1   109.5600471 388.275200
   4001   4000   4009     1   109.8000471 387.438400
   4001   4000   4002     1   107.5800459 329.699200
   4002   4000   4009     1   109.8000471 387.438400
   4003   4015   4016     1   109.5600471 388.275200
   4003   4015   4017     1   109.5600471 388.275200
   4004   4003   4015     1   109.8000471 387.438400
   4004   4003   4005     1   107.5800459 329.699200
   4005   4003   4015     1   109.8000471 387.438400
   4006   4012   4013     1   109.5600471 388.275200
   4006   4012   4014     1   109.5600471 388.275200
   4007   4006   4012     1   109.8000471 387.438400
   4007   4006   4008     1   107.5800459 329.699200
   4008   4006   4012     1   109.8000471 387.438400
   4010   4009   4018     1   109.7800468 425.094400
   4010   4009   4011     1   108.4600466 328.025600
   4011   4009   4018     1   109.7800468 425.094400
   4013   4012   7504     1   109.7800468 425.094400
   4013   4012   4014     1   108.4600466 328.025600
   4014   4012   7504     1   109.7800468 425.094400
   4016   4015   7527     1   109.7800468 425.094400
   4016   4015   4017     1   108.4600466 328.025600
   4017   4015   7527     1   109.7800468 425.094400
   4020   4021   4022     1   108.0100461 406.684800
   4020   4021   4023     1   108.0100461 406.684800
   4020   4024   4025     1   108.0100461 406.684800
   4020   4024   4026     1   108.0100461 406.684800
   4020   4027   4028     1   108.0100461 406.684800
   4020   4027   4029     1   108.0100461 406.684800
   4021   4020   4049     1   110.1100470 384.091200
   4021   4033   4034     1   109.8000471 387.438400
   4021   4033   4035     1   109.8000471 387.438400
   4022   4021   4033     1   110.5600475 386.601600
   4022   4021   4023     1   109.7500473 328.025600
   4023   4021   4033     1   110.5600475 386.601600
   4024   4020   4049     1   110.1100470 384.091200
   4024   4036   4037     1   109.8000471 387.438400
   4024   4036   4038     1   109.8000471 387.438400
   4025   4024   4036     1   110.5600475 386.601600
   4025   4024   4026     1   109.7500473 328.025600
   4026   4024   4036     1   110.5600475 386.601600
   4027   4020   4049     1   110.1100470 384.091200
   4027   4030   4031     1   109.8000471 387.438400
   4027   4030   4032     1   109.8000471 387.438400
   4028   4027   4030     1   110.5600475 386.601600
   4028   4027   4029     1   109.7500473 328.025600
   4029   4027   4030     1   110.5600475 386.601600
   4030   4039   4040     1   109.5600471 388.275200
   4030   4039   4041     1   109.5600471 388.275200
   4031   4030   4039     1   109.8000471 387.438400
   4031   4030   4032     1   107.5800459 329.699200
   4032   4030   4039     1   109.8000471 387.438400
   4033   4045   4046     1   109.5600471 388.275200
   4033   4045   4047     1   109.5600471 388.275200
   4034   4033   4045     1   109.8000471 387.438400
   4034   4033   4035     1   107.5800459 329.699200
   4035   4033   4045     1   109.8000471 387.438400
   4036   4042   4043     1   109.5600471 388.275200
   4036   4042   4044     1   109.5600471 388.275200
   4037   4036   4042     1   109.8000471 387.438400
   4037   4036   4038     1   107.5800459 329.699200
   4038   4036   4042     1   109.8000471 387.438400
   4040   4039   4048     1   109.7800468 425.094400
   4040   4039   4041     1   108.4600466 328.025600
   4041   4039   4048     1   109.7800468 425.094400
   4043   4042   7550     1   109.7800468 425.094400
   4043   4042   4044     1   108.4600466 328.025600
   4044   4042   7550     1   109.7800468 425.094400
   4046   4045   7573     1   109.7800468 425.094400
   4046   4045   4047     1   108.4600466 328.025600
   4047   4045   7573     1   109.7800468 425.094400
   4050   4051   4052     1   108.0100461 406.684800
   4050   4051   4053     1   108.0100461 406.684800
   4050   4054   4055     1   108.0100461 406.684800
   4050   4054   4056     1   108.0100461 406.684800
   4050   4057   4058     1   108.0100461 406.684800
   4050   4057   4059     1   108.0100461 406.684800
   4051   4050   4079     1   110.1100470 384.091200
   4051   4063   4064     1   109.8000471 387.438400
   4051   4063   4065     1   109.8000471 387.438400
   4052   4051   4063     1   110.5600475 386.601600
   4052   4051   4053     1   109.7500473 328.025600
   4053   4051   4063     1   110.5600475 386.601600
   4054   4050   4079     1   110.1100470 384.091200
   4054   4066   4067     1   109.8000471 387.438400
   4054   4066   4068     1   109.8000471 387.438400
   4055   4054   4066     1   110.5600475 386.601600
   4055   4054   4056     1   109.7500473 328.025600
   4056   4054   4066     1   110.5600475 386.601600
   4057   4050   4079     1   110.1100470 384.091200
   4057   4060   4061     1   109.8000471 387.438400
   4057   4060   4062     1   109.8000471 387.438400
   4058   4057   4060     1   110.5600475 386.601600
   4058   4057   4059     1   109.7500473 328.025600
   4059   4057   4060     1   110.5600475 386.601600
   4060   4069   4070     1   109.5600471 388.275200
   4060   4069   4071     1   109.5600471 388.275200
   4061   4060   4069     1   109.8000471 387.438400
   4061   4060   4062     1   107.5800459 329.699200
   4062   4060   4069     1   109.8000471 387.438400
   4063   4075   4076     1   109.5600471 388.275200
   4063   4075   4077     1   109.5600471 388.275200
   4064   4063   4075     1   109.8000471 387.438400
   4064   4063   4065     1   107.5800459 329.699200
   4065   4063   4075     1   109.8000471 387.438400
   4066   4072   4073     1   109.5600471 388.275200
   4066   4072   4074     1   109.5600471 388.275200
   4067   4066   4072     1   109.8000471 387.438400
   4067   4066   4068     1   107.5800459 329.699200
   4068   4066   4072     1   109.8000471 387.438400
   4070   4069   4078     1   109.7800468 425.094400
   4070   4069   4071     1   108.4600466 328.025600
   4071   4069   4078     1   109.7800468 425.094400
   4073   4072   7596     1   109.7800468 425.094400
   4073   4072   4074     1   108.4600466 328.025600
   4074   4072   7596     1   109.7800468 425.094400
   4076   4075   7619     1   109.7800468 425.094400
   4076   4075   4077     1   108.4600466 328.025600
   4077   4075   7619     1   109.7800468 425.094400
   4080   4081   4082     1   108.0100461 406.684800
   4080   4081   4083     1   108.0100461 406.684800
   4080   4084   4085     1   108.0100461 406.684800
   4080   4084   4086     1   108.0100461 406.684800
   4080   4087   4088     1   108.0100461 406.684800
   4080   4087   4089     1   108.0100461 406.684800
   4081   4080   4109     1   110.1100470 384.091200
   4081   4093   4094     1   109.8000471 387.438400
   4081   4093   4095     1   109.8000471 387.438400
   4082   4081   4093     1   110.5600475 386.601600
   4082   4081   4083     1   109.7500473 328.025600
   4083   4081   4093     1   110.5600475 386.601600
   4084   4080   4109     1   110.1100470 384.091200
   4084   4096   4097     1   109.8000471 387.438400
   4084   4096   4098     1   109.8000471 387.438400
   4085   4084   4096     1   110.5600475 386.601600
   4085   4084   4086     1   109.7500473 328.025600
   4086   4084   4096     1   110.5600475 386.601600
   4087   4080   4109     1   110.1100470 384.091200
   4087   4090   4091     1   109.8000471 387.438400
   4087   4090   4092     1   109.8000471 387.438400
   4088   4087   4090     1   110.5600475 386.601600
   4088   4087   4089     1   109.7500473 328.025600
   4089   4087   4090     1   110.5600475 386.601600
   4090   4099   4100     1   109.5600471 388.275200
   4090   4099   4101     1   109.5600471 388.275200
   4091   4090   4099     1   109.8000471 387.438400
   4091   4090   4092     1   107.5800459 329.699200
   4092   4090   4099     1   109.8000471 387.438400
   4093   4105   4106     1   109.5600471 388.275200
   4093   4105   4107     1   109.5600471 388.275200
   4094   4093   4105     1   109.8000471 387.438400
   4094   4093   4095     1   107.5800459 329.699200
   4095   4093   4105     1   109.8000471 387.438400
   4096   4102   4103     1   109.5600471 388.275200
   4096   4102   4104     1   109.5600471 388.275200
   4097   4096   4102     1   109.8000471 387.438400
   4097   4096   4098     1   107.5800459 329.699200
   4098   4096   4102     1   109.8000471 387.438400
   4100   4099   4108     1   109.7800468 425.094400
   4100   4099   4101     1   108.4600466 328.025600
   4101   4099   4108     1   109.7800468 425.094400
   4103   4102   7642     1   109.7800468 425.094400
   4103   4102   4104     1   108.4600466 328.025600
   4104   4102   7642     1   109.7800468 425.094400
   4106   4105   7665     1   109.7800468 425.094400
   4106   4105   4107     1   108.4600466 328.025600
   4107   4105   7665     1   109.7800468 425.094400
   4110   4111   4112     1   108.0100461 406.684800
   4110   4111   4113     1   108.0100461 406.684800
   4110   4114   4115     1   108.0100461 406.684800
   4110   4114   4116     1   108.0100461 406.684800
   4110   4117   4118     1   108.0100461 406.684800
   4110   4117   4119     1   108.0100461 406.684800
   4111   4110   4139     1   110.1100470 384.091200
   4111   4123   4124     1   109.8000471 387.438400
   4111   4123   4125     1   109.8000471 387.438400
   4112   4111   4123     1   110.5600475 386.601600
   4112   4111   4113     1   109.7500473 328.025600
   4113   4111   4123     1   110.5600475 386.601600
   4114   4110   4139     1   110.1100470 384.091200
   4114   4126   4127     1   109.8000471 387.438400
   4114   4126   4128     1   109.8000471 387.438400
   4115   4114   4126     1   110.5600475 386.601600
   4115   4114   4116     1   109.7500473 328.025600
   4116   4114   4126     1   110.5600475 386.601600
   4117   4110   4139     1   110.1100470 384.091200
   4117   4120   4121     1   109.8000471 387.438400
   4117   4120   4122     1   109.8000471 387.438400
   4118   4117   4120     1   110.5600475 386.601600
   4118   4117   4119     1   109.7500473 328.025600
   4119   4117   4120     1   110.5600475 386.601600
   4120   4129   4130     1   109.5600471 388.275200
   4120   4129   4131     1   109.5600471 388.275200
   4121   4120   4129     1   109.8000471 387.438400
   4121   4120   4122     1   107.5800459 329.699200
   4122   4120   4129     1   109.8000471 387.438400
   4123   4135   4136     1   109.5600471 388.275200
   4123   4135   4137     1   109.5600471 388.275200
   4124   4123   4135     1   109.8000471 387.438400
   4124   4123   4125     1   107.5800459 329.699200
   4125   4123   4135     1   109.8000471 387.438400
   4126   4132   4133     1   109.5600471 388.275200
   4126   4132   4134     1   109.5600471 388.275200
   4127   4126   4132     1   109.8000471 387.438400
   4127   4126   4128     1   107.5800459 329.699200
   4128   4126   4132     1   109.8000471 387.438400
   4130   4129   4138     1   109.7800468 425.094400
   4130   4129   4131     1   108.4600466 328.025600
   4131   4129   4138     1   109.7800468 425.094400
   4133   4132   7688     1   109.7800468 425.094400
   4133   4132   4134     1   108.4600466 328.025600
   4134   4132   7688     1   109.7800468 425.094400
   4136   4135   7711     1   109.7800468 425.094400
   4136   4135   4137     1   108.4600466 328.025600
   4137   4135   7711     1   109.7800468 425.094400
   4140   4141   4142     1   108.0100461 406.684800
   4140   4141   4143     1   108.0100461 406.684800
   4140   4144   4145     1   108.0100461 406.684800
   4140   4144   4146     1   108.0100461 406.684800
   4140   4147   4148     1   108.0100461 406.684800
   4140   4147   4149     1   108.0100461 406.684800
   4141   4140   4169     1   110.1100470 384.091200
   4141   4153   4154     1   109.8000471 387.438400
   4141   4153   4155     1   109.8000471 387.438400
   4142   4141   4153     1   110.5600475 386.601600
   4142   4141   4143     1   109.7500473 328.025600
   4143   4141   4153     1   110.5600475 386.601600
   4144   4140   4169     1   110.1100470 384.091200
   4144   4156   4157     1   109.8000471 387.438400
   4144   4156   4158     1   109.8000471 387.438400
   4145   4144   4156     1   110.5600475 386.601600
   4145   4144   4146     1   109.7500473 328.025600
   4146   4144   4156     1   110.5600475 386.601600
   4147   4140   4169     1   110.1100470 384.091200
   4147   4150   4151     1   109.8000471 387.438400
   4147   4150   4152     1   109.8000471 387.438400
   4148   4147   4150     1   110.5600475 386.601600
   4148   4147   4149     1   109.7500473 328.025600
   4149   4147   4150     1   110.5600475 386.601600
   4150   4159   4160     1   109.5600471 388.275200
   4150   4159   4161     1   109.5600471 388.275200
   4151   4150   4159     1   109.8000471 387.438400
   4151   4150   4152     1   107.5800459 329.699200
   4152   4150   4159     1   109.8000471 387.438400
   4153   4165   4166     1   109.5600471 388.275200
   4153   4165   4167     1   109.5600471 388.275200
   4154   4153   4165     1   109.8000471 387.438400
   4154   4153   4155     1   107.5800459 329.699200
   4155   4153   4165     1   109.8000471 387.438400
   4156   4162   4163     1   109.5600471 388.275200
   4156   4162   4164     1   109.5600471 388.275200
   4157   4156   4162     1   109.8000471 387.438400
   4157   4156   4158     1   107.5800459 329.699200
   4158   4156   4162     1   109.8000471 387.438400
   4160   4159   4168     1   109.7800468 425.094400
   4160   4159   4161     1   108.4600466 328.025600
   4161   4159   4168     1   109.7800468 425.094400
   4163   4162   7734     1   109.7800468 425.094400
   4163   4162   4164     1   108.4600466 328.025600
   4164   4162   7734     1   109.7800468 425.094400
   4166   4165   7757     1   109.7800468 425.094400
   4166   4165   4167     1   108.4600466 328.025600
   4167   4165   7757     1   109.7800468 425.094400
   4170   4171   4172     1   108.0100461 406.684800
   4170   4171   4173     1   108.0100461 406.684800
   4170   4174   4175     1   108.0100461 406.684800
   4170   4174   4176     1   108.0100461 406.684800
   4170   4177   4178     1   108.0100461 406.684800
   4170   4177   4179     1   108.0100461 406.684800
   4171   4170   4199     1   110.1100470 384.091200
   4171   4183   4184     1   109.8000471 387.438400
   4171   4183   4185     1   109.8000471 387.438400
   4172   4171   4183     1   110.5600475 386.601600
   4172   4171   4173     1   109.7500473 328.025600
   4173   4171   4183     1   110.5600475 386.601600
   4174   4170   4199     1   110.1100470 384.091200
   4174   4186   4187     1   109.8000471 387.438400
   4174   4186   4188     1   109.8000471 387.438400
   4175   4174   4186     1   110.5600475 386.601600
   4175   4174   4176     1   109.7500473 328.025600
   4176   4174   4186     1   110.5600475 386.601600
   4177   4170   4199     1   110.1100470 384.091200
   4177   4180   4181     1   109.8000471 387.438400
   4177   4180   4182     1   109.8000471 387.438400
   4178   4177   4180     1   110.5600475 386.601600
   4178   4177   4179     1   109.7500473 328.025600
   4179   4177   4180     1   110.5600475 386.601600
   4180   4189   4190     1   109.5600471 388.275200
   4180   4189   4191     1   109.5600471 388.275200
   4181   4180   4189     1   109.8000471 387.438400
   4181   4180   4182     1   107.5800459 329.699200
   4182   4180   4189     1   109.8000471 387.438400
   4183   4195   4196     1   109.5600471 388.275200
   4183   4195   4197     1   109.5600471 388.275200
   4184   4183   4195     1   109.8000471 387.438400
   4184   4183   4185     1   107.5800459 329.699200
   4185   4183   4195     1   109.8000471 387.438400
   4186   4192   4193     1   109.5600471 388.275200
   4186   4192   4194     1   109.5600471 388.275200
   4187   4186   4192     1   109.8000471 387.438400
   4187   4186   4188     1   107.5800459 329.699200
   4188   4186   4192     1   109.8000471 387.438400
   4190   4189   4198     1   109.7800468 425.094400
   4190   4189   4191     1   108.4600466 328.025600
   4191   4189   4198     1   109.7800468 425.094400
   4193   4192   7780     1   109.7800468 425.094400
   4193   4192   4194     1   108.4600466 328.025600
   4194   4192   7780     1   109.7800468 425.094400
   4196   4195   7803     1   109.7800468 425.094400
   4196   4195   4197     1   108.4600466 328.025600
   4197   4195   7803     1   109.7800468 425.094400
   4200   4201   4202     1   108.0100461 406.684800
   4200   4201   4203     1   108.0100461 406.684800
   4200   4204   4205     1   108.0100461 406.684800
   4200   4204   4206     1   108.0100461 406.684800
   4200   4207   4208     1   108.0100461 406.684800
   4200   4207   4209     1   108.0100461 406.684800
   4201   4200   4229     1   110.1100470 384.091200
   4201   4213   4214     1   109.8000471 387.438400
   4201   4213   4215     1   109.8000471 387.438400
   4202   4201   4213     1   110.5600475 386.601600
   4202   4201   4203     1   109.7500473 328.025600
   4203   4201   4213     1   110.5600475 386.601600
   4204   4200   4229     1   110.1100470 384.091200
   4204   4216   4217     1   109.8000471 387.438400
   4204   4216   4218     1   109.8000471 387.438400
   4205   4204   4216     1   110.5600475 386.601600
   4205   4204   4206     1   109.7500473 328.025600
   4206   4204   4216     1   110.5600475 386.601600
   4207   4200   4229     1   110.1100470 384.091200
   4207   4210   4211     1   109.8000471 387.438400
   4207   4210   4212     1   109.8000471 387.438400
   4208   4207   4210     1   110.5600475 386.601600
   4208   4207   4209     1   109.7500473 328.025600
   4209   4207   4210     1   110.5600475 386.601600
   4210   4219   4220     1   109.5600471 388.275200
   4210   4219   4221     1   109.5600471 388.275200
   4211   4210   4219     1   109.8000471 387.438400
   4211   4210   4212     1   107.5800459 329.699200
   4212   4210   4219     1   109.8000471 387.438400
   4213   4225   4226     1   109.5600471 388.275200
   4213   4225   4227     1   109.5600471 388.275200
   4214   4213   4225     1   109.8000471 387.438400
   4214   4213   4215     1   107.5800459 329.699200
   4215   4213   4225     1   109.8000471 387.438400
   4216   4222   4223     1   109.5600471 388.275200
   4216   4222   4224     1   109.5600471 388.275200
   4217   4216   4222     1   109.8000471 387.438400
   4217   4216   4218     1   107.5800459 329.699200
   4218   4216   4222     1   109.8000471 387.438400
   4220   4219   4228     1   109.7800468 425.094400
   4220   4219   4221     1   108.4600466 328.025600
   4221   4219   4228     1   109.7800468 425.094400
   4223   4222   7826     1   109.7800468 425.094400
   4223   4222   4224     1   108.4600466 328.025600
   4224   4222   7826     1   109.7800468 425.094400
   4226   4225   7849     1   109.7800468 425.094400
   4226   4225   4227     1   108.4600466 328.025600
   4227   4225   7849     1   109.7800468 425.094400
   4230   4231   4232     1   108.0100461 406.684800
   4230   4231   4233     1   108.0100461 406.684800
   4230   4234   4235     1   108.0100461 406.684800
   4230   4234   4236     1   108.0100461 406.684800
   4230   4237   4238     1   108.0100461 406.684800
   4230   4237   4239     1   108.0100461 406.684800
   4231   4230   4259     1   110.1100470 384.091200
   4231   4243   4244     1   109.8000471 387.438400
   4231   4243   4245     1   109.8000471 387.438400
   4232   4231   4243     1   110.5600475 386.601600
   4232   4231   4233     1   109.7500473 328.025600
   4233   4231   4243     1   110.5600475 386.601600
   4234   4230   4259     1   110.1100470 384.091200
   4234   4246   4247     1   109.8000471 387.438400
   4234   4246   4248     1   109.8000471 387.438400
   4235   4234   4246     1   110.5600475 386.601600
   4235   4234   4236     1   109.7500473 328.025600
   4236   4234   4246     1   110.5600475 386.601600
   4237   4230   4259     1   110.1100470 384.091200
   4237   4240   4241     1   109.8000471 387.438400
   4237   4240   4242     1   109.8000471 387.438400
   4238   4237   4240     1   110.5600475 386.601600
   4238   4237   4239     1   109.7500473 328.025600
   4239   4237   4240     1   110.5600475 386.601600
   4240   4249   4250     1   109.5600471 388.275200
   4240   4249   4251     1   109.5600471 388.275200
   4241   4240   4249     1   109.8000471 387.438400
   4241   4240   4242     1   107.5800459 329.699200
   4242   4240   4249     1   109.8000471 387.438400
   4243   4255   4256     1   109.5600471 388.275200
   4243   4255   4257     1   109.5600471 388.275200
   4244   4243   4255     1   109.8000471 387.438400
   4244   4243   4245     1   107.5800459 329.699200
   4245   4243   4255     1   109.8000471 387.438400
   4246   4252   4253     1   109.5600471 388.275200
   4246   4252   4254     1   109.5600471 388.275200
   4247   4246   4252     1   109.8000471 387.438400
   4247   4246   4248     1   107.5800459 329.699200
   4248   4246   4252     1   109.8000471 387.438400
   4250   4249   4258     1   109.7800468 425.094400
   4250   4249   4251     1   108.4600466 328.025600
   4251   4249   4258     1   109.7800468 425.094400
   4253   4252   7872     1   109.7800468 425.094400
   4253   4252   4254     1   108.4600466 328.025600
   4254   4252   7872     1   109.7800468 425.094400
   4256   4255   7895     1   109.7800468 425.094400
   4256   4255   4257     1   108.4600466 328.025600
   4257   4255   7895     1   109.7800468 425.094400
   4260   4261   4262     1   108.0100461 406.684800
   4260   4261   4263     1   108.0100461 406.684800
   4260   4264   4265     1   108.0100461 406.684800
   4260   4264   4266     1   108.0100461 406.684800
   4260   4267   4268     1   108.0100461 406.684800
   4260   4267   4269     1   108.0100461 406.684800
   4261   4260   4289     1   110.1100470 384.091200
   4261   4273   4274     1   109.8000471 387.438400
   4261   4273   4275     1   109.8000471 387.438400
   4262   4261   4273     1   110.5600475 386.601600
   4262   4261   4263     1   109.7500473 328.025600
   4263   4261   4273     1   110.5600475 386.601600
   4264   4260   4289     1   110.1100470 384.091200
   4264   4276   4277     1   109.8000471 387.438400
   4264   4276   4278     1   109.8000471 387.438400
   4265   4264   4276     1   110.5600475 386.601600
   4265   4264   4266     1   109.7500473 328.025600
   4266   4264   4276     1   110.5600475 386.601600
   4267   4260   4289     1   110.1100470 384.091200
   4267   4270   4271     1   109.8000471 387.438400
   4267   4270   4272     1   109.8000471 387.438400
   4268   4267   4270     1   110.5600475 386.601600
   4268   4267   4269     1   109.7500473 328.025600
   4269   4267   4270     1   110.5600475 386.601600
   4270   4279   4280     1   109.5600471 388.275200
   4270   4279   4281     1   109.5600471 388.275200
   4271   4270   4279     1   109.8000471 387.438400
   4271   4270   4272     1   107.5800459 329.699200
   4272   4270   4279     1   109.8000471 387.438400
   4273   4285   4286     1   109.5600471 388.275200
   4273   4285   4287     1   109.5600471 388.275200
   4274   4273   4285     1   109.8000471 387.438400
   4274   4273   4275     1   107.5800459 329.699200
   4275   4273   4285     1   109.8000471 387.438400
   4276   4282   4283     1   109.5600471 388.275200
   4276   4282   4284     1   109.5600471 388.275200
   4277   4276   4282     1   109.8000471 387.438400
   4277   4276   4278     1   107.5800459 329.699200
   4278   4276   4282     1   109.8000471 387.438400
   4280   4279   4288     1   109.7800468 425.094400
   4280   4279   4281     1   108.4600466 328.025600
   4281   4279   4288     1   109.7800468 425.094400
   4283   4282   7918     1   109.7800468 425.094400
   4283   4282   4284     1   108.4600466 328.025600
   4284   4282   7918     1   109.7800468 425.094400
   4286   4285   7941     1   109.7800468 425.094400
   4286   4285   4287     1   108.4600466 328.025600
   4287   4285   7941     1   109.7800468 425.094400
   4290   4291   4292     1   108.0100461 406.684800
   4290   4291   4293     1   108.0100461 406.684800
   4290   4294   4295     1   108.0100461 406.684800
   4290   4294   4296     1   108.0100461 406.684800
   4290   4297   4298     1   108.0100461 406.684800
   4290   4297   4299     1   108.0100461 406.684800
   4291   4290   4319     1   110.1100470 384.091200
   4291   4303   4304     1   109.8000471 387.438400
   4291   4303   4305     1   109.8000471 387.438400
   4292   4291   4303     1   110.5600475 386.601600
   4292   4291   4293     1   109.7500473 328.025600
   4293   4291   4303     1   110.5600475 386.601600
   4294   4290   4319     1   110.1100470 384.091200
   4294   4306   4307     1   109.8000471 387.438400
   4294   4306   4308     1   109.8000471 387.438400
   4295   4294   4306     1   110.5600475 386.601600
   4295   4294   4296     1   109.7500473 328.025600
   4296   4294   4306     1   110.5600475 386.601600
   4297   4290   4319     1   110.1100470 384.091200
   4297   4300   4301     1   109.8000471 387.438400
   4297   4300   4302     1   109.8000471 387.438400
   4298   4297   4300     1   110.5600475 386.601600
   4298   4297   4299     1   109.7500473 328.025600
   4299   4297   4300     1   110.5600475 386.601600
   4300   4309   4310     1   109.5600471 388.275200
   4300   4309   4311     1   109.5600471 388.275200
   4301   4300   4309     1   109.8000471 387.438400
   4301   4300   4302     1   107.5800459 329.699200
   4302   4300   4309     1   109.8000471 387.438400
   4303   4315   4316     1   109.5600471 388.275200
   4303   4315   4317     1   109.5600471 388.275200
   4304   4303   4315     1   109.8000471 387.438400
   4304   4303   4305     1   107.5800459 329.699200
   4305   4303   4315     1   109.8000471 387.438400
   4306   4312   4313     1   109.5600471 388.275200
   4306   4312   4314     1   109.5600471 388.275200
   4307   4306   4312     1   109.8000471 387.438400
   4307   4306   4308     1   107.5800459 329.699200
   4308   4306   4312     1   109.8000471 387.438400
   4310   4309   4318     1   109.7800468 425.094400
   4310   4309   4311     1   108.4600466 328.025600
   4311   4309   4318     1   109.7800468 425.094400
   4313   4312   7964     1   109.7800468 425.094400
   4313   4312   4314     1   108.4600466 328.025600
   4314   4312   7964     1   109.7800468 425.094400
   4316   4315   7987     1   109.7800468 425.094400
   4316   4315   4317     1   108.4600466 328.025600
   4317   4315   7987     1   109.7800468 425.094400
   4320   4321   4322     1   108.0100461 406.684800
   4320   4321   4323     1   108.0100461 406.684800
   4320   4324   4325     1   108.0100461 406.684800
   4320   4324   4326     1   108.0100461 406.684800
   4320   4327   4328     1   108.0100461 406.684800
   4320   4327   4329     1   108.0100461 406.684800
   4321   4320   4349     1   110.1100470 384.091200
   4321   4333   4334     1   109.8000471 387.438400
   4321   4333   4335     1   109.8000471 387.438400
   4322   4321   4333     1   110.5600475 386.601600
   4322   4321   4323     1   109.7500473 328.025600
   4323   4321   4333     1   110.5600475 386.601600
   4324   4320   4349     1   110.1100470 384.091200
   4324   4336   4337     1   109.8000471 387.438400
   4324   4336   4338     1   109.8000471 387.438400
   4325   4324   4336     1   110.5600475 386.601600
   4325   4324   4326     1   109.7500473 328.025600
   4326   4324   4336     1   110.5600475 386.601600
   4327   4320   4349     1   110.1100470 384.091200
   4327   4330   4331     1   109.8000471 387.438400
   4327   4330   4332     1   109.8000471 387.438400
   4328   4327   4330     1   110.5600475 386.601600
   4328   4327   4329     1   109.7500473 328.025600
   4329   4327   4330     1   110.5600475 386.601600
   4330   4339   4340     1   109.5600471 388.275200
   4330   4339   4341     1   109.5600471 388.275200
   4331   4330   4339     1   109.8000471 387.438400
   4331   4330   4332     1   107.5800459 329.699200
   4332   4330   4339     1   109.8000471 387.438400
   4333   4345   4346     1   109.5600471 388.275200
   4333   4345   4347     1   109.5600471 388.275200
   4334   4333   4345     1   109.8000471 387.438400
   4334   4333   4335     1   107.5800459 329.699200
   4335   4333   4345     1   109.8000471 387.438400
   4336   4342   4343     1   109.5600471 388.275200
   4336   4342   4344     1   109.5600471 388.275200
   4337   4336   4342     1   109.8000471 387.438400
   4337   4336   4338     1   107.5800459 329.699200
   4338   4336   4342     1   109.8000471 387.438400
   4340   4339   4348     1   109.7800468 425.094400
   4340   4339   4341     1   108.4600466 328.025600
   4341   4339   4348     1   109.7800468 425.094400
   4343   4342   8010     1   109.7800468 425.094400
   4343   4342   4344     1   108.4600466 328.025600
   4344   4342   8010     1   109.7800468 425.094400
   4346   4345   8033     1   109.7800468 425.094400
   4346   4345   4347     1   108.4600466 328.025600
   4347   4345   8033     1   109.7800468 425.094400
   4350   4351   4352     1   108.0100461 406.684800
   4350   4351   4353     1   108.0100461 406.684800
   4350   4354   4355     1   108.0100461 406.684800
   4350   4354   4356     1   108.0100461 406.684800
   4350   4357   4358     1   108.0100461 406.684800
   4350   4357   4359     1   108.0100461 406.684800
   4351   4350   4379     1   110.1100470 384.091200
   4351   4363   4364     1   109.8000471 387.438400
   4351   4363   4365     1   109.8000471 387.438400
   4352   4351   4363     1   110.5600475 386.601600
   4352   4351   4353     1   109.7500473 328.025600
   4353   4351   4363     1   110.5600475 386.601600
   4354   4350   4379     1   110.1100470 384.091200
   4354   4366   4367     1   109.8000471 387.438400
   4354   4366   4368     1   109.8000471 387.438400
   4355   4354   4366     1   110.5600475 386.601600
   4355   4354   4356     1   109.7500473 328.025600
   4356   4354   4366     1   110.5600475 386.601600
   4357   4350   4379     1   110.1100470 384.091200
   4357   4360   4361     1   109.8000471 387.438400
   4357   4360   4362     1   109.8000471 387.438400
   4358   4357   4360     1   110.5600475 386.601600
   4358   4357   4359     1   109.7500473 328.025600
   4359   4357   4360     1   110.5600475 386.601600
   4360   4369   4370     1   109.5600471 388.275200
   4360   4369   4371     1   109.5600471 388.275200
   4361   4360   4369     1   109.8000471 387.438400
   4361   4360   4362     1   107.5800459 329.699200
   4362   4360   4369     1   109.8000471 387.438400
   4363   4375   4376     1   109.5600471 388.275200
   4363   4375   4377     1   109.5600471 388.275200
   4364   4363   4375     1   109.8000471 387.438400
   4364   4363   4365     1   107.5800459 329.699200
   4365   4363   4375     1   109.8000471 387.438400
   4366   4372   4373     1   109.5600471 388.275200
   4366   4372   4374     1   109.5600471 388.275200
   4367   4366   4372     1   109.8000471 387.438400
   4367   4366   4368     1   107.5800459 329.699200
   4368   4366   4372     1   109.8000471 387.438400
   4370   4369   4378     1   109.7800468 425.094400
   4370   4369   4371     1   108.4600466 328.025600
   4371   4369   4378     1   109.7800468 425.094400
   4373   4372   8056     1   109.7800468 425.094400
   4373   4372   4374     1   108.4600466 328.025600
   4374   4372   8056     1   109.7800468 425.094400
   4376   4375   8079     1   109.7800468 425.094400
   4376   4375   4377     1   108.4600466 328.025600
   4377   4375   8079     1   109.7800468 425.094400
   4380   4381   4382     1   108.0100461 406.684800
   4380   4381   4383     1   108.0100461 406.684800
   4380   4384   4385     1   108.0100461 406.684800
   4380   4384   4386     1   108.0100461 406.684800
   4380   4387   4388     1   108.0100461 406.684800
   4380   4387   4389     1   108.0100461 406.684800
   4381   4380   4409     1   110.1100470 384.091200
   4381   4393   4394     1   109.8000471 387.438400
   4381   4393   4395     1   109.8000471 387.438400
   4382   4381   4393     1   110.5600475 386.601600
   4382   4381   4383     1   109.7500473 328.025600
   4383   4381   4393     1   110.5600475 386.601600
   4384   4380   4409     1   110.1100470 384.091200
   4384   4396   4397     1   109.8000471 387.438400
   4384   4396   4398     1   109.8000471 387.438400
   4385   4384   4396     1   110.5600475 386.601600
   4385   4384   4386     1   109.7500473 328.025600
   4386   4384   4396     1   110.5600475 386.601600
   4387   4380   4409     1   110.1100470 384.091200
   4387   4390   4391     1   109.8000471 387.438400
   4387   4390   4392     1   109.8000471 387.438400
   4388   4387   4390     1   110.5600475 386.601600
   4388   4387   4389     1   109.7500473 328.025600
   4389   4387   4390     1   110.5600475 386.601600
   4390   4399   4400     1   109.5600471 388.275200
   4390   4399   4401     1   109.5600471 388.275200
   4391   4390   4399     1   109.8000471 387.438400
   4391   4390   4392     1   107.5800459 329.699200
   4392   4390   4399     1   109.8000471 387.438400
   4393   4405   4406     1   109.5600471 388.275200
   4393   4405   4407     1   109.5600471 388.275200
   4394   4393   4405     1   109.8000471 387.438400
   4394   4393   4395     1   107.5800459 329.699200
   4395   4393   4405     1   109.8000471 387.438400
   4396   4402   4403     1   109.5600471 388.275200
   4396   4402   4404     1   109.5600471 388.275200
   4397   4396   4402     1   109.8000471 387.438400
   4397   4396   4398     1   107.5800459 329.699200
   4398   4396   4402     1   109.8000471 387.438400
   4400   4399   4408     1   109.7800468 425.094400
   4400   4399   4401     1   108.4600466 328.025600
   4401   4399   4408     1   109.7800468 425.094400
   4403   4402   8102     1   109.7800468 425.094400
   4403   4402   4404     1   108.4600466 328.025600
   4404   4402   8102     1   109.7800468 425.094400
   4406   4405   8125     1   109.7800468 425.094400
   4406   4405   4407     1   108.4600466 328.025600
   4407   4405   8125     1   109.7800468 425.094400
   4410   4411   4412     1   108.0100461 406.684800
   4410   4411   4413     1   108.0100461 406.684800
   4410   4414   4415     1   108.0100461 406.684800
   4410   4414   4416     1   108.0100461 406.684800
   4410   4417   4418     1   108.0100461 406.684800
   4410   4417   4419     1   108.0100461 406.684800
   4411   4410   4439     1   110.1100470 384.091200
   4411   4423   4424     1   109.8000471 387.438400
   4411   4423   4425     1   109.8000471 387.438400
   4412   4411   4423     1   110.5600475 386.601600
   4412   4411   4413     1   109.7500473 328.025600
   4413   4411   4423     1   110.5600475 386.601600
   4414   4410   4439     1   110.1100470 384.091200
   4414   4426   4427     1   109.8000471 387.438400
   4414   4426   4428     1   109.8000471 387.438400
   4415   4414   4426     1   110.5600475 386.601600
   4415   4414   4416     1   109.7500473 328.025600
   4416   4414   4426     1   110.5600475 386.601600
   4417   4410   4439     1   110.1100470 384.091200
   4417   4420   4421     1   109.8000471 387.438400
   4417   4420   4422     1   109.8000471 387.438400
   4418   4417   4420     1   110.5600475 386.601600
   4418   4417   4419     1   109.7500473 328.025600
   4419   4417   4420     1   110.5600475 386.601600
   4420   4429   4430     1   109.5600471 388.275200
   4420   4429   4431     1   109.5600471 388.275200
   4421   4420   4429     1   109.8000471 387.438400
   4421   4420   4422     1   107.5800459 329.699200
   4422   4420   4429     1   109.8000471 387.438400
   4423   4435   4436     1   109.5600471 388.275200
   4423   4435   4437     1   109.5600471 388.275200
   4424   4423   4435     1   109.8000471 387.438400
   4424   4423   4425     1   107.5800459 329.699200
   4425   4423   4435     1   109.8000471 387.438400
   4426   4432   4433     1   109.5600471 388.275200
   4426   4432   4434     1   109.5600471 388.275200
   4427   4426   4432     1   109.8000471 387.438400
   4427   4426   4428     1   107.5800459 329.699200
   4428   4426   4432     1   109.8000471 387.438400
   4430   4429   4438     1   109.7800468 425.094400
   4430   4429   4431     1   108.4600466 328.025600
   4431   4429   4438     1   109.7800468 425.094400
   4433   4432   8148     1   109.7800468 425.094400
   4433   4432   4434     1   108.4600466 328.025600
   4434   4432   8148     1   109.7800468 425.094400
   4436   4435   8171     1   109.7800468 425.094400
   4436   4435   4437     1   108.4600466 328.025600
   4437   4435   8171     1   109.7800468 425.094400
   4440   4441   4442     1   108.0100461 406.684800
   4440   4441   4443     1   108.0100461 406.684800
   4440   4444   4445     1   108.0100461 406.684800
   4440   4444   4446     1   108.0100461 406.684800
   4440   4447   4448     1   108.0100461 406.684800
   4440   4447   4449     1   108.0100461 406.684800
   4441   4440   4469     1   110.1100470 384.091200
   4441   4453   4454     1   109.8000471 387.438400
   4441   4453   4455     1   109.8000471 387.438400
   4442   4441   4453     1   110.5600475 386.601600
   4442   4441   4443     1   109.7500473 328.025600
   4443   4441   4453     1   110.5600475 386.601600
   4444   4440   4469     1   110.1100470 384.091200
   4444   4456   4457     1   109.8000471 387.438400
   4444   4456   4458     1   109.8000471 387.438400
   4445   4444   4456     1   110.5600475 386.601600
   4445   4444   4446     1   109.7500473 328.025600
   4446   4444   4456     1   110.5600475 386.601600
   4447   4440   4469     1   110.1100470 384.091200
   4447   4450   4451     1   109.8000471 387.438400
   4447   4450   4452     1   109.8000471 387.438400
   4448   4447   4450     1   110.5600475 386.601600
   4448   4447   4449     1   109.7500473 328.025600
   4449   4447   4450     1   110.5600475 386.601600
   4450   4459   4460     1   109.5600471 388.275200
   4450   4459   4461     1   109.5600471 388.275200
   4451   4450   4459     1   109.8000471 387.438400
   4451   4450   4452     1   107.5800459 329.699200
   4452   4450   4459     1   109.8000471 387.438400
   4453   4465   4466     1   109.5600471 388.275200
   4453   4465   4467     1   109.5600471 388.275200
   4454   4453   4465     1   109.8000471 387.438400
   4454   4453   4455     1   107.5800459 329.699200
   4455   4453   4465     1   109.8000471 387.438400
   4456   4462   4463     1   109.5600471 388.275200
   4456   4462   4464     1   109.5600471 388.275200
   4457   4456   4462     1   109.8000471 387.438400
   4457   4456   4458     1   107.5800459 329.699200
   4458   4456   4462     1   109.8000471 387.438400
   4460   4459   4468     1   109.7800468 425.094400
   4460   4459   4461     1   108.4600466 328.025600
   4461   4459   4468     1   109.7800468 425.094400
   4463   4462   8194     1   109.7800468 425.094400
   4463   4462   4464     1   108.4600466 328.025600
   4464   4462   8194     1   109.7800468 425.094400
   4466   4465   8217     1   109.7800468 425.094400
   4466   4465   4467     1   108.4600466 328.025600
   4467   4465   8217     1   109.7800468 425.094400
   4470   4471   4472     1   108.0100461 406.684800
   4470   4471   4473     1   108.0100461 406.684800
   4470   4474   4475     1   108.0100461 406.684800
   4470   4474   4476     1   108.0100461 406.684800
   4470   4477   4478     1   108.0100461 406.684800
   4470   4477   4479     1   108.0100461 406.684800
   4471   4470   4499     1   110.1100470 384.091200
   4471   4483   4484     1   109.8000471 387.438400
   4471   4483   4485     1   109.8000471 387.438400
   4472   4471   4483     1   110.5600475 386.601600
   4472   4471   4473     1   109.7500473 328.025600
   4473   4471   4483     1   110.5600475 386.601600
   4474   4470   4499     1   110.1100470 384.091200
   4474   4486   4487     1   109.8000471 387.438400
   4474   4486   4488     1   109.8000471 387.438400
   4475   4474   4486     1   110.5600475 386.601600
   4475   4474   4476     1   109.7500473 328.025600
   4476   4474   4486     1   110.5600475 386.601600
   4477   4470   4499     1   110.1100470 384.091200
   4477   4480   4481     1   109.8000471 387.438400
   4477   4480   4482     1   109.8000471 387.438400
   4478   4477   4480     1   110.5600475 386.601600
   4478   4477   4479     1   109.7500473 328.025600
   4479   4477   4480     1   110.5600475 386.601600
   4480   4489   4490     1   109.5600471 388.275200
   4480   4489   4491     1   109.5600471 388.275200
   4481   4480   4489     1   109.8000471 387.438400
   4481   4480   4482     1   107.5800459 329.699200
   4482   4480   4489     1   109.8000471 387.438400
   4483   4495   4496     1   109.5600471 388.275200
   4483   4495   4497     1   109.5600471 388.275200
   4484   4483   4495     1   109.8000471 387.438400
   4484   4483   4485     1   107.5800459 329.699200
   4485   4483   4495     1   109.8000471 387.438400
   4486   4492   4493     1   109.5600471 388.275200
   4486   4492   4494     1   109.5600471 388.275200
   4487   4486   4492     1   109.8000471 387.438400
   4487   4486   4488     1   107.5800459 329.699200
   4488   4486   4492     1   109.8000471 387.438400
   4490   4489   4498     1   109.7800468 425.094400
   4490   4489   4491     1   108.4600466 328.025600
   4491   4489   4498     1   109.7800468 425.094400
   4493   4492   8240     1   109.7800468 425.094400
   4493   4492   4494     1   108.4600466 328.025600
   4494   4492   8240     1   109.7800468 425.094400
   4496   4495   8263     1   109.7800468 425.094400
   4496   4495   4497     1   108.4600466 328.025600
   4497   4495   8263     1   109.7800468 425.094400
   4500   4501   4502     1   108.0100461 406.684800
   4500   4501   4503     1   108.0100461 406.684800
   4500   4504   4505     1   108.0100461 406.684800
   4500   4504   4506     1   108.0100461 406.684800
   4500   4507   4508     1   108.0100461 406.684800
   4500   4507   4509     1   108.0100461 406.684800
   4501   4500   4529     1   110.1100470 384.091200
   4501   4513   4514     1   109.8000471 387.438400
   4501   4513   4515     1   109.8000471 387.438400
   4502   4501   4513     1   110.5600475 386.601600
   4502   4501   4503     1   109.7500473 328.025600
   4503   4501   4513     1   110.5600475 386.601600
   4504   4500   4529     1   110.1100470 384.091200
   4504   4516   4517     1   109.8000471 387.438400
   4504   4516   4518     1   109.8000471 387.438400
   4505   4504   4516     1   110.5600475 386.601600
   4505   4504   4506     1   109.7500473 328.025600
   4506   4504   4516     1   110.5600475 386.601600
   4507   4500   4529     1   110.1100470 384.091200
   4507   4510   4511     1   109.8000471 387.438400
   4507   4510   4512     1   109.8000471 387.438400
   4508   4507   4510     1   110.5600475 386.601600
   4508   4507   4509     1   109.7500473 328.025600
   4509   4507   4510     1   110.5600475 386.601600
   4510   4519   4520     1   109.5600471 388.275200
   4510   4519   4521     1   109.5600471 388.275200
   4511   4510   4519     1   109.8000471 387.438400
   4511   4510   4512     1   107.5800459 329.699200
   4512   4510   4519     1   109.8000471 387.438400
   4513   4525   4526     1   109.5600471 388.275200
   4513   4525   4527     1   109.5600471 388.275200
   4514   4513   4525     1   109.8000471 387.438400
   4514   4513   4515     1   107.5800459 329.699200
   4515   4513   4525     1   109.8000471 387.438400
   4516   4522   4523     1   109.5600471 388.275200
   4516   4522   4524     1   109.5600471 388.275200
   4517   4516   4522     1   109.8000471 387.438400
   4517   4516   4518     1   107.5800459 329.699200
   4518   4516   4522     1   109.8000471 387.438400
   4520   4519   4528     1   109.7800468 425.094400
   4520   4519   4521     1   108.4600466 328.025600
   4521   4519   4528     1   109.7800468 425.094400
   4523   4522   8286     1   109.7800468 425.094400
   4523   4522   4524     1   108.4600466 328.025600
   4524   4522   8286     1   109.7800468 425.094400
   4526   4525   8309     1   109.7800468 425.094400
   4526   4525   4527     1   108.4600466 328.025600
   4527   4525   8309     1   109.7800468 425.094400
   4530   4531   4532     1   108.0100461 406.684800
   4530   4531   4533     1   108.0100461 406.684800
   4530   4534   4535     1   108.0100461 406.684800
   4530   4534   4536     1   108.0100461 406.684800
   4530   4537   4538     1   108.0100461 406.684800
   4530   4537   4539     1   108.0100461 406.684800
   4531   4530   4559     1   110.1100470 384.091200
   4531   4543   4544     1   109.8000471 387.438400
   4531   4543   4545     1   109.8000471 387.438400
   4532   4531   4543     1   110.5600475 386.601600
   4532   4531   4533     1   109.7500473 328.025600
   4533   4531   4543     1   110.5600475 386.601600
   4534   4530   4559     1   110.1100470 384.091200
   4534   4546   4547     1   109.8000471 387.438400
   4534   4546   4548     1   109.8000471 387.438400
   4535   4534   4546     1   110.5600475 386.601600
   4535   4534   4536     1   109.7500473 328.025600
   4536   4534   4546     1   110.5600475 386.601600
   4537   4530   4559     1   110.1100470 384.091200
   4537   4540   4541     1   109.8000471 387.438400
   4537   4540   4542     1   109.8000471 387.438400
   4538   4537   4540     1   110.5600475 386.601600
   4538   4537   4539     1   109.7500473 328.025600
   4539   4537   4540     1   110.5600475 386.601600
   4540   4549   4550     1   109.5600471 388.275200
   4540   4549   4551     1   109.5600471 388.275200
   4541   4540   4549     1   109.8000471 387.438400
   4541   4540   4542     1   107.5800459 329.699200
   4542   4540   4549     1   109.8000471 387.438400
   4543   4555   4556     1   109.5600471 388.275200
   4543   4555   4557     1   109.5600471 388.275200
   4544   4543   4555     1   109.8000471 387.438400
   4544   4543   4545     1   107.5800459 329.699200
   4545   4543   4555     1   109.8000471 387.438400
   4546   4552   4553     1   109.5600471 388.275200
   4546   4552   4554     1   109.5600471 388.275200
   4547   4546   4552     1   109.8000471 387.438400
   4547   4546   4548     1   107.5800459 329.699200
   4548   4546   4552     1   109.8000471 387.438400
   4550   4549   4558     1   109.7800468 425.094400
   4550   4549   4551     1   108.4600466 328.025600
   4551   4549   4558     1   109.7800468 425.094400
   4553   4552   8332     1   109.7800468 425.094400
   4553   4552   4554     1   108.4600466 328.025600
   4554   4552   8332     1   109.7800468 425.094400
   4556   4555   8355     1   109.7800468 425.094400
   4556   4555   4557     1   108.4600466 328.025600
   4557   4555   8355     1   109.7800468 425.094400
   4560   4561   4562     1   108.0100461 406.684800
   4560   4561   4563     1   108.0100461 406.684800
   4560   4564   4565     1   108.0100461 406.684800
   4560   4564   4566     1   108.0100461 406.684800
   4560   4567   4568     1   108.0100461 406.684800
   4560   4567   4569     1   108.0100461 406.684800
   4561   4560   4589     1   110.1100470 384.091200
   4561   4573   4574     1   109.8000471 387.438400
   4561   4573   4575     1   109.8000471 387.438400
   4562   4561   4573     1   110.5600475 386.601600
   4562   4561   4563     1   109.7500473 328.025600
   4563   4561   4573     1   110.5600475 386.601600
   4564   4560   4589     1   110.1100470 384.091200
   4564   4576   4577     1   109.8000471 387.438400
   4564   4576   4578     1   109.8000471 387.438400
   4565   4564   4576     1   110.5600475 386.601600
   4565   4564   4566     1   109.7500473 328.025600
   4566   4564   4576     1   110.5600475 386.601600
   4567   4560   4589     1   110.1100470 384.091200
   4567   4570   4571     1   109.8000471 387.438400
   4567   4570   4572     1   109.8000471 387.438400
   4568   4567   4570     1   110.5600475 386.601600
   4568   4567   4569     1   109.7500473 328.025600
   4569   4567   4570     1   110.5600475 386.601600
   4570   4579   4580     1   109.5600471 388.275200
   4570   4579   4581     1   109.5600471 388.275200
   4571   4570   4579     1   109.8000471 387.438400
   4571   4570   4572     1   107.5800459 329.699200
   4572   4570   4579     1   109.8000471 387.438400
   4573   4585   4586     1   109.5600471 388.275200
   4573   4585   4587     1   109.5600471 388.275200
   4574   4573   4585     1   109.8000471 387.438400
   4574   4573   4575     1   107.5800459 329.699200
   4575   4573   4585     1   109.8000471 387.438400
   4576   4582   4583     1   109.5600471 388.275200
   4576   4582   4584     1   109.5600471 388.275200
   4577   4576   4582     1   109.8000471 387.438400
   4577   4576   4578     1   107.5800459 329.699200
   4578   4576   4582     1   109.8000471 387.438400
   4580   4579   4588     1   109.7800468 425.094400
   4580   4579   4581     1   108.4600466 328.025600
   4581   4579   4588     1   109.7800468 425.094400
   4583   4582   8378     1   109.7800468 425.094400
   4583   4582   4584     1   108.4600466 328.025600
   4584   4582   8378     1   109.7800468 425.094400
   4586   4585   8401     1   109.7800468 425.094400
   4586   4585   4587     1   108.4600466 328.025600
   4587   4585   8401     1   109.7800468 425.094400
   4590   4591   4592     1   108.0100461 406.684800
   4590   4591   4593     1   108.0100461 406.684800
   4590   4594   4595     1   108.0100461 406.684800
   4590   4594   4596     1   108.0100461 406.684800
   4590   4597   4598     1   108.0100461 406.684800
   4590   4597   4599     1   108.0100461 406.684800
   4591   4590   4619     1   110.1100470 384.091200
   4591   4603   4604     1   109.8000471 387.438400
   4591   4603   4605     1   109.8000471 387.438400
   4592   4591   4603     1   110.5600475 386.601600
   4592   4591   4593     1   109.7500473 328.025600
   4593   4591   4603     1   110.5600475 386.601600
   4594   4590   4619     1   110.1100470 384.091200
   4594   4606   4607     1   109.8000471 387.438400
   4594   4606   4608     1   109.8000471 387.438400
   4595   4594   4606     1   110.5600475 386.601600
   4595   4594   4596     1   109.7500473 328.025600
   4596   4594   4606     1   110.5600475 386.601600
   4597   4590   4619     1   110.1100470 384.091200
   4597   4600   4601     1   109.8000471 387.438400
   4597   4600   4602     1   109.8000471 387.438400
   4598   4597   4600     1   110.5600475 386.601600
   4598   4597   4599     1   109.7500473 328.025600
   4599   4597   4600     1   110.5600475 386.601600
   4600   4609   4610     1   109.5600471 388.275200
   4600   4609   4611     1   109.5600471 388.275200
   4601   4600   4609     1   109.8000471 387.438400
   4601   4600   4602     1   107.5800459 329.699200
   4602   4600   4609     1   109.8000471 387.438400
   4603   4615   4616     1   109.5600471 388.275200
   4603   4615   4617     1   109.5600471 388.275200
   4604   4603   4615     1   109.8000471 387.438400
   4604   4603   4605     1   107.5800459 329.699200
   4605   4603   4615     1   109.8000471 387.438400
   4606   4612   4613     1   109.5600471 388.275200
   4606   4612   4614     1   109.5600471 388.275200
   4607   4606   4612     1   109.8000471 387.438400
   4607   4606   4608     1   107.5800459 329.699200
   4608   4606   4612     1   109.8000471 387.438400
   4610   4609   4618     1   109.7800468 425.094400
   4610   4609   4611     1   108.4600466 328.025600
   4611   4609   4618     1   109.7800468 425.094400
   4613   4612   8424     1   109.7800468 425.094400
   4613   4612   4614     1   108.4600466 328.025600
   4614   4612   8424     1   109.7800468 425.094400
   4616   4615   8447     1   109.7800468 425.094400
   4616   4615   4617     1   108.4600466 328.025600
   4617   4615   8447     1   109.7800468 425.094400
   4620   4621   4622     1   108.0100461 406.684800
   4620   4621   4623     1   108.0100461 406.684800
   4620   4624   4625     1   108.0100461 406.684800
   4620   4624   4626     1   108.0100461 406.684800
   4620   4627   4628     1   108.0100461 406.684800
   4620   4627   4629     1   108.0100461 406.684800
   4621   4620   4649     1   110.1100470 384.091200
   4621   4633   4634     1   109.8000471 387.438400
   4621   4633   4635     1   109.8000471 387.438400
   4622   4621   4633     1   110.5600475 386.601600
   4622   4621   4623     1   109.7500473 328.025600
   4623   4621   4633     1   110.5600475 386.601600
   4624   4620   4649     1   110.1100470 384.091200
   4624   4636   4637     1   109.8000471 387.438400
   4624   4636   4638     1   109.8000471 387.438400
   4625   4624   4636     1   110.5600475 386.601600
   4625   4624   4626     1   109.7500473 328.025600
   4626   4624   4636     1   110.5600475 386.601600
   4627   4620   4649     1   110.1100470 384.091200
   4627   4630   4631     1   109.8000471 387.438400
   4627   4630   4632     1   109.8000471 387.438400
   4628   4627   4630     1   110.5600475 386.601600
   4628   4627   4629     1   109.7500473 328.025600
   4629   4627   4630     1   110.5600475 386.601600
   4630   4639   4640     1   109.5600471 388.275200
   4630   4639   4641     1   109.5600471 388.275200
   4631   4630   4639     1   109.8000471 387.438400
   4631   4630   4632     1   107.5800459 329.699200
   4632   4630   4639     1   109.8000471 387.438400
   4633   4645   4646     1   109.5600471 388.275200
   4633   4645   4647     1   109.5600471 388.275200
   4634   4633   4645     1   109.8000471 387.438400
   4634   4633   4635     1   107.5800459 329.699200
   4635   4633   4645     1   109.8000471 387.438400
   4636   4642   4643     1   109.5600471 388.275200
   4636   4642   4644     1   109.5600471 388.275200
   4637   4636   4642     1   109.8000471 387.438400
   4637   4636   4638     1   107.5800459 329.699200
   4638   4636   4642     1   109.8000471 387.438400
   4640   4639   4648     1   109.7800468 425.094400
   4640   4639   4641     1   108.4600466 328.025600
   4641   4639   4648     1   109.7800468 425.094400
   4643   4642   8470     1   109.7800468 425.094400
   4643   4642   4644     1   108.4600466 328.025600
   4644   4642   8470     1   109.7800468 425.094400
   4646   4645   8493     1   109.7800468 425.094400
   4646   4645   4647     1   108.4600466 328.025600
   4647   4645   8493     1   109.7800468 425.094400
   4650   4651   4652     1   108.0100461 406.684800
   4650   4651   4653     1   108.0100461 406.684800
   4650   4654   4655     1   108.0100461 406.684800
   4650   4654   4656     1   108.0100461 406.684800
   4650   4657   4658     1   108.0100461 406.684800
   4650   4657   4659     1   108.0100461 406.684800
   4651   4650   4679     1   110.1100470 384.091200
   4651   4663   4664     1   109.8000471 387.438400
   4651   4663   4665     1   109.8000471 387.438400
   4652   4651   4663     1   110.5600475 386.601600
   4652   4651   4653     1   109.7500473 328.025600
   4653   4651   4663     1   110.5600475 386.601600
   4654   4650   4679     1   110.1100470 384.091200
   4654   4666   4667     1   109.8000471 387.438400
   4654   4666   4668     1   109.8000471 387.438400
   4655   4654   4666     1   110.5600475 386.601600
   4655   4654   4656     1   109.7500473 328.025600
   4656   4654   4666     1   110.5600475 386.601600
   4657   4650   4679     1   110.1100470 384.091200
   4657   4660   4661     1   109.8000471 387.438400
   4657   4660   4662     1   109.8000471 387.438400
   4658   4657   4660     1   110.5600475 386.601600
   4658   4657   4659     1   109.7500473 328.025600
   4659   4657   4660     1   110.5600475 386.601600
   4660   4669   4670     1   109.5600471 388.275200
   4660   4669   4671     1   109.5600471 388.275200
   4661   4660   4669     1   109.8000471 387.438400
   4661   4660   4662     1   107.5800459 329.699200
   4662   4660   4669     1   109.8000471 387.438400
   4663   4675   4676     1   109.5600471 388.275200
   4663   4675   4677     1   109.5600471 388.275200
   4664   4663   4675     1   109.8000471 387.438400
   4664   4663   4665     1   107.5800459 329.699200
   4665   4663   4675     1   109.8000471 387.438400
   4666   4672   4673     1   109.5600471 388.275200
   4666   4672   4674     1   109.5600471 388.275200
   4667   4666   4672     1   109.8000471 387.438400
   4667   4666   4668     1   107.5800459 329.699200
   4668   4666   4672     1   109.8000471 387.438400
   4670   4669   4678     1   109.7800468 425.094400
   4670   4669   4671     1   108.4600466 328.025600
   4671   4669   4678     1   109.7800468 425.094400
   4673   4672   8516     1   109.7800468 425.094400
   4673   4672   4674     1   108.4600466 328.025600
   4674   4672   8516     1   109.7800468 425.094400
   4676   4675   8539     1   109.7800468 425.094400
   4676   4675   4677     1   108.4600466 328.025600
   4677   4675   8539     1   109.7800468 425.094400
   4680   4681   4682     1   108.0100461 406.684800
   4680   4681   4683     1   108.0100461 406.684800
   4680   4684   4685     1   108.0100461 406.684800
   4680   4684   4686     1   108.0100461 406.684800
   4680   4687   4688     1   108.0100461 406.684800
   4680   4687   4689     1   108.0100461 406.684800
   4681   4680   4709     1   110.1100470 384.091200
   4681   4693   4694     1   109.8000471 387.438400
   4681   4693   4695     1   109.8000471 387.438400
   4682   4681   4693     1   110.5600475 386.601600
   4682   4681   4683     1   109.7500473 328.025600
   4683   4681   4693     1   110.5600475 386.601600
   4684   4680   4709     1   110.1100470 384.091200
   4684   4696   4697     1   109.8000471 387.438400
   4684   4696   4698     1   109.8000471 387.438400
   4685   4684   4696     1   110.5600475 386.601600
   4685   4684   4686     1   109.7500473 328.025600
   4686   4684   4696     1   110.5600475 386.601600
   4687   4680   4709     1   110.1100470 384.091200
   4687   4690   4691     1   109.8000471 387.438400
   4687   4690   4692     1   109.8000471 387.438400
   4688   4687   4690     1   110.5600475 386.601600
   4688   4687   4689     1   109.7500473 328.025600
   4689   4687   4690     1   110.5600475 386.601600
   4690   4699   4700     1   109.5600471 388.275200
   4690   4699   4701     1   109.5600471 388.275200
   4691   4690   4699     1   109.8000471 387.438400
   4691   4690   4692     1   107.5800459 329.699200
   4692   4690   4699     1   109.8000471 387.438400
   4693   4705   4706     1   109.5600471 388.275200
   4693   4705   4707     1   109.5600471 388.275200
   4694   4693   4705     1   109.8000471 387.438400
   4694   4693   4695     1   107.5800459 329.699200
   4695   4693   4705     1   109.8000471 387.438400
   4696   4702   4703     1   109.5600471 388.275200
   4696   4702   4704     1   109.5600471 388.275200
   4697   4696   4702     1   109.8000471 387.438400
   4697   4696   4698     1   107.5800459 329.699200
   4698   4696   4702     1   109.8000471 387.438400
   4700   4699   4708     1   109.7800468 425.094400
   4700   4699   4701     1   108.4600466 328.025600
   4701   4699   4708     1   109.7800468 425.094400
   4703   4702   8562     1   109.7800468 425.094400
   4703   4702   4704     1   108.4600466 328.025600
   4704   4702   8562     1   109.7800468 425.094400
   4706   4705   8585     1   109.7800468 425.094400
   4706   4705   4707     1   108.4600466 328.025600
   4707   4705   8585     1   109.7800468 425.094400
   4710   4711   4712     1   108.0100461 406.684800
   4710   4711   4713     1   108.0100461 406.684800
   4710   4714   4715     1   108.0100461 406.684800
   4710   4714   4716     1   108.0100461 406.684800
   4710   4717   4718     1   108.0100461 406.684800
   4710   4717   4719     1   108.0100461 406.684800
   4711   4710   4739     1   110.1100470 384.091200
   4711   4723   4724     1   109.8000471 387.438400
   4711   4723   4725     1   109.8000471 387.438400
   4712   4711   4723     1   110.5600475 386.601600
   4712   4711   4713     1   109.7500473 328.025600
   4713   4711   4723     1   110.5600475 386.601600
   4714   4710   4739     1   110.1100470 384.091200
   4714   4726   4727     1   109.8000471 387.438400
   4714   4726   4728     1   109.8000471 387.438400
   4715   4714   4726     1   110.5600475 386.601600
   4715   4714   4716     1   109.7500473 328.025600
   4716   4714   4726     1   110.5600475 386.601600
   4717   4710   4739     1   110.1100470 384.091200
   4717   4720   4721     1   109.8000471 387.438400
   4717   4720   4722     1   109.8000471 387.438400
   4718   4717   4720     1   110.5600475 386.601600
   4718   4717   4719     1   109.7500473 328.025600
   4719   4717   4720     1   110.5600475 386.601600
   4720   4729   4730     1   109.5600471 388.275200
   4720   4729   4731     1   109.5600471 388.275200
   4721   4720   4729     1   109.8000471 387.438400
   4721   4720   4722     1   107.5800459 329.699200
   4722   4720   4729     1   109.8000471 387.438400
   4723   4735   4736     1   109.5600471 388.275200
   4723   4735   4737     1   109.5600471 388.275200
   4724   4723   4735     1   109.8000471 387.438400
   4724   4723   4725     1   107.5800459 329.699200
   4725   4723   4735     1   109.8000471 387.438400
   4726   4732   4733     1   109.5600471 388.275200
   4726   4732   4734     1   109.5600471 388.275200
   4727   4726   4732     1   109.8000471 387.438400
   4727   4726   4728     1   107.5800459 329.699200
   4728   4726   4732     1   109.8000471 387.438400
   4730   4729   4738     1   109.7800468 425.094400
   4730   4729   4731     1   108.4600466 328.025600
   4731   4729   4738     1   109.7800468 425.094400
   4733   4732   8608     1   109.7800468 425.094400
   4733   4732   4734     1   108.4600466 328.025600
   4734   4732   8608     1   109.7800468 425.094400
   4736   4735   8631     1   109.7800468 425.094400
   4736   4735   4737     1   108.4600466 328.025600
   4737   4735   8631     1   109.7800468 425.094400
   4740   4741   4742     1   108.0100461 406.684800
   4740   4741   4743     1   108.0100461 406.684800
   4740   4744   4745     1   108.0100461 406.684800
   4740   4744   4746     1   108.0100461 406.684800
   4740   4747   4748     1   108.0100461 406.684800
   4740   4747   4749     1   108.0100461 406.684800
   4741   4740   4769     1   110.1100470 384.091200
   4741   4753   4754     1   109.8000471 387.438400
   4741   4753   4755     1   109.8000471 387.438400
   4742   4741   4753     1   110.5600475 386.601600
   4742   4741   4743     1   109.7500473 328.025600
   4743   4741   4753     1   110.5600475 386.601600
   4744   4740   4769     1   110.1100470 384.091200
   4744   4756   4757     1   109.8000471 387.438400
   4744   4756   4758     1   109.8000471 387.438400
   4745   4744   4756     1   110.5600475 386.601600
   4745   4744   4746     1   109.7500473 328.025600
   4746   4744   4756     1   110.5600475 386.601600
   4747   4740   4769     1   110.1100470 384.091200
   4747   4750   4751     1   109.8000471 387.438400
   4747   4750   4752     1   109.8000471 387.438400
   4748   4747   4750     1   110.5600475 386.601600
   4748   4747   4749     1   109.7500473 328.025600
   4749   4747   4750     1   110.5600475 386.601600
   4750   4759   4760     1   109.5600471 388.275200
   4750   4759   4761     1   109.5600471 388.275200
   4751   4750   4759     1   109.8000471 387.438400
   4751   4750   4752     1   107.5800459 329.699200
   4752   4750   4759     1   109.8000471 387.438400
   4753   4765   4766     1   109.5600471 388.275200
   4753   4765   4767     1   109.5600471 388.275200
   4754   4753   4765     1   109.8000471 387.438400
   4754   4753   4755     1   107.5800459 329.699200
   4755   4753   4765     1   109.8000471 387.438400
   4756   4762   4763     1   109.5600471 388.275200
   4756   4762   4764     1   109.5600471 388.275200
   4757   4756   4762     1   109.8000471 387.438400
   4757   4756   4758     1   107.5800459 329.699200
   4758   4756   4762     1   109.8000471 387.438400
   4760   4759   4768     1   109.7800468 425.094400
   4760   4759   4761     1   108.4600466 328.025600
   4761   4759   4768     1   109.7800468 425.094400
   4763   4762   8654     1   109.7800468 425.094400
   4763   4762   4764     1   108.4600466 328.025600
   4764   4762   8654     1   109.7800468 425.094400
   4766   4765   8677     1   109.7800468 425.094400
   4766   4765   4767     1   108.4600466 328.025600
   4767   4765   8677     1   109.7800468 425.094400
   4770   4771   4772     1   108.0100461 406.684800
   4770   4771   4773     1   108.0100461 406.684800
   4770   4774   4775     1   108.0100461 406.684800
   4770   4774   4776     1   108.0100461 406.684800
   4770   4777   4778     1   108.0100461 406.684800
   4770   4777   4779     1   108.0100461 406.684800
   4771   4770   4799     1   110.1100470 384.091200
   4771   4783   4784     1   109.8000471 387.438400
   4771   4783   4785     1   109.8000471 387.438400
   4772   4771   4783     1   110.5600475 386.601600
   4772   4771   4773     1   109.7500473 328.025600
   4773   4771   4783     1   110.5600475 386.601600
   4774   4770   4799     1   110.1100470 384.091200
   4774   4786   4787     1   109.8000471 387.438400
   4774   4786   4788     1   109.8000471 387.438400
   4775   4774   4786     1   110.5600475 386.601600
   4775   4774   4776     1   109.7500473 328.025600
   4776   4774   4786     1   110.5600475 386.601600
   4777   4770   4799     1   110.1100470 384.091200
   4777   4780   4781     1   109.8000471 387.438400
   4777   4780   4782     1   109.8000471 387.438400
   4778   4777   4780     1   110.5600475 386.601600
   4778   4777   4779     1   109.7500473 328.025600
   4779   4777   4780     1   110.5600475 386.601600
   4780   4789   4790     1   109.5600471 388.275200
   4780   4789   4791     1   109.5600471 388.275200
   4781   4780   4789     1   109.8000471 387.438400
   4781   4780   4782     1   107.5800459 329.699200
   4782   4780   4789     1   109.8000471 387.438400
   4783   4795   4796     1   109.5600471 388.275200
   4783   4795   4797     1   109.5600471 388.275200
   4784   4783   4795     1   109.8000471 387.438400
   4784   4783   4785     1   107.5800459 329.699200
   4785   4783   4795     1   109.8000471 387.438400
   4786   4792   4793     1   109.5600471 388.275200
   4786   4792   4794     1   109.5600471 388.275200
   4787   4786   4792     1   109.8000471 387.438400
   4787   4786   4788     1   107.5800459 329.699200
   4788   4786   4792     1   109.8000471 387.438400
   4790   4789   4798     1   109.7800468 425.094400
   4790   4789   4791     1   108.4600466 328.025600
   4791   4789   4798     1   109.7800468 425.094400
   4793   4792   8700     1   109.7800468 425.094400
   4793   4792   4794     1   108.4600466 328.025600
   4794   4792   8700     1   109.7800468 425.094400
   4796   4795   8723     1   109.7800468 425.094400
   4796   4795   4797     1   108.4600466 328.025600
   4797   4795   8723     1   109.7800468 425.094400
   4800   4801   4802     1   108.0100461 406.684800
   4800   4801   4803     1   108.0100461 406.684800
   4800   4804   4805     1   108.0100461 406.684800
   4800   4804   4806     1   108.0100461 406.684800
   4800   4807   4808     1   108.0100461 406.684800
   4800   4807   4809     1   108.0100461 406.684800
   4801   4800   4829     1   110.1100470 384.091200
   4801   4813   4814     1   109.8000471 387.438400
   4801   4813   4815     1   109.8000471 387.438400
   4802   4801   4813     1   110.5600475 386.601600
   4802   4801   4803     1   109.7500473 328.025600
   4803   4801   4813     1   110.5600475 386.601600
   4804   4800   4829     1   110.1100470 384.091200
   4804   4816   4817     1   109.8000471 387.438400
   4804   4816   4818     1   109.8000471 387.438400
   4805   4804   4816     1   110.5600475 386.601600
   4805   4804   4806     1   109.7500473 328.025600
   4806   4804   4816     1   110.5600475 386.601600
   4807   4800   4829     1   110.1100470 384.091200
   4807   4810   4811     1   109.8000471 387.438400
   4807   4810   4812     1   109.8000471 387.438400
   4808   4807   4810     1   110.5600475 386.601600
   4808   4807   4809     1   109.7500473 328.025600
   4809   4807   4810     1   110.5600475 386.601600
   4810   4819   4820     1   109.5600471 388.275200
   4810   4819   4821     1   109.5600471 388.275200
   4811   4810   4819     1   109.8000471 387.438400
   4811   4810   4812     1   107.5800459 329.699200
   4812   4810   4819     1   109.8000471 387.438400
   4813   4825   4826     1   109.5600471 388.275200
   4813   4825   4827     1   109.5600471 388.275200
   4814   4813   4825     1   109.8000471 387.438400
   4814   4813   4815     1   107.5800459 329.699200
   4815   4813   4825     1   109.8000471 387.438400
   4816   4822   4823     1   109.5600471 388.275200
   4816   4822   4824     1   109.5600471 388.275200
   4817   4816   4822     1   109.8000471 387.438400
   4817   4816   4818     1   107.5800459 329.699200
   4818   4816   4822     1   109.8000471 387.438400
   4820   4819   4828     1   109.7800468 425.094400
   4820   4819   4821     1   108.4600466 328.025600
   4821   4819   4828     1   109.7800468 425.094400
   4823   4822   8746     1   109.7800468 425.094400
   4823   4822   4824     1   108.4600466 328.025600
   4824   4822   8746     1   109.7800468 425.094400
   4826   4825   8769     1   109.7800468 425.094400
   4826   4825   4827     1   108.4600466 328.025600
   4827   4825   8769     1   109.7800468 425.094400
   4830   4831   4832     1   108.0100461 406.684800
   4830   4831   4833     1   108.0100461 406.684800
   4830   4834   4835     1   108.0100461 406.684800
   4830   4834   4836     1   108.0100461 406.684800
   4830   4837   4838     1   108.0100461 406.684800
   4830   4837   4839     1   108.0100461 406.684800
   4831   4830   4859     1   110.1100470 384.091200
   4831   4843   4844     1   109.8000471 387.438400
   4831   4843   4845     1   109.8000471 387.438400
   4832   4831   4843     1   110.5600475 386.601600
   4832   4831   4833     1   109.7500473 328.025600
   4833   4831   4843     1   110.5600475 386.601600
   4834   4830   4859     1   110.1100470 384.091200
   4834   4846   4847     1   109.8000471 387.438400
   4834   4846   4848     1   109.8000471 387.438400
   4835   4834   4846     1   110.5600475 386.601600
   4835   4834   4836     1   109.7500473 328.025600
   4836   4834   4846     1   110.5600475 386.601600
   4837   4830   4859     1   110.1100470 384.091200
   4837   4840   4841     1   109.8000471 387.438400
   4837   4840   4842     1   109.8000471 387.438400
   4838   4837   4840     1   110.5600475 386.601600
   4838   4837   4839     1   109.7500473 328.025600
   4839   4837   4840     1   110.5600475 386.601600
   4840   4849   4850     1   109.5600471 388.275200
   4840   4849   4851     1   109.5600471 388.275200
   4841   4840   4849     1   109.8000471 387.438400
   4841   4840   4842     1   107.5800459 329.699200
   4842   4840   4849     1   109.8000471 387.438400
   4843   4855   4856     1   109.5600471 388.275200
   4843   4855   4857     1   109.5600471 388.275200
   4844   4843   4855     1   109.8000471 387.438400
   4844   4843   4845     1   107.5800459 329.699200
   4845   4843   4855     1   109.8000471 387.438400
   4846   4852   4853     1   109.5600471 388.275200
   4846   4852   4854     1   109.5600471 388.275200
   4847   4846   4852     1   109.8000471 387.438400
   4847   4846   4848     1   107.5800459 329.699200
   4848   4846   4852     1   109.8000471 387.438400
   4850   4849   4858     1   109.7800468 425.094400
   4850   4849   4851     1   108.4600466 328.025600
   4851   4849   4858     1   109.7800468 425.094400
   4853   4852   8792     1   109.7800468 425.094400
   4853   4852   4854     1   108.4600466 328.025600
   4854   4852   8792     1   109.7800468 425.094400
   4856   4855   8815     1   109.7800468 425.094400
   4856   4855   4857     1   108.4600466 328.025600
   4857   4855   8815     1   109.7800468 425.094400
   4860   4861   4862     1   108.0100461 406.684800
   4860   4861   4863     1   108.0100461 406.684800
   4860   4864   4865     1   108.0100461 406.684800
   4860   4864   4866     1   108.0100461 406.684800
   4860   4867   4868     1   108.0100461 406.684800
   4860   4867   4869     1   108.0100461 406.684800
   4861   4860   4889     1   110.1100470 384.091200
   4861   4873   4874     1   109.8000471 387.438400
   4861   4873   4875     1   109.8000471 387.438400
   4862   4861   4873     1   110.5600475 386.601600
   4862   4861   4863     1   109.7500473 328.025600
   4863   4861   4873     1   110.5600475 386.601600
   4864   4860   4889     1   110.1100470 384.091200
   4864   4876   4877     1   109.8000471 387.438400
   4864   4876   4878     1   109.8000471 387.438400
   4865   4864   4876     1   110.5600475 386.601600
   4865   4864   4866     1   109.7500473 328.025600
   4866   4864   4876     1   110.5600475 386.601600
   4867   4860   4889     1   110.1100470 384.091200
   4867   4870   4871     1   109.8000471 387.438400
   4867   4870   4872     1   109.8000471 387.438400
   4868   4867   4870     1   110.5600475 386.601600
   4868   4867   4869     1   109.7500473 328.025600
   4869   4867   4870     1   110.5600475 386.601600
   4870   4879   4880     1   109.5600471 388.275200
   4870   4879   4881     1   109.5600471 388.275200
   4871   4870   4879     1   109.8000471 387.438400
   4871   4870   4872     1   107.5800459 329.699200
   4872   4870   4879     1   109.8000471 387.438400
   4873   4885   4886     1   109.5600471 388.275200
   4873   4885   4887     1   109.5600471 388.275200
   4874   4873   4885     1   109.8000471 387.438400
   4874   4873   4875     1   107.5800459 329.699200
   4875   4873   4885     1   109.8000471 387.438400
   4876   4882   4883     1   109.5600471 388.275200
   4876   4882   4884     1   109.5600471 388.275200
   4877   4876   4882     1   109.8000471 387.438400
   4877   4876   4878     1   107.5800459 329.699200
   4878   4876   4882     1   109.8000471 387.438400
   4880   4879   4888     1   109.7800468 425.094400
   4880   4879   4881     1   108.4600466 328.025600
   4881   4879   4888     1   109.7800468 425.094400
   4883   4882   8838     1   109.7800468 425.094400
   4883   4882   4884     1   108.4600466 328.025600
   4884   4882   8838     1   109.7800468 425.094400
   4886   4885   8861     1   109.7800468 425.094400
   4886   4885   4887     1   108.4600466 328.025600
   4887   4885   8861     1   109.7800468 425.094400
   4890   4891   4892     1   108.0100461 406.684800
   4890   4891   4893     1   108.0100461 406.684800
   4890   4894   4895     1   108.0100461 406.684800
   4890   4894   4896     1   108.0100461 406.684800
   4890   4897   4898     1   108.0100461 406.684800
   4890   4897   4899     1   108.0100461 406.684800
   4891   4890   4919     1   110.1100470 384.091200
   4891   4903   4904     1   109.8000471 387.438400
   4891   4903   4905     1   109.8000471 387.438400
   4892   4891   4903     1   110.5600475 386.601600
   4892   4891   4893     1   109.7500473 328.025600
   4893   4891   4903     1   110.5600475 386.601600
   4894   4890   4919     1   110.1100470 384.091200
   4894   4906   4907     1   109.8000471 387.438400
   4894   4906   4908     1   109.8000471 387.438400
   4895   4894   4906     1   110.5600475 386.601600
   4895   4894   4896     1   109.7500473 328.025600
   4896   4894   4906     1   110.5600475 386.601600
   4897   4890   4919     1   110.1100470 384.091200
   4897   4900   4901     1   109.8000471 387.438400
   4897   4900   4902     1   109.8000471 387.438400
   4898   4897   4900     1   110.5600475 386.601600
   4898   4897   4899     1   109.7500473 328.025600
   4899   4897   4900     1   110.5600475 386.601600
   4900   4909   4910     1   109.5600471 388.275200
   4900   4909   4911     1   109.5600471 388.275200
   4901   4900   4909     1   109.8000471 387.438400
   4901   4900   4902     1   107.5800459 329.699200
   4902   4900   4909     1   109.8000471 387.438400
   4903   4915   4916     1   109.5600471 388.275200
   4903   4915   4917     1   109.5600471 388.275200
   4904   4903   4915     1   109.8000471 387.438400
   4904   4903   4905     1   107.5800459 329.699200
   4905   4903   4915     1   109.8000471 387.438400
   4906   4912   4913     1   109.5600471 388.275200
   4906   4912   4914     1   109.5600471 388.275200
   4907   4906   4912     1   109.8000471 387.438400
   4907   4906   4908     1   107.5800459 329.699200
   4908   4906   4912     1   109.8000471 387.438400
   4910   4909   4918     1   109.7800468 425.094400
   4910   4909   4911     1   108.4600466 328.025600
   4911   4909   4918     1   109.7800468 425.094400
   4913   4912   8884     1   109.7800468 425.094400
   4913   4912   4914     1   108.4600466 328.025600
   4914   4912   8884     1   109.7800468 425.094400
   4916   4915   8907     1   109.7800468 425.094400
   4916   4915   4917     1   108.4600466 328.025600
   4917   4915   8907     1   109.7800468 425.094400
   4920   4921   4922     1   108.0100461 406.684800
   4920   4921   4923     1   108.0100461 406.684800
   4920   4924   4925     1   108.0100461 406.684800
   4920   4924   4926     1   108.0100461 406.684800
   4920   4927   4928     1   108.0100461 406.684800
   4920   4927   4929     1   108.0100461 406.684800
   4921   4920   4949     1   110.1100470 384.091200
   4921   4933   4934     1   109.8000471 387.438400
   4921   4933   4935     1   109.8000471 387.438400
   4922   4921   4933     1   110.5600475 386.601600
   4922   4921   4923     1   109.7500473 328.025600
   4923   4921   4933     1   110.5600475 386.601600
   4924   4920   4949     1   110.1100470 384.091200
   4924   4936   4937     1   109.8000471 387.438400
   4924   4936   4938     1   109.8000471 387.438400
   4925   4924   4936     1   110.5600475 386.601600
   4925   4924   4926     1   109.7500473 328.025600
   4926   4924   4936     1   110.5600475 386.601600
   4927   4920   4949     1   110.1100470 384.091200
   4927   4930   4931     1   109.8000471 387.438400
   4927   4930   4932     1   109.8000471 387.438400
   4928   4927   4930     1   110.5600475 386.601600
   4928   4927   4929     1   109.7500473 328.025600
   4929   4927   4930     1   110.5600475 386.601600
   4930   4939   4940     1   109.5600471 388.275200
   4930   4939   4941     1   109.5600471 388.275200
   4931   4930   4939     1   109.8000471 387.438400
   4931   4930   4932     1   107.5800459 329.699200
   4932   4930   4939     1   109.8000471 387.438400
   4933   4945   4946     1   109.5600471 388.275200
   4933   4945   4947     1   109.5600471 388.275200
   4934   4933   4945     1   109.8000471 387.438400
   4934   4933   4935     1   107.5800459 329.699200
   4935   4933   4945     1   109.8000471 387.438400
   4936   4942   4943     1   109.5600471 388.275200
   4936   4942   4944     1   109.5600471 388.275200
   4937   4936   4942     1   109.8000471 387.438400
   4937   4936   4938     1   107.5800459 329.699200
   4938   4936   4942     1   109.8000471 387.438400
   4940   4939   4948     1   109.7800468 425.094400
   4940   4939   4941     1   108.4600466 328.025600
   4941   4939   4948     1   109.7800468 425.094400
   4943   4942   8930     1   109.7800468 425.094400
   4943   4942   4944     1   108.4600466 328.025600
   4944   4942   8930     1   109.7800468 425.094400
   4946   4945   8953     1   109.7800468 425.094400
   4946   4945   4947     1   108.4600466 328.025600
   4947   4945   8953     1   109.7800468 425.094400
   4950   4951   4952     1   108.0100461 406.684800
   4950   4951   4953     1   108.0100461 406.684800
   4950   4954   4955     1   108.0100461 406.684800
   4950   4954   4956     1   108.0100461 406.684800
   4950   4957   4958     1   108.0100461 406.684800
   4950   4957   4959     1   108.0100461 406.684800
   4951   4950   4979     1   110.1100470 384.091200
   4951   4963   4964     1   109.8000471 387.438400
   4951   4963   4965     1   109.8000471 387.438400
   4952   4951   4963     1   110.5600475 386.601600
   4952   4951   4953     1   109.7500473 328.025600
   4953   4951   4963     1   110.5600475 386.601600
   4954   4950   4979     1   110.1100470 384.091200
   4954   4966   4967     1   109.8000471 387.438400
   4954   4966   4968     1   109.8000471 387.438400
   4955   4954   4966     1   110.5600475 386.601600
   4955   4954   4956     1   109.7500473 328.025600
   4956   4954   4966     1   110.5600475 386.601600
   4957   4950   4979     1   110.1100470 384.091200
   4957   4960   4961     1   109.8000471 387.438400
   4957   4960   4962     1   109.8000471 387.438400
   4958   4957   4960     1   110.5600475 386.601600
   4958   4957   4959     1   109.7500473 328.025600
   4959   4957   4960     1   110.5600475 386.601600
   4960   4969   4970     1   109.5600471 388.275200
   4960   4969   4971     1   109.5600471 388.275200
   4961   4960   4969     1   109.8000471 387.438400
   4961   4960   4962     1   107.5800459 329.699200
   4962   4960   4969     1   109.8000471 387.438400
   4963   4975   4976     1   109.5600471 388.275200
   4963   4975   4977     1   109.5600471 388.275200
   4964   4963   4975     1   109.8000471 387.438400
   4964   4963   4965     1   107.5800459 329.699200
   4965   4963   4975     1   109.8000471 387.438400
   4966   4972   4973     1   109.5600471 388.275200
   4966   4972   4974     1   109.5600471 388.275200
   4967   4966   4972     1   109.8000471 387.438400
   4967   4966   4968     1   107.5800459 329.699200
   4968   4966   4972     1   109.8000471 387.438400
   4970   4969   4978     1   109.7800468 425.094400
   4970   4969   4971     1   108.4600466 328.025600
   4971   4969   4978     1   109.7800468 425.094400
   4973   4972   8976     1   109.7800468 425.094400
   4973   4972   4974     1   108.4600466 328.025600
   4974   4972   8976     1   109.7800468 425.094400
   4976   4975   8999     1   109.7800468 425.094400
   4976   4975   4977     1   108.4600466 328.025600
   4977   4975   8999     1   109.7800468 425.094400
   4980   4981   4982     1   108.0100461 406.684800
   4980   4981   4983     1   108.0100461 406.684800
   4980   4984   4985     1   108.0100461 406.684800
   4980   4984   4986     1   108.0100461 406.684800
   4980   4987   4988     1   108.0100461 406.684800
   4980   4987   4989     1   108.0100461 406.684800
   4981   4980   5009     1   110.1100470 384.091200
   4981   4993   4994     1   109.8000471 387.438400
   4981   4993   4995     1   109.8000471 387.438400
   4982   4981   4993     1   110.5600475 386.601600
   4982   4981   4983     1   109.7500473 328.025600
   4983   4981   4993     1   110.5600475 386.601600
   4984   4980   5009     1   110.1100470 384.091200
   4984   4996   4997     1   109.8000471 387.438400
   4984   4996   4998     1   109.8000471 387.438400
   4985   4984   4996     1   110.5600475 386.601600
   4985   4984   4986     1   109.7500473 328.025600
   4986   4984   4996     1   110.5600475 386.601600
   4987   4980   5009     1   110.1100470 384.091200
   4987   4990   4991     1   109.8000471 387.438400
   4987   4990   4992     1   109.8000471 387.438400
   4988   4987   4990     1   110.5600475 386.601600
   4988   4987   4989     1   109.7500473 328.025600
   4989   4987   4990     1   110.5600475 386.601600
   4990   4999   5000     1   109.5600471 388.275200
   4990   4999   5001     1   109.5600471 388.275200
   4991   4990   4999     1   109.8000471 387.438400
   4991   4990   4992     1   107.5800459 329.699200
   4992   4990   4999     1   109.8000471 387.438400
   4993   5005   5006     1   109.5600471 388.275200
   4993   5005   5007     1   109.5600471 388.275200
   4994   4993   5005     1   109.8000471 387.438400
   4994   4993   4995     1   107.5800459 329.699200
   4995   4993   5005     1   109.8000471 387.438400
   4996   5002   5003     1   109.5600471 388.275200
   4996   5002   5004     1   109.5600471 388.275200
   4997   4996   5002     1   109.8000471 387.438400
   4997   4996   4998     1   107.5800459 329.699200
   4998   4996   5002     1   109.8000471 387.438400
   5000   4999   5008     1   109.7800468 425.094400
   5000   4999   5001     1   108.4600466 328.025600
   5001   4999   5008     1   109.7800468 425.094400
   5003   5002   9022     1   109.7800468 425.094400
   5003   5002   5004     1   108.4600466 328.025600
   5004   5002   9022     1   109.7800468 425.094400
   5006   5005   9045     1   109.7800468 425.094400
   5006   5005   5007     1   108.4600466 328.025600
   5007   5005   9045     1   109.7800468 425.094400
   5010   5011   5012     1   108.0100461 406.684800
   5010   5011   5013     1   108.0100461 406.684800
   5010   5014   5015     1   108.0100461 406.684800
   5010   5014   5016     1   108.0100461 406.684800
   5010   5017   5018     1   108.0100461 406.684800
   5010   5017   5019     1   108.0100461 406.684800
   5011   5010   5039     1   110.1100470 384.091200
   5011   5023   5024     1   109.8000471 387.438400
   5011   5023   5025     1   109.8000471 387.438400
   5012   5011   5023     1   110.5600475 386.601600
   5012   5011   5013     1   109.7500473 328.025600
   5013   5011   5023     1   110.5600475 386.601600
   5014   5010   5039     1   110.1100470 384.091200
   5014   5026   5027     1   109.8000471 387.438400
   5014   5026   5028     1   109.8000471 387.438400
   5015   5014   5026     1   110.5600475 386.601600
   5015   5014   5016     1   109.7500473 328.025600
   5016   5014   5026     1   110.5600475 386.601600
   5017   5010   5039     1   110.1100470 384.091200
   5017   5020   5021     1   109.8000471 387.438400
   5017   5020   5022     1   109.8000471 387.438400
   5018   5017   5020     1   110.5600475 386.601600
   5018   5017   5019     1   109.7500473 328.025600
   5019   5017   5020     1   110.5600475 386.601600
   5020   5029   5030     1   109.5600471 388.275200
   5020   5029   5031     1   109.5600471 388.275200
   5021   5020   5029     1   109.8000471 387.438400
   5021   5020   5022     1   107.5800459 329.699200
   5022   5020   5029     1   109.8000471 387.438400
   5023   5035   5036     1   109.5600471 388.275200
   5023   5035   5037     1   109.5600471 388.275200
   5024   5023   5035     1   109.8000471 387.438400
   5024   5023   5025     1   107.5800459 329.699200
   5025   5023   5035     1   109.8000471 387.438400
   5026   5032   5033     1   109.5600471 388.275200
   5026   5032   5034     1   109.5600471 388.275200
   5027   5026   5032     1   109.8000471 387.438400
   5027   5026   5028     1   107.5800459 329.699200
   5028   5026   5032     1   109.8000471 387.438400
   5030   5029   5038     1   109.7800468 425.094400
   5030   5029   5031     1   108.4600466 328.025600
   5031   5029   5038     1   109.7800468 425.094400
   5033   5032   9068     1   109.7800468 425.094400
   5033   5032   5034     1   108.4600466 328.025600
   5034   5032   9068     1   109.7800468 425.094400
   5036   5035   9091     1   109.7800468 425.094400
   5036   5035   5037     1   108.4600466 328.025600
   5037   5035   9091     1   109.7800468 425.094400
   5040   5041   5042     1   108.0100461 406.684800
   5040   5041   5043     1   108.0100461 406.684800
   5040   5044   5045     1   108.0100461 406.684800
   5040   5044   5046     1   108.0100461 406.684800
   5040   5047   5048     1   108.0100461 406.684800
   5040   5047   5049     1   108.0100461 406.684800
   5041   5040   5069     1   110.1100470 384.091200
   5041   5053   5054     1   109.8000471 387.438400
   5041   5053   5055     1   109.8000471 387.438400
   5042   5041   5053     1   110.5600475 386.601600
   5042   5041   5043     1   109.7500473 328.025600
   5043   5041   5053     1   110.5600475 386.601600
   5044   5040   5069     1   110.1100470 384.091200
   5044   5056   5057     1   109.8000471 387.438400
   5044   5056   5058     1   109.8000471 387.438400
   5045   5044   5056     1   110.5600475 386.601600
   5045   5044   5046     1   109.7500473 328.025600
   5046   5044   5056     1   110.5600475 386.601600
   5047   5040   5069     1   110.1100470 384.091200
   5047   5050   5051     1   109.8000471 387.438400
   5047   5050   5052     1   109.8000471 387.438400
   5048   5047   5050     1   110.5600475 386.601600
   5048   5047   5049     1   109.7500473 328.025600
   5049   5047   5050     1   110.5600475 386.601600
   5050   5059   5060     1   109.5600471 388.275200
   5050   5059   5061     1   109.5600471 388.275200
   5051   5050   5059     1   109.8000471 387.438400
   5051   5050   5052     1   107.5800459 329.699200
   5052   5050   5059     1   109.8000471 387.438400
   5053   5065   5066     1   109.5600471 388.275200
   5053   5065   5067     1   109.5600471 388.275200
   5054   5053   5065     1   109.8000471 387.438400
   5054   5053   5055     1   107.5800459 329.699200
   5055   5053   5065     1   109.8000471 387.438400
   5056   5062   5063     1   109.5600471 388.275200
   5056   5062   5064     1   109.5600471 388.275200
   5057   5056   5062     1   109.8000471 387.438400
   5057   5056   5058     1   107.5800459 329.699200
   5058   5056   5062     1   109.8000471 387.438400
   5060   5059   5068     1   109.7800468 425.094400
   5060   5059   5061     1   108.4600466 328.025600
   5061   5059   5068     1   109.7800468 425.094400
   5063   5062   9114     1   109.7800468 425.094400
   5063   5062   5064     1   108.4600466 328.025600
   5064   5062   9114     1   109.7800468 425.094400
   5066   5065   9137     1   109.7800468 425.094400
   5066   5065   5067     1   108.4600466 328.025600
   5067   5065   9137     1   109.7800468 425.094400
   5070   5071   5072     1   108.0100461 406.684800
   5070   5071   5073     1   108.0100461 406.684800
   5070   5074   5075     1   108.0100461 406.684800
   5070   5074   5076     1   108.0100461 406.684800
   5070   5077   5078     1   108.0100461 406.684800
   5070   5077   5079     1   108.0100461 406.684800
   5071   5070   5099     1   110.1100470 384.091200
   5071   5083   5084     1   109.8000471 387.438400
   5071   5083   5085     1   109.8000471 387.438400
   5072   5071   5083     1   110.5600475 386.601600
   5072   5071   5073     1   109.7500473 328.025600
   5073   5071   5083     1   110.5600475 386.601600
   5074   5070   5099     1   110.1100470 384.091200
   5074   5086   5087     1   109.8000471 387.438400
   5074   5086   5088     1   109.8000471 387.438400
   5075   5074   5086     1   110.5600475 386.601600
   5075   5074   5076     1   109.7500473 328.025600
   5076   5074   5086     1   110.5600475 386.601600
   5077   5070   5099     1   110.1100470 384.091200
   5077   5080   5081     1   109.8000471 387.438400
   5077   5080   5082     1   109.8000471 387.438400
   5078   5077   5080     1   110.5600475 386.601600
   5078   5077   5079     1   109.7500473 328.025600
   5079   5077   5080     1   110.5600475 386.601600
   5080   5089   5090     1   109.5600471 388.275200
   5080   5089   5091     1   109.5600471 388.275200
   5081   5080   5089     1   109.8000471 387.438400
   5081   5080   5082     1   107.5800459 329.699200
   5082   5080   5089     1   109.8000471 387.438400
   5083   5095   5096     1   109.5600471 388.275200
   5083   5095   5097     1   109.5600471 388.275200
   5084   5083   5095     1   109.8000471 387.438400
   5084   5083   5085     1   107.5800459 329.699200
   5085   5083   5095     1   109.8000471 387.438400
   5086   5092   5093     1   109.5600471 388.275200
   5086   5092   5094     1   109.5600471 388.275200
   5087   5086   5092     1   109.8000471 387.438400
   5087   5086   5088     1   107.5800459 329.699200
   5088   5086   5092     1   109.8000471 387.438400
   5090   5089   5098     1   109.7800468 425.094400
   5090   5089   5091     1   108.4600466 328.025600
   5091   5089   5098     1   109.7800468 425.094400
   5093   5092   9160     1   109.7800468 425.094400
   5093   5092   5094     1   108.4600466 328.025600
   5094   5092   9160     1   109.7800468 425.094400
   5096   5095   9183     1   109.7800468 425.094400
   5096   5095   5097     1   108.4600466 328.025600
   5097   5095   9183     1   109.7800468 425.094400
   5100   5101   5102     1   108.0100461 406.684800
   5100   5101   5103     1   108.0100461 406.684800
   5100   5104   5105     1   108.0100461 406.684800
   5100   5104   5106     1   108.0100461 406.684800
   5100   5107   5108     1   108.0100461 406.684800
   5100   5107   5109     1   108.0100461 406.684800
   5101   5100   5129     1   110.1100470 384.091200
   5101   5113   5114     1   109.8000471 387.438400
   5101   5113   5115     1   109.8000471 387.438400
   5102   5101   5113     1   110.5600475 386.601600
   5102   5101   5103     1   109.7500473 328.025600
   5103   5101   5113     1   110.5600475 386.601600
   5104   5100   5129     1   110.1100470 384.091200
   5104   5116   5117     1   109.8000471 387.438400
   5104   5116   5118     1   109.8000471 387.438400
   5105   5104   5116     1   110.5600475 386.601600
   5105   5104   5106     1   109.7500473 328.025600
   5106   5104   5116     1   110.5600475 386.601600
   5107   5100   5129     1   110.1100470 384.091200
   5107   5110   5111     1   109.8000471 387.438400
   5107   5110   5112     1   109.8000471 387.438400
   5108   5107   5110     1   110.5600475 386.601600
   5108   5107   5109     1   109.7500473 328.025600
   5109   5107   5110     1   110.5600475 386.601600
   5110   5119   5120     1   109.5600471 388.275200
   5110   5119   5121     1   109.5600471 388.275200
   5111   5110   5119     1   109.8000471 387.438400
   5111   5110   5112     1   107.5800459 329.699200
   5112   5110   5119     1   109.8000471 387.438400
   5113   5125   5126     1   109.5600471 388.275200
   5113   5125   5127     1   109.5600471 388.275200
   5114   5113   5125     1   109.8000471 387.438400
   5114   5113   5115     1   107.5800459 329.699200
   5115   5113   5125     1   109.8000471 387.438400
   5116   5122   5123     1   109.5600471 388.275200
   5116   5122   5124     1   109.5600471 388.275200
   5117   5116   5122     1   109.8000471 387.438400
   5117   5116   5118     1   107.5800459 329.699200
   5118   5116   5122     1   109.8000471 387.438400
   5120   5119   5128     1   109.7800468 425.094400
   5120   5119   5121     1   108.4600466 328.025600
   5121   5119   5128     1   109.7800468 425.094400
   5123   5122   9206     1   109.7800468 425.094400
   5123   5122   5124     1   108.4600466 328.025600
   5124   5122   9206     1   109.7800468 425.094400
   5126   5125   9229     1   109.7800468 425.094400
   5126   5125   5127     1   108.4600466 328.025600
   5127   5125   9229     1   109.7800468 425.094400
   5130   5131   5132     1   108.0100461 406.684800
   5130   5131   5133     1   108.0100461 406.684800
   5130   5134   5135     1   108.0100461 406.684800
   5130   5134   5136     1   108.0100461 406.684800
   5130   5137   5138     1   108.0100461 406.684800
   5130   5137   5139     1   108.0100461 406.684800
   5131   5130   5159     1   110.1100470 384.091200
   5131   5143   5144     1   109.8000471 387.438400
   5131   5143   5145     1   109.8000471 387.438400
   5132   5131   5143     1   110.5600475 386.601600
   5132   5131   5133     1   109.7500473 328.025600
   5133   5131   5143     1   110.5600475 386.601600
   5134   5130   5159     1   110.1100470 384.091200
   5134   5146   5147     1   109.8000471 387.438400
   5134   5146   5148     1   109.8000471 387.438400
   5135   5134   5146     1   110.5600475 386.601600
   5135   5134   5136     1   109.7500473 328.025600
   5136   5134   5146     1   110.5600475 386.601600
   5137   5130   5159     1   110.1100470 384.091200
   5137   5140   5141     1   109.8000471 387.438400
   5137   5140   5142     1   109.8000471 387.438400
   5138   5137   5140     1   110.5600475 386.601600
   5138   5137   5139     1   109.7500473 328.025600
   5139   5137   5140     1   110.5600475 386.601600
   5140   5149   5150     1   109.5600471 388.275200
   5140   5149   5151     1   109.5600471 388.275200
   5141   5140   5149     1   109.8000471 387.438400
   5141   5140   5142     1   107.5800459 329.699200
   5142   5140   5149     1   109.8000471 387.438400
   5143   5155   5156     1   109.5600471 388.275200
   5143   5155   5157     1   109.5600471 388.275200
   5144   5143   5155     1   109.8000471 387.438400
   5144   5143   5145     1   107.5800459 329.699200
   5145   5143   5155     1   109.8000471 387.438400
   5146   5152   5153     1   109.5600471 388.275200
   5146   5152   5154     1   109.5600471 388.275200
   5147   5146   5152     1   109.8000471 387.438400
   5147   5146   5148     1   107.5800459 329.699200
   5148   5146   5152     1   109.8000471 387.438400
   5150   5149   5158     1   109.7800468 425.094400
   5150   5149   5151     1   108.4600466 328.025600
   5151   5149   5158     1   109.7800468 425.094400
   5153   5152   9252     1   109.7800468 425.094400
   5153   5152   5154     1   108.4600466 328.025600
   5154   5152   9252     1   109.7800468 425.094400
   5156   5155   9275     1   109.7800468 425.094400
   5156   5155   5157     1   108.4600466 328.025600
   5157   5155   9275     1   109.7800468 425.094400
   5160   5161   5162     1   108.0100461 406.684800
   5160   5161   5163     1   108.0100461 406.684800
   5160   5164   5165     1   108.0100461 406.684800
   5160   5164   5166     1   108.0100461 406.684800
   5160   5167   5168     1   108.0100461 406.684800
   5160   5167   5169     1   108.0100461 406.684800
   5161   5160   5189     1   110.1100470 384.091200
   5161   5173   5174     1   109.8000471 387.438400
   5161   5173   5175     1   109.8000471 387.438400
   5162   5161   5173     1   110.5600475 386.601600
   5162   5161   5163     1   109.7500473 328.025600
   5163   5161   5173     1   110.5600475 386.601600
   5164   5160   5189     1   110.1100470 384.091200
   5164   5176   5177     1   109.8000471 387.438400
   5164   5176   5178     1   109.8000471 387.438400
   5165   5164   5176     1   110.5600475 386.601600
   5165   5164   5166     1   109.7500473 328.025600
   5166   5164   5176     1   110.5600475 386.601600
   5167   5160   5189     1   110.1100470 384.091200
   5167   5170   5171     1   109.8000471 387.438400
   5167   5170   5172     1   109.8000471 387.438400
   5168   5167   5170     1   110.5600475 386.601600
   5168   5167   5169     1   109.7500473 328.025600
   5169   5167   5170     1   110.5600475 386.601600
   5170   5179   5180     1   109.5600471 388.275200
   5170   5179   5181     1   109.5600471 388.275200
   5171   5170   5179     1   109.8000471 387.438400
   5171   5170   5172     1   107.5800459 329.699200
   5172   5170   5179     1   109.8000471 387.438400
   5173   5185   5186     1   109.5600471 388.275200
   5173   5185   5187     1   109.5600471 388.275200
   5174   5173   5185     1   109.8000471 387.438400
   5174   5173   5175     1   107.5800459 329.699200
   5175   5173   5185     1   109.8000471 387.438400
   5176   5182   5183     1   109.5600471 388.275200
   5176   5182   5184     1   109.5600471 388.275200
   5177   5176   5182     1   109.8000471 387.438400
   5177   5176   5178     1   107.5800459 329.699200
   5178   5176   5182     1   109.8000471 387.438400
   5180   5179   5188     1   109.7800468 425.094400
   5180   5179   5181     1   108.4600466 328.025600
   5181   5179   5188     1   109.7800468 425.094400
   5183   5182   9298     1   109.7800468 425.094400
   5183   5182   5184     1   108.4600466 328.025600
   5184   5182   9298     1   109.7800468 425.094400
   5186   5185   9321     1   109.7800468 425.094400
   5186   5185   5187     1   108.4600466 328.025600
   5187   5185   9321     1   109.7800468 425.094400
   5190   5191   5192     1   108.0100461 406.684800
   5190   5191   5193     1   108.0100461 406.684800
   5190   5194   5195     1   108.0100461 406.684800
   5190   5194   5196     1   108.0100461 406.684800
   5190   5197   5198     1   108.0100461 406.684800
   5190   5197   5199     1   108.0100461 406.684800
   5191   5190   5219     1   110.1100470 384.091200
   5191   5203   5204     1   109.8000471 387.438400
   5191   5203   5205     1   109.8000471 387.438400
   5192   5191   5203     1   110.5600475 386.601600
   5192   5191   5193     1   109.7500473 328.025600
   5193   5191   5203     1   110.5600475 386.601600
   5194   5190   5219     1   110.1100470 384.091200
   5194   5206   5207     1   109.8000471 387.438400
   5194   5206   5208     1   109.8000471 387.438400
   5195   5194   5206     1   110.5600475 386.601600
   5195   5194   5196     1   109.7500473 328.025600
   5196   5194   5206     1   110.5600475 386.601600
   5197   5190   5219     1   110.1100470 384.091200
   5197   5200   5201     1   109.8000471 387.438400
   5197   5200   5202     1   109.8000471 387.438400
   5198   5197   5200     1   110.5600475 386.601600
   5198   5197   5199     1   109.7500473 328.025600
   5199   5197   5200     1   110.5600475 386.601600
   5200   5209   5210     1   109.5600471 388.275200
   5200   5209   5211     1   109.5600471 388.275200
   5201   5200   5209     1   109.8000471 387.438400
   5201   5200   5202     1   107.5800459 329.699200
   5202   5200   5209     1   109.8000471 387.438400
   5203   5215   5216     1   109.5600471 388.275200
   5203   5215   5217     1   109.5600471 388.275200
   5204   5203   5215     1   109.8000471 387.438400
   5204   5203   5205     1   107.5800459 329.699200
   5205   5203   5215     1   109.8000471 387.438400
   5206   5212   5213     1   109.5600471 388.275200
   5206   5212   5214     1   109.5600471 388.275200
   5207   5206   5212     1   109.8000471 387.438400
   5207   5206   5208     1   107.5800459 329.699200
   5208   5206   5212     1   109.8000471 387.438400
   5210   5209   5218     1   109.7800468 425.094400
   5210   5209   5211     1   108.4600466 328.025600
   5211   5209   5218     1   109.7800468 425.094400
   5213   5212   9344     1   109.7800468 425.094400
   5213   5212   5214     1   108.4600466 328.025600
   5214   5212   9344     1   109.7800468 425.094400
   5216   5215   9367     1   109.7800468 425.094400
   5216   5215   5217     1   108.4600466 328.025600
   5217   5215   9367     1   109.7800468 425.094400
   5220   5221   5222     1   108.0100461 406.684800
   5220   5221   5223     1   108.0100461 406.684800
   5220   5224   5225     1   108.0100461 406.684800
   5220   5224   5226     1   108.0100461 406.684800
   5220   5227   5228     1   108.0100461 406.684800
   5220   5227   5229     1   108.0100461 406.684800
   5221   5220   5249     1   110.1100470 384.091200
   5221   5233   5234     1   109.8000471 387.438400
   5221   5233   5235     1   109.8000471 387.438400
   5222   5221   5233     1   110.5600475 386.601600
   5222   5221   5223     1   109.7500473 328.025600
   5223   5221   5233     1   110.5600475 386.601600
   5224   5220   5249     1   110.1100470 384.091200
   5224   5236   5237     1   109.8000471 387.438400
   5224   5236   5238     1   109.8000471 387.438400
   5225   5224   5236     1   110.5600475 386.601600
   5225   5224   5226     1   109.7500473 328.025600
   5226   5224   5236     1   110.5600475 386.601600
   5227   5220   5249     1   110.1100470 384.091200
   5227   5230   5231     1   109.8000471 387.438400
   5227   5230   5232     1   109.8000471 387.438400
   5228   5227   5230     1   110.5600475 386.601600
   5228   5227   5229     1   109.7500473 328.025600
   5229   5227   5230     1   110.5600475 386.601600
   5230   5239   5240     1   109.5600471 388.275200
   5230   5239   5241     1   109.5600471 388.275200
   5231   5230   5239     1   109.8000471 387.438400
   5231   5230   5232     1   107.5800459 329.699200
   5232   5230   5239     1   109.8000471 387.438400
   5233   5245   5246     1   109.5600471 388.275200
   5233   5245   5247     1   109.5600471 388.275200
   5234   5233   5245     1   109.8000471 387.438400
   5234   5233   5235     1   107.5800459 329.699200
   5235   5233   5245     1   109.8000471 387.438400
   5236   5242   5243     1   109.5600471 388.275200
   5236   5242   5244     1   109.5600471 388.275200
   5237   5236   5242     1   109.8000471 387.438400
   5237   5236   5238     1   107.5800459 329.699200
   5238   5236   5242     1   109.8000471 387.438400
   5240   5239   5248     1   109.7800468 425.094400
   5240   5239   5241     1   108.4600466 328.025600
   5241   5239   5248     1   109.7800468 425.094400
   5243   5242   9390     1   109.7800468 425.094400
   5243   5242   5244     1   108.4600466 328.025600
   5244   5242   9390     1   109.7800468 425.094400
   5246   5245   9413     1   109.7800468 425.094400
   5246   5245   5247     1   108.4600466 328.025600
   5247   5245   9413     1   109.7800468 425.094400
   5250   5251   5252     1   108.0100461 406.684800
   5250   5251   5253     1   108.0100461 406.684800
   5250   5254   5255     1   108.0100461 406.684800
   5250   5254   5256     1   108.0100461 406.684800
   5250   5257   5258     1   108.0100461 406.684800
   5250   5257   5259     1   108.0100461 406.684800
   5251   5250   5279     1   110.1100470 384.091200
   5251   5263   5264     1   109.8000471 387.438400
   5251   5263   5265     1   109.8000471 387.438400
   5252   5251   5263     1   110.5600475 386.601600
   5252   5251   5253     1   109.7500473 328.025600
   5253   5251   5263     1   110.5600475 386.601600
   5254   5250   5279     1   110.1100470 384.091200
   5254   5266   5267     1   109.8000471 387.438400
   5254   5266   5268     1   109.8000471 387.438400
   5255   5254   5266     1   110.5600475 386.601600
   5255   5254   5256     1   109.7500473 328.025600
   5256   5254   5266     1   110.5600475 386.601600
   5257   5250   5279     1   110.1100470 384.091200
   5257   5260   5261     1   109.8000471 387.438400
   5257   5260   5262     1   109.8000471 387.438400
   5258   5257   5260     1   110.5600475 386.601600
   5258   5257   5259     1   109.7500473 328.025600
   5259   5257   5260     1   110.5600475 386.601600
   5260   5269   5270     1   109.5600471 388.275200
   5260   5269   5271     1   109.5600471 388.275200
   5261   5260   5269     1   109.8000471 387.438400
   5261   5260   5262     1   107.5800459 329.699200
   5262   5260   5269     1   109.8000471 387.438400
   5263   5275   5276     1   109.5600471 388.275200
   5263   5275   5277     1   109.5600471 388.275200
   5264   5263   5275     1   109.8000471 387.438400
   5264   5263   5265     1   107.5800459 329.699200
   5265   5263   5275     1   109.8000471 387.438400
   5266   5272   5273     1   109.5600471 388.275200
   5266   5272   5274     1   109.5600471 388.275200
   5267   5266   5272     1   109.8000471 387.438400
   5267   5266   5268     1   107.5800459 329.699200
   5268   5266   5272     1   109.8000471 387.438400
   5270   5269   5278     1   109.7800468 425.094400
   5270   5269   5271     1   108.4600466 328.025600
   5271   5269   5278     1   109.7800468 425.094400
   5273   5272   9436     1   109.7800468 425.094400
   5273   5272   5274     1   108.4600466 328.025600
   5274   5272   9436     1   109.7800468 425.094400
   5276   5275   9459     1   109.7800468 425.094400
   5276   5275   5277     1   108.4600466 328.025600
   5277   5275   9459     1   109.7800468 425.094400
   5280   5281   5282     1   108.0100461 406.684800
   5280   5281   5283     1   108.0100461 406.684800
   5280   5284   5285     1   108.0100461 406.684800
   5280   5284   5286     1   108.0100461 406.684800
   5280   5287   5288     1   108.0100461 406.684800
   5280   5287   5289     1   108.0100461 406.684800
   5281   5280   5309     1   110.1100470 384.091200
   5281   5293   5294     1   109.8000471 387.438400
   5281   5293   5295     1   109.8000471 387.438400
   5282   5281   5293     1   110.5600475 386.601600
   5282   5281   5283     1   109.7500473 328.025600
   5283   5281   5293     1   110.5600475 386.601600
   5284   5280   5309     1   110.1100470 384.091200
   5284   5296   5297     1   109.8000471 387.438400
   5284   5296   5298     1   109.8000471 387.438400
   5285   5284   5296     1   110.5600475 386.601600
   5285   5284   5286     1   109.7500473 328.025600
   5286   5284   5296     1   110.5600475 386.601600
   5287   5280   5309     1   110.1100470 384.091200
   5287   5290   5291     1   109.8000471 387.438400
   5287   5290   5292     1   109.8000471 387.438400
   5288   5287   5290     1   110.5600475 386.601600
   5288   5287   5289     1   109.7500473 328.025600
   5289   5287   5290     1   110.5600475 386.601600
   5290   5299   5300     1   109.5600471 388.275200
   5290   5299   5301     1   109.5600471 388.275200
   5291   5290   5299     1   109.8000471 387.438400
   5291   5290   5292     1   107.5800459 329.699200
   5292   5290   5299     1   109.8000471 387.438400
   5293   5305   5306     1   109.5600471 388.275200
   5293   5305   5307     1   109.5600471 388.275200
   5294   5293   5305     1   109.8000471 387.438400
   5294   5293   5295     1   107.5800459 329.699200
   5295   5293   5305     1   109.8000471 387.438400
   5296   5302   5303     1   109.5600471 388.275200
   5296   5302   5304     1   109.5600471 388.275200
   5297   5296   5302     1   109.8000471 387.438400
   5297   5296   5298     1   107.5800459 329.699200
   5298   5296   5302     1   109.8000471 387.438400
   5300   5299   5308     1   109.7800468 425.094400
   5300   5299   5301     1   108.4600466 328.025600
   5301   5299   5308     1   109.7800468 425.094400
   5303   5302   9482     1   109.7800468 425.094400
   5303   5302   5304     1   108.4600466 328.025600
   5304   5302   9482     1   109.7800468 425.094400
   5306   5305   9505     1   109.7800468 425.094400
   5306   5305   5307     1   108.4600466 328.025600
   5307   5305   9505     1   109.7800468 425.094400
   5310   5311   5312     1   108.0100461 406.684800
   5310   5311   5313     1   108.0100461 406.684800
   5310   5314   5315     1   108.0100461 406.684800
   5310   5314   5316     1   108.0100461 406.684800
   5310   5317   5318     1   108.0100461 406.684800
   5310   5317   5319     1   108.0100461 406.684800
   5311   5310   5339     1   110.1100470 384.091200
   5311   5323   5324     1   109.8000471 387.438400
   5311   5323   5325     1   109.8000471 387.438400
   5312   5311   5323     1   110.5600475 386.601600
   5312   5311   5313     1   109.7500473 328.025600
   5313   5311   5323     1   110.5600475 386.601600
   5314   5310   5339     1   110.1100470 384.091200
   5314   5326   5327     1   109.8000471 387.438400
   5314   5326   5328     1   109.8000471 387.438400
   5315   5314   5326     1   110.5600475 386.601600
   5315   5314   5316     1   109.7500473 328.025600
   5316   5314   5326     1   110.5600475 386.601600
   5317   5310   5339     1   110.1100470 384.091200
   5317   5320   5321     1   109.8000471 387.438400
   5317   5320   5322     1   109.8000471 387.438400
   5318   5317   5320     1   110.5600475 386.601600
   5318   5317   5319     1   109.7500473 328.025600
   5319   5317   5320     1   110.5600475 386.601600
   5320   5329   5330     1   109.5600471 388.275200
   5320   5329   5331     1   109.5600471 388.275200
   5321   5320   5329     1   109.8000471 387.438400
   5321   5320   5322     1   107.5800459 329.699200
   5322   5320   5329     1   109.8000471 387.438400
   5323   5335   5336     1   109.5600471 388.275200
   5323   5335   5337     1   109.5600471 388.275200
   5324   5323   5335     1   109.8000471 387.438400
   5324   5323   5325     1   107.5800459 329.699200
   5325   5323   5335     1   109.8000471 387.438400
   5326   5332   5333     1   109.5600471 388.275200
   5326   5332   5334     1   109.5600471 388.275200
   5327   5326   5332     1   109.8000471 387.438400
   5327   5326   5328     1   107.5800459 329.699200
   5328   5326   5332     1   109.8000471 387.438400
   5330   5329   5338     1   109.7800468 425.094400
   5330   5329   5331     1   108.4600466 328.025600
   5331   5329   5338     1   109.7800468 425.094400
   5333   5332   9528     1   109.7800468 425.094400
   5333   5332   5334     1   108.4600466 328.025600
   5334   5332   9528     1   109.7800468 425.094400
   5336   5335   9551     1   109.7800468 425.094400
   5336   5335   5337     1   108.4600466 328.025600
   5337   5335   9551     1   109.7800468 425.094400
   5340   5341   5342     1   108.0100461 406.684800
   5340   5341   5343     1   108.0100461 406.684800
   5340   5344   5345     1   108.0100461 406.684800
   5340   5344   5346     1   108.0100461 406.684800
   5340   5347   5348     1   108.0100461 406.684800
   5340   5347   5349     1   108.0100461 406.684800
   5341   5340   5369     1   110.1100470 384.091200
   5341   5353   5354     1   109.8000471 387.438400
   5341   5353   5355     1   109.8000471 387.438400
   5342   5341   5353     1   110.5600475 386.601600
   5342   5341   5343     1   109.7500473 328.025600
   5343   5341   5353     1   110.5600475 386.601600
   5344   5340   5369     1   110.1100470 384.091200
   5344   5356   5357     1   109.8000471 387.438400
   5344   5356   5358     1   109.8000471 387.438400
   5345   5344   5356     1   110.5600475 386.601600
   5345   5344   5346     1   109.7500473 328.025600
   5346   5344   5356     1   110.5600475 386.601600
   5347   5340   5369     1   110.1100470 384.091200
   5347   5350   5351     1   109.8000471 387.438400
   5347   5350   5352     1   109.8000471 387.438400
   5348   5347   5350     1   110.5600475 386.601600
   5348   5347   5349     1   109.7500473 328.025600
   5349   5347   5350     1   110.5600475 386.601600
   5350   5359   5360     1   109.5600471 388.275200
   5350   5359   5361     1   109.5600471 388.275200
   5351   5350   5359     1   109.8000471 387.438400
   5351   5350   5352     1   107.5800459 329.699200
   5352   5350   5359     1   109.8000471 387.438400
   5353   5365   5366     1   109.5600471 388.275200
   5353   5365   5367     1   109.5600471 388.275200
   5354   5353   5365     1   109.8000471 387.438400
   5354   5353   5355     1   107.5800459 329.699200
   5355   5353   5365     1   109.8000471 387.438400
   5356   5362   5363     1   109.5600471 388.275200
   5356   5362   5364     1   109.5600471 388.275200
   5357   5356   5362     1   109.8000471 387.438400
   5357   5356   5358     1   107.5800459 329.699200
   5358   5356   5362     1   109.8000471 387.438400
   5360   5359   5368     1   109.7800468 425.094400
   5360   5359   5361     1   108.4600466 328.025600
   5361   5359   5368     1   109.7800468 425.094400
   5363   5362   9574     1   109.7800468 425.094400
   5363   5362   5364     1   108.4600466 328.025600
   5364   5362   9574     1   109.7800468 425.094400
   5366   5365   9597     1   109.7800468 425.094400
   5366   5365   5367     1   108.4600466 328.025600
   5367   5365   9597     1   109.7800468 425.094400
   5370   5371   5372     1   108.0100461 406.684800
   5370   5371   5373     1   108.0100461 406.684800
   5370   5374   5375     1   108.0100461 406.684800
   5370   5374   5376     1   108.0100461 406.684800
   5370   5377   5378     1   108.0100461 406.684800
   5370   5377   5379     1   108.0100461 406.684800
   5371   5370   5399     1   110.1100470 384.091200
   5371   5383   5384     1   109.8000471 387.438400
   5371   5383   5385     1   109.8000471 387.438400
   5372   5371   5383     1   110.5600475 386.601600
   5372   5371   5373     1   109.7500473 328.025600
   5373   5371   5383     1   110.5600475 386.601600
   5374   5370   5399     1   110.1100470 384.091200
   5374   5386   5387     1   109.8000471 387.438400
   5374   5386   5388     1   109.8000471 387.438400
   5375   5374   5386     1   110.5600475 386.601600
   5375   5374   5376     1   109.7500473 328.025600
   5376   5374   5386     1   110.5600475 386.601600
   5377   5370   5399     1   110.1100470 384.091200
   5377   5380   5381     1   109.8000471 387.438400
   5377   5380   5382     1   109.8000471 387.438400
   5378   5377   5380     1   110.5600475 386.601600
   5378   5377   5379     1   109.7500473 328.025600
   5379   5377   5380     1   110.5600475 386.601600
   5380   5389   5390     1   109.5600471 388.275200
   5380   5389   5391     1   109.5600471 388.275200
   5381   5380   5389     1   109.8000471 387.438400
   5381   5380   5382     1   107.5800459 329.699200
   5382   5380   5389     1   109.8000471 387.438400
   5383   5395   5396     1   109.5600471 388.275200
   5383   5395   5397     1   109.5600471 388.275200
   5384   5383   5395     1   109.8000471 387.438400
   5384   5383   5385     1   107.5800459 329.699200
   5385   5383   5395     1   109.8000471 387.438400
   5386   5392   5393     1   109.5600471 388.275200
   5386   5392   5394     1   109.5600471 388.275200
   5387   5386   5392     1   109.8000471 387.438400
   5387   5386   5388     1   107.5800459 329.699200
   5388   5386   5392     1   109.8000471 387.438400
   5390   5389   5398     1   109.7800468 425.094400
   5390   5389   5391     1   108.4600466 328.025600
   5391   5389   5398     1   109.7800468 425.094400
   5393   5392   9620     1   109.7800468 425.094400
   5393   5392   5394     1   108.4600466 328.025600
   5394   5392   9620     1   109.7800468 425.094400
   5396   5395   9643     1   109.7800468 425.094400
   5396   5395   5397     1   108.4600466 328.025600
   5397   5395   9643     1   109.7800468 425.094400
   5400   5401   5402     1   108.0100461 406.684800
   5400   5401   5403     1   108.0100461 406.684800
   5400   5404   5405     1   108.0100461 406.684800
   5400   5404   5406     1   108.0100461 406.684800
   5400   5407   5408     1   108.0100461 406.684800
   5400   5407   5409     1   108.0100461 406.684800
   5401   5400   5429     1   110.1100470 384.091200
   5401   5413   5414     1   109.8000471 387.438400
   5401   5413   5415     1   109.8000471 387.438400
   5402   5401   5413     1   110.5600475 386.601600
   5402   5401   5403     1   109.7500473 328.025600
   5403   5401   5413     1   110.5600475 386.601600
   5404   5400   5429     1   110.1100470 384.091200
   5404   5416   5417     1   109.8000471 387.438400
   5404   5416   5418     1   109.8000471 387.438400
   5405   5404   5416     1   110.5600475 386.601600
   5405   5404   5406     1   109.7500473 328.025600
   5406   5404   5416     1   110.5600475 386.601600
   5407   5400   5429     1   110.1100470 384.091200
   5407   5410   5411     1   109.8000471 387.438400
   5407   5410   5412     1   109.8000471 387.438400
   5408   5407   5410     1   110.5600475 386.601600
   5408   5407   5409     1   109.7500473 328.025600
   5409   5407   5410     1   110.5600475 386.601600
   5410   5419   5420     1   109.5600471 388.275200
   5410   5419   5421     1   109.5600471 388.275200
   5411   5410   5419     1   109.8000471 387.438400
   5411   5410   5412     1   107.5800459 329.699200
   5412   5410   5419     1   109.8000471 387.438400
   5413   5425   5426     1   109.5600471 388.275200
   5413   5425   5427     1   109.5600471 388.275200
   5414   5413   5425     1   109.8000471 387.438400
   5414   5413   5415     1   107.5800459 329.699200
   5415   5413   5425     1   109.8000471 387.438400
   5416   5422   5423     1   109.5600471 388.275200
   5416   5422   5424     1   109.5600471 388.275200
   5417   5416   5422     1   109.8000471 387.438400
   5417   5416   5418     1   107.5800459 329.699200
   5418   5416   5422     1   109.8000471 387.438400
   5420   5419   5428     1   109.7800468 425.094400
   5420   5419   5421     1   108.4600466 328.025600
   5421   5419   5428     1   109.7800468 425.094400
   5423   5422   9666     1   109.7800468 425.094400
   5423   5422   5424     1   108.4600466 328.025600
   5424   5422   9666     1   109.7800468 425.094400
   5426   5425   9689     1   109.7800468 425.094400
   5426   5425   5427     1   108.4600466 328.025600
   5427   5425   9689     1   109.7800468 425.094400
   5430   5431   5432     1   108.0100461 406.684800
   5430   5431   5433     1   108.0100461 406.684800
   5430   5434   5435     1   108.0100461 406.684800
   5430   5434   5436     1   108.0100461 406.684800
   5430   5437   5438     1   108.0100461 406.684800
   5430   5437   5439     1   108.0100461 406.684800
   5431   5430   5459     1   110.1100470 384.091200
   5431   5443   5444     1   109.8000471 387.438400
   5431   5443   5445     1   109.8000471 387.438400
   5432   5431   5443     1   110.5600475 386.601600
   5432   5431   5433     1   109.7500473 328.025600
   5433   5431   5443     1   110.5600475 386.601600
   5434   5430   5459     1   110.1100470 384.091200
   5434   5446   5447     1   109.8000471 387.438400
   5434   5446   5448     1   109.8000471 387.438400
   5435   5434   5446     1   110.5600475 386.601600
   5435   5434   5436     1   109.7500473 328.025600
   5436   5434   5446     1   110.5600475 386.601600
   5437   5430   5459     1   110.1100470 384.091200
   5437   5440   5441     1   109.8000471 387.438400
   5437   5440   5442     1   109.8000471 387.438400
   5438   5437   5440     1   110.5600475 386.601600
   5438   5437   5439     1   109.7500473 328.025600
   5439   5437   5440     1   110.5600475 386.601600
   5440   5449   5450     1   109.5600471 388.275200
   5440   5449   5451     1   109.5600471 388.275200
   5441   5440   5449     1   109.8000471 387.438400
   5441   5440   5442     1   107.5800459 329.699200
   5442   5440   5449     1   109.8000471 387.438400
   5443   5455   5456     1   109.5600471 388.275200
   5443   5455   5457     1   109.5600471 388.275200
   5444   5443   5455     1   109.8000471 387.438400
   5444   5443   5445     1   107.5800459 329.699200
   5445   5443   5455     1   109.8000471 387.438400
   5446   5452   5453     1   109.5600471 388.275200
   5446   5452   5454     1   109.5600471 388.275200
   5447   5446   5452     1   109.8000471 387.438400
   5447   5446   5448     1   107.5800459 329.699200
   5448   5446   5452     1   109.8000471 387.438400
   5450   5449   5458     1   109.7800468 425.094400
   5450   5449   5451     1   108.4600466 328.025600
   5451   5449   5458     1   109.7800468 425.094400
   5453   5452   9712     1   109.7800468 425.094400
   5453   5452   5454     1   108.4600466 328.025600
   5454   5452   9712     1   109.7800468 425.094400
   5456   5455   9735     1   109.7800468 425.094400
   5456   5455   5457     1   108.4600466 328.025600
   5457   5455   9735     1   109.7800468 425.094400
   5460   5461   5462     1   108.0100461 406.684800
   5460   5461   5463     1   108.0100461 406.684800
   5460   5464   5465     1   108.0100461 406.684800
   5460   5464   5466     1   108.0100461 406.684800
   5460   5467   5468     1   108.0100461 406.684800
   5460   5467   5469     1   108.0100461 406.684800
   5461   5460   5489     1   110.1100470 384.091200
   5461   5473   5474     1   109.8000471 387.438400
   5461   5473   5475     1   109.8000471 387.438400
   5462   5461   5473     1   110.5600475 386.601600
   5462   5461   5463     1   109.7500473 328.025600
   5463   5461   5473     1   110.5600475 386.601600
   5464   5460   5489     1   110.1100470 384.091200
   5464   5476   5477     1   109.8000471 387.438400
   5464   5476   5478     1   109.8000471 387.438400
   5465   5464   5476     1   110.5600475 386.601600
   5465   5464   5466     1   109.7500473 328.025600
   5466   5464   5476     1   110.5600475 386.601600
   5467   5460   5489     1   110.1100470 384.091200
   5467   5470   5471     1   109.8000471 387.438400
   5467   5470   5472     1   109.8000471 387.438400
   5468   5467   5470     1   110.5600475 386.601600
   5468   5467   5469     1   109.7500473 328.025600
   5469   5467   5470     1   110.5600475 386.601600
   5470   5479   5480     1   109.5600471 388.275200
   5470   5479   5481     1   109.5600471 388.275200
   5471   5470   5479     1   109.8000471 387.438400
   5471   5470   5472     1   107.5800459 329.699200
   5472   5470   5479     1   109.8000471 387.438400
   5473   5485   5486     1   109.5600471 388.275200
   5473   5485   5487     1   109.5600471 388.275200
   5474   5473   5485     1   109.8000471 387.438400
   5474   5473   5475     1   107.5800459 329.699200
   5475   5473   5485     1   109.8000471 387.438400
   5476   5482   5483     1   109.5600471 388.275200
   5476   5482   5484     1   109.5600471 388.275200
   5477   5476   5482     1   109.8000471 387.438400
   5477   5476   5478     1   107.5800459 329.699200
   5478   5476   5482     1   109.8000471 387.438400
   5480   5479   5488     1   109.7800468 425.094400
   5480   5479   5481     1   108.4600466 328.025600
   5481   5479   5488     1   109.7800468 425.094400
   5483   5482   9758     1   109.7800468 425.094400
   5483   5482   5484     1   108.4600466 328.025600
   5484   5482   9758     1   109.7800468 425.094400
   5486   5485   9781     1   109.7800468 425.094400
   5486   5485   5487     1   108.4600466 328.025600
   5487   5485   9781     1   109.7800468 425.094400
   5490   5491   5492     1   108.0100461 406.684800
   5490   5491   5493     1   108.0100461 406.684800
   5490   5494   5495     1   108.0100461 406.684800
   5490   5494   5496     1   108.0100461 406.684800
   5490   5497   5498     1   108.0100461 406.684800
   5490   5497   5499     1   108.0100461 406.684800
   5491   5490   5519     1   110.1100470 384.091200
   5491   5503   5504     1   109.8000471 387.438400
   5491   5503   5505     1   109.8000471 387.438400
   5492   5491   5503     1   110.5600475 386.601600
   5492   5491   5493     1   109.7500473 328.025600
   5493   5491   5503     1   110.5600475 386.601600
   5494   5490   5519     1   110.1100470 384.091200
   5494   5506   5507     1   109.8000471 387.438400
   5494   5506   5508     1   109.8000471 387.438400
   5495   5494   5506     1   110.5600475 386.601600
   5495   5494   5496     1   109.7500473 328.025600
   5496   5494   5506     1   110.5600475 386.601600
   5497   5490   5519     1   110.1100470 384.091200
   5497   5500   5501     1   109.8000471 387.438400
   5497   5500   5502     1   109.8000471 387.438400
   5498   5497   5500     1   110.5600475 386.601600
   5498   5497   5499     1   109.7500473 328.025600
   5499   5497   5500     1   110.5600475 386.601600
   5500   5509   5510     1   109.5600471 388.275200
   5500   5509   5511     1   109.5600471 388.275200
   5501   5500   5509     1   109.8000471 387.438400
   5501   5500   5502     1   107.5800459 329.699200
   5502   5500   5509     1   109.8000471 387.438400
   5503   5515   5516     1   109.5600471 388.275200
   5503   5515   5517     1   109.5600471 388.275200
   5504   5503   5515     1   109.8000471 387.438400
   5504   5503   5505     1   107.5800459 329.699200
   5505   5503   5515     1   109.8000471 387.438400
   5506   5512   5513     1   109.5600471 388.275200
   5506   5512   5514     1   109.5600471 388.275200
   5507   5506   5512     1   109.8000471 387.438400
   5507   5506   5508     1   107.5800459 329.699200
   5508   5506   5512     1   109.8000471 387.438400
   5510   5509   5518     1   109.7800468 425.094400
   5510   5509   5511     1   108.4600466 328.025600
   5511   5509   5518     1   109.7800468 425.094400
   5513   5512   9804     1   109.7800468 425.094400
   5513   5512   5514     1   108.4600466 328.025600
   5514   5512   9804     1   109.7800468 425.094400
   5516   5515   9827     1   109.7800468 425.094400
   5516   5515   5517     1   108.4600466 328.025600
   5517   5515   9827     1   109.7800468 425.094400
   5520   5521   5522     1   108.0100461 406.684800
   5520   5521   5523     1   108.0100461 406.684800
   5520   5524   5525     1   108.0100461 406.684800
   5520   5524   5526     1   108.0100461 406.684800
   5520   5527   5528     1   108.0100461 406.684800
   5520   5527   5529     1   108.0100461 406.684800
   5521   5520   5549     1   110.1100470 384.091200
   5521   5533   5534     1   109.8000471 387.438400
   5521   5533   5535     1   109.8000471 387.438400
   5522   5521   5533     1   110.5600475 386.601600
   5522   5521   5523     1   109.7500473 328.025600
   5523   5521   5533     1   110.5600475 386.601600
   5524   5520   5549     1   110.1100470 384.091200
   5524   5536   5537     1   109.8000471 387.438400
   5524   5536   5538     1   109.8000471 387.438400
   5525   5524   5536     1   110.5600475 386.601600
   5525   5524   5526     1   109.7500473 328.025600
   5526   5524   5536     1   110.5600475 386.601600
   5527   5520   5549     1   110.1100470 384.091200
   5527   5530   5531     1   109.8000471 387.438400
   5527   5530   5532     1   109.8000471 387.438400
   5528   5527   5530     1   110.5600475 386.601600
   5528   5527   5529     1   109.7500473 328.025600
   5529   5527   5530     1   110.5600475 386.601600
   5530   5539   5540     1   109.5600471 388.275200
   5530   5539   5541     1   109.5600471 388.275200
   5531   5530   5539     1   109.8000471 387.438400
   5531   5530   5532     1   107.5800459 329.699200
   5532   5530   5539     1   109.8000471 387.438400
   5533   5545   5546     1   109.5600471 388.275200
   5533   5545   5547     1   109.5600471 388.275200
   5534   5533   5545     1   109.8000471 387.438400
   5534   5533   5535     1   107.5800459 329.699200
   5535   5533   5545     1   109.8000471 387.438400
   5536   5542   5543     1   109.5600471 388.275200
   5536   5542   5544     1   109.5600471 388.275200
   5537   5536   5542     1   109.8000471 387.438400
   5537   5536   5538     1   107.5800459 329.699200
   5538   5536   5542     1   109.8000471 387.438400
   5540   5539   5548     1   109.7800468 425.094400
   5540   5539   5541     1   108.4600466 328.025600
   5541   5539   5548     1   109.7800468 425.094400
   5543   5542   9850     1   109.7800468 425.094400
   5543   5542   5544     1   108.4600466 328.025600
   5544   5542   9850     1   109.7800468 425.094400
   5546   5545   9873     1   109.7800468 425.094400
   5546   5545   5547     1   108.4600466 328.025600
   5547   5545   9873     1   109.7800468 425.094400
   5550   5551   5552     1   108.0100461 406.684800
   5550   5551   5553     1   108.0100461 406.684800
   5550   5554   5555     1   108.0100461 406.684800
   5550   5554   5556     1   108.0100461 406.684800
   5550   5557   5558     1   108.0100461 406.684800
   5550   5557   5559     1   108.0100461 406.684800
   5551   5550   5579     1   110.1100470 384.091200
   5551   5563   5564     1   109.8000471 387.438400
   5551   5563   5565     1   109.8000471 387.438400
   5552   5551   5563     1   110.5600475 386.601600
   5552   5551   5553     1   109.7500473 328.025600
   5553   5551   5563     1   110.5600475 386.601600
   5554   5550   5579     1   110.1100470 384.091200
   5554   5566   5567     1   109.8000471 387.438400
   5554   5566   5568     1   109.8000471 387.438400
   5555   5554   5566     1   110.5600475 386.601600
   5555   5554   5556     1   109.7500473 328.025600
   5556   5554   5566     1   110.5600475 386.601600
   5557   5550   5579     1   110.1100470 384.091200
   5557   5560   5561     1   109.8000471 387.438400
   5557   5560   5562     1   109.8000471 387.438400
   5558   5557   5560     1   110.5600475 386.601600
   5558   5557   5559     1   109.7500473 328.025600
   5559   5557   5560     1   110.5600475 386.601600
   5560   5569   5570     1   109.5600471 388.275200
   5560   5569   5571     1   109.5600471 388.275200
   5561   5560   5569     1   109.8000471 387.438400
   5561   5560   5562     1   107.5800459 329.699200
   5562   5560   5569     1   109.8000471 387.438400
   5563   5575   5576     1   109.5600471 388.275200
   5563   5575   5577     1   109.5600471 388.275200
   5564   5563   5575     1   109.8000471 387.438400
   5564   5563   5565     1   107.5800459 329.699200
   5565   5563   5575     1   109.8000471 387.438400
   5566   5572   5573     1   109.5600471 388.275200
   5566   5572   5574     1   109.5600471 388.275200
   5567   5566   5572     1   109.8000471 387.438400
   5567   5566   5568     1   107.5800459 329.699200
   5568   5566   5572     1   109.8000471 387.438400
   5570   5569   5578     1   109.7800468 425.094400
   5570   5569   5571     1   108.4600466 328.025600
   5571   5569   5578     1   109.7800468 425.094400
   5573   5572   9896     1   109.7800468 425.094400
   5573   5572   5574     1   108.4600466 328.025600
   5574   5572   9896     1   109.7800468 425.094400
   5576   5575   9919     1   109.7800468 425.094400
   5576   5575   5577     1   108.4600466 328.025600
   5577   5575   9919     1   109.7800468 425.094400
   5580   5581   5582     1   108.0100461 406.684800
   5580   5581   5583     1   108.0100461 406.684800
   5580   5584   5585     1   108.0100461 406.684800
   5580   5584   5586     1   108.0100461 406.684800
   5580   5587   5588     1   108.0100461 406.684800
   5580   5587   5589     1   108.0100461 406.684800
   5581   5580   5609     1   110.1100470 384.091200
   5581   5593   5594     1   109.8000471 387.438400
   5581   5593   5595     1   109.8000471 387.438400
   5582   5581   5593     1   110.5600475 386.601600
   5582   5581   5583     1   109.7500473 328.025600
   5583   5581   5593     1   110.5600475 386.601600
   5584   5580   5609     1   110.1100470 384.091200
   5584   5596   5597     1   109.8000471 387.438400
   5584   5596   5598     1   109.8000471 387.438400
   5585   5584   5596     1   110.5600475 386.601600
   5585   5584   5586     1   109.7500473 328.025600
   5586   5584   5596     1   110.5600475 386.601600
   5587   5580   5609     1   110.1100470 384.091200
   5587   5590   5591     1   109.8000471 387.438400
   5587   5590   5592     1   109.8000471 387.438400
   5588   5587   5590     1   110.5600475 386.601600
   5588   5587   5589     1   109.7500473 328.025600
   5589   5587   5590     1   110.5600475 386.601600
   5590   5599   5600     1   109.5600471 388.275200
   5590   5599   5601     1   109.5600471 388.275200
   5591   5590   5599     1   109.8000471 387.438400
   5591   5590   5592     1   107.5800459 329.699200
   5592   5590   5599     1   109.8000471 387.438400
   5593   5605   5606     1   109.5600471 388.275200
   5593   5605   5607     1   109.5600471 388.275200
   5594   5593   5605     1   109.8000471 387.438400
   5594   5593   5595     1   107.5800459 329.699200
   5595   5593   5605     1   109.8000471 387.438400
   5596   5602   5603     1   109.5600471 388.275200
   5596   5602   5604     1   109.5600471 388.275200
   5597   5596   5602     1   109.8000471 387.438400
   5597   5596   5598     1   107.5800459 329.699200
   5598   5596   5602     1   109.8000471 387.438400
   5600   5599   5608     1   109.7800468 425.094400
   5600   5599   5601     1   108.4600466 328.025600
   5601   5599   5608     1   109.7800468 425.094400
   5603   5602   9942     1   109.7800468 425.094400
   5603   5602   5604     1   108.4600466 328.025600
   5604   5602   9942     1   109.7800468 425.094400
   5606   5605   9965     1   109.7800468 425.094400
   5606   5605   5607     1   108.4600466 328.025600
   5607   5605   9965     1   109.7800468 425.094400
   5610   5611   5612     1   108.0100461 406.684800
   5610   5611   5613     1   108.0100461 406.684800
   5610   5614   5615     1   108.0100461 406.684800
   5610   5614   5616     1   108.0100461 406.684800
   5610   5617   5618     1   108.0100461 406.684800
   5610   5617   5619     1   108.0100461 406.684800
   5611   5610   5639     1   110.1100470 384.091200
   5611   5623   5624     1   109.8000471 387.438400
   5611   5623   5625     1   109.8000471 387.438400
   5612   5611   5623     1   110.5600475 386.601600
   5612   5611   5613     1   109.7500473 328.025600
   5613   5611   5623     1   110.5600475 386.601600
   5614   5610   5639     1   110.1100470 384.091200
   5614   5626   5627     1   109.8000471 387.438400
   5614   5626   5628     1   109.8000471 387.438400
   5615   5614   5626     1   110.5600475 386.601600
   5615   5614   5616     1   109.7500473 328.025600
   5616   5614   5626     1   110.5600475 386.601600
   5617   5610   5639     1   110.1100470 384.091200
   5617   5620   5621     1   109.8000471 387.438400
   5617   5620   5622     1   109.8000471 387.438400
   5618   5617   5620     1   110.5600475 386.601600
   5618   5617   5619     1   109.7500473 328.025600
   5619   5617   5620     1   110.5600475 386.601600
   5620   5629   5630     1   109.5600471 388.275200
   5620   5629   5631     1   109.5600471 388.275200
   5621   5620   5629     1   109.8000471 387.438400
   5621   5620   5622     1   107.5800459 329.699200
   5622   5620   5629     1   109.8000471 387.438400
   5623   5635   5636     1   109.5600471 388.275200
   5623   5635   5637     1   109.5600471 388.275200
   5624   5623   5635     1   109.8000471 387.438400
   5624   5623   5625     1   107.5800459 329.699200
   5625   5623   5635     1   109.8000471 387.438400
   5626   5632   5633     1   109.5600471 388.275200
   5626   5632   5634     1   109.5600471 388.275200
   5627   5626   5632     1   109.8000471 387.438400
   5627   5626   5628     1   107.5800459 329.699200
   5628   5626   5632     1   109.8000471 387.438400
   5630   5629   5638     1   109.7800468 425.094400
   5630   5629   5631     1   108.4600466 328.025600
   5631   5629   5638     1   109.7800468 425.094400
   5633   5632   9988     1   109.7800468 425.094400
   5633   5632   5634     1   108.4600466 328.025600
   5634   5632   9988     1   109.7800468 425.094400
   5636   5635  10011     1   109.7800468 425.094400
   5636   5635   5637     1   108.4600466 328.025600
   5637   5635  10011     1   109.7800468 425.094400
   5640   5641   5642     1   108.0100461 406.684800
   5640   5641   5643     1   108.0100461 406.684800
   5640   5644   5645     1   108.0100461 406.684800
   5640   5644   5646     1   108.0100461 406.684800
   5640   5647   5648     1   108.0100461 406.684800
   5640   5647   5649     1   108.0100461 406.684800
   5641   5640   5669     1   110.1100470 384.091200
   5641   5653   5654     1   109.8000471 387.438400
   5641   5653   5655     1   109.8000471 387.438400
   5642   5641   5653     1   110.5600475 386.601600
   5642   5641   5643     1   109.7500473 328.025600
   5643   5641   5653     1   110.5600475 386.601600
   5644   5640   5669     1   110.1100470 384.091200
   5644   5656   5657     1   109.8000471 387.438400
   5644   5656   5658     1   109.8000471 387.438400
   5645   5644   5656     1   110.5600475 386.601600
   5645   5644   5646     1   109.7500473 328.025600
   5646   5644   5656     1   110.5600475 386.601600
   5647   5640   5669     1   110.1100470 384.091200
   5647   5650   5651     1   109.8000471 387.438400
   5647   5650   5652     1   109.8000471 387.438400
   5648   5647   5650     1   110.5600475 386.601600
   5648   5647   5649     1   109.7500473 328.025600
   5649   5647   5650     1   110.5600475 386.601600
   5650   5659   5660     1   109.5600471 388.275200
   5650   5659   5661     1   109.5600471 388.275200
   5651   5650   5659     1   109.8000471 387.438400
   5651   5650   5652     1   107.5800459 329.699200
   5652   5650   5659     1   109.8000471 387.438400
   5653   5665   5666     1   109.5600471 388.275200
   5653   5665   5667     1   109.5600471 388.275200
   5654   5653   5665     1   109.8000471 387.438400
   5654   5653   5655     1   107.5800459 329.699200
   5655   5653   5665     1   109.8000471 387.438400
   5656   5662   5663     1   109.5600471 388.275200
   5656   5662   5664     1   109.5600471 388.275200
   5657   5656   5662     1   109.8000471 387.438400
   5657   5656   5658     1   107.5800459 329.699200
   5658   5656   5662     1   109.8000471 387.438400
   5660   5659   5668     1   109.7800468 425.094400
   5660   5659   5661     1   108.4600466 328.025600
   5661   5659   5668     1   109.7800468 425.094400
   5663   5662  10034     1   109.7800468 425.094400
   5663   5662   5664     1   108.4600466 328.025600
   5664   5662  10034     1   109.7800468 425.094400
   5666   5665  10057     1   109.7800468 425.094400
   5666   5665   5667     1   108.4600466 328.025600
   5667   5665  10057     1   109.7800468 425.094400
   5670   5671   5672     1   108.0100461 406.684800
   5670   5671   5673     1   108.0100461 406.684800
   5670   5674   5675     1   108.0100461 406.684800
   5670   5674   5676     1   108.0100461 406.684800
   5670   5677   5678     1   108.0100461 406.684800
   5670   5677   5679     1   108.0100461 406.684800
   5671   5670   5699     1   110.1100470 384.091200
   5671   5683   5684     1   109.8000471 387.438400
   5671   5683   5685     1   109.8000471 387.438400
   5672   5671   5683     1   110.5600475 386.601600
   5672   5671   5673     1   109.7500473 328.025600
   5673   5671   5683     1   110.5600475 386.601600
   5674   5670   5699     1   110.1100470 384.091200
   5674   5686   5687     1   109.8000471 387.438400
   5674   5686   5688     1   109.8000471 387.438400
   5675   5674   5686     1   110.5600475 386.601600
   5675   5674   5676     1   109.7500473 328.025600
   5676   5674   5686     1   110.5600475 386.601600
   5677   5670   5699     1   110.1100470 384.091200
   5677   5680   5681     1   109.8000471 387.438400
   5677   5680   5682     1   109.8000471 387.438400
   5678   5677   5680     1   110.5600475 386.601600
   5678   5677   5679     1   109.7500473 328.025600
   5679   5677   5680     1   110.5600475 386.601600
   5680   5689   5690     1   109.5600471 388.275200
   5680   5689   5691     1   109.5600471 388.275200
   5681   5680   5689     1   109.8000471 387.438400
   5681   5680   5682     1   107.5800459 329.699200
   5682   5680   5689     1   109.8000471 387.438400
   5683   5695   5696     1   109.5600471 388.275200
   5683   5695   5697     1   109.5600471 388.275200
   5684   5683   5695     1   109.8000471 387.438400
   5684   5683   5685     1   107.5800459 329.699200
   5685   5683   5695     1   109.8000471 387.438400
   5686   5692   5693     1   109.5600471 388.275200
   5686   5692   5694     1   109.5600471 388.275200
   5687   5686   5692     1   109.8000471 387.438400
   5687   5686   5688     1   107.5800459 329.699200
   5688   5686   5692     1   109.8000471 387.438400
   5690   5689   5698     1   109.7800468 425.094400
   5690   5689   5691     1   108.4600466 328.025600
   5691   5689   5698     1   109.7800468 425.094400
   5693   5692  10080     1   109.7800468 425.094400
   5693   5692   5694     1   108.4600466 328.025600
   5694   5692  10080     1   109.7800468 425.094400
   5696   5695  10103     1   109.7800468 425.094400
   5696   5695   5697     1   108.4600466 328.025600
   5697   5695  10103     1   109.7800468 425.094400
   5700   5701   5703     1   109.5600471 388.275200
   5700   5714   5718     1   109.5600471 388.275200
   5700   5714   5719     1   109.5600471 388.275200
   5701   5700   5702     1   109.5600471 388.275200
   5701   5704   5708     1   109.5600471 388.275200
   5701   5713   5716     1   107.2600461 396.643200
   5702   5700   5714     1   109.5600471 388.275200
   5702   5700   5722     1   109.7800468 425.094400
   5703   5701   5704     1   109.5600471 388.275200
   5703   5701   5713     1   110.2600474 425.931200
   5704   5705   5707     1   109.5600471 388.275200
   5704   5712   5715     1   107.2600461 396.643200
   5705   5704   5708     1   109.5600471 388.275200
   5705   5706   5709     1   110.2200475 386.601600
   5705   5711   5717     1   107.2600461 396.643200
   5706   5705   5707     1   109.5600471 388.275200
   5707   5705   5711     1   110.2600474 425.931200
   5708   5704   5712     1   110.2600474 425.931200
   5709   5706   5710     1   109.5800467 425.931200
   5709   5706   5722     1   109.5800467 425.931200
   5714   5720   5721     1   107.2600461 396.643200
   5718   5714   5720     1   110.2600474 425.931200
   5718   5714   5719     1   108.4600466 328.025600
   5719   5714   5720     1   110.2600474 425.931200
   5723   5724   5726     1   109.5600471 388.275200
   5723   5737   5741     1   109.5600471 388.275200
   5723   5737   5742     1   109.5600471 388.275200
   5724   5727   5731     1   109.5600471 388.275200
   5724   5736   5739     1   107.2600461 396.643200
   5724   5723   5725     1   109.5600471 388.275200
   5725   5723   5737     1   109.5600471 388.275200
   5725   5723   5745     1   109.7800468 425.094400
   5726   5724   5727     1   109.5600471 388.275200
   5726   5724   5736     1   110.2600474 425.931200
   5727   5728   5730     1   109.5600471 388.275200
   5727   5735   5738     1   107.2600461 396.643200
   5728   5729   5732     1   110.2200475 386.601600
   5728   5734   5740     1   107.2600461 396.643200
   5728   5727   5731     1   109.5600471 388.275200
   5729   5728   5730     1   109.5600471 388.275200
   5730   5728   5734     1   110.2600474 425.931200
   5731   5727   5735     1   110.2600474 425.931200
   5732   5729   5733     1   109.5800467 425.931200
   5732   5729   5745     1   109.5800467 425.931200
   5737   5743   5744     1   107.2600461 396.643200
   5741   5737   5743     1   110.2600474 425.931200
   5741   5737   5742     1   108.4600466 328.025600
   5742   5737   5743     1   110.2600474 425.931200
   5746   5747   5749     1   109.5600471 388.275200
   5746   5760   5764     1   109.5600471 388.275200
   5746   5760   5765     1   109.5600471 388.275200
   5747   5746   5748     1   109.5600471 388.275200
   5747   5750   5754     1   109.5600471 388.275200
   5747   5759   5762     1   107.2600461 396.643200
   5748   5746   5760     1   109.5600471 388.275200
   5748   5746   5768     1   109.7800468 425.094400
   5749   5747   5750     1   109.5600471 388.275200
   5749   5747   5759     1   110.2600474 425.931200
   5750   5751   5753     1   109.5600471 388.275200
   5750   5758   5761     1   107.2600461 396.643200
   5751   5750   5754     1   109.5600471 388.275200
   5751   5752   5755     1   110.2200475 386.601600
   5751   5757   5763     1   107.2600461 396.643200
   5752   5751   5753     1   109.5600471 388.275200
   5753   5751   5757     1   110.2600474 425.931200
   5754   5750   5758     1   110.2600474 425.931200
   5755   5752   5756     1   109.5800467 425.931200
   5755   5752   5768     1   109.5800467 425.931200
   5760   5766   5767     1   107.2600461 396.643200
   5764   5760   5766     1   110.2600474 425.931200
   5764   5760   5765     1   108.4600466 328.025600
   5765   5760   5766     1   110.2600474 425.931200
   5769   5770   5772     1   109.5600471 388.275200
   5769   5783   5787     1   109.5600471 388.275200
   5769   5783   5788     1   109.5600471 388.275200
   5770   5773   5777     1   109.5600471 388.275200
   5770   5782   5785     1   107.2600461 396.643200
   5770   5769   5771     1   109.5600471 388.275200
   5771   5769   5783     1   109.5600471 388.275200
   5771   5769   5791     1   109.7800468 425.094400
   5772   5770   5773     1   109.5600471 388.275200
   5772   5770   5782     1   110.2600474 425.931200
   5773   5774   5776     1   109.5600471 388.275200
   5773   5781   5784     1   107.2600461 396.643200
   5774   5775   5778     1   110.2200475 386.601600
   5774   5780   5786     1   107.2600461 396.643200
   5774   5773   5777     1   109.5600471 388.275200
   5775   5774   5776     1   109.5600471 388.275200
   5776   5774   5780     1   110.2600474 425.931200
   5777   5773   5781     1   110.2600474 425.931200
   5778   5775   5779     1   109.5800467 425.931200
   5778   5775   5791     1   109.5800467 425.931200
   5783   5789   5790     1   107.2600461 396.643200
   5787   5783   5789     1   110.2600474 425.931200
   5787   5783   5788     1   108.4600466 328.025600
   5788   5783   5789     1   110.2600474 425.931200
   5792   5793   5795     1   109.5600471 388.275200
   5792   5806   5810     1   109.5600471 388.275200
   5792   5806   5811     1   109.5600471 388.275200
   5793   5792   5794     1   109.5600471 388.275200
   5793   5796   5800     1   109.5600471 388.275200
   5793   5805   5808     1   107.2600461 396.643200
   5794   5792   5806     1   109.5600471 388.275200
   5794   5792   5814     1   109.7800468 425.094400
   5795   5793   5796     1   109.5600471 388.275200
   5795   5793   5805     1   110.2600474 425.931200
   5796   5797   5799     1   109.5600471 388.275200
   5796   5804   5807     1   107.2600461 396.643200
   5797   5796   5800     1   109.5600471 388.275200
   5797   5798   5801     1   110.2200475 386.601600
   5797   5803   5809     1   107.2600461 396.643200
   5798   5797   5799     1   109.5600471 388.275200
   5799   5797   5803     1   110.2600474 425.931200
   5800   5796   5804     1   110.2600474 425.931200
   5801   5798   5802     1   109.5800467 425.931200
   5801   5798   5814     1   109.5800467 425.931200
   5806   5812   5813     1   107.2600461 396.643200
   5810   5806   5812     1   110.2600474 425.931200
   5810   5806   5811     1   108.4600466 328.025600
   5811   5806   5812     1   110.2600474 425.931200
   5815   5816   5818     1   109.5600471 388.275200
   5815   5829   5833     1   109.5600471 388.275200
   5815   5829   5834     1   109.5600471 388.275200
   5816   5819   5823     1   109.5600471 388.275200
   5816   5828   5831     1   107.2600461 396.643200
   5816   5815   5817     1   109.5600471 388.275200
   5817   5815   5829     1   109.5600471 388.275200
   5817   5815   5837     1   109.7800468 425.094400
   5818   5816   5819     1   109.5600471 388.275200
   5818   5816   5828     1   110.2600474 425.931200
   5819   5820   5822     1   109.5600471 388.275200
   5819   5827   5830     1   107.2600461 396.643200
   5820   5821   5824     1   110.2200475 386.601600
   5820   5826   5832     1   107.2600461 396.643200
   5820   5819   5823     1   109.5600471 388.275200
   5821   5820   5822     1   109.5600471 388.275200
   5822   5820   5826     1   110.2600474 425.931200
   5823   5819   5827     1   110.2600474 425.931200
   5824   5821   5825     1   109.5800467 425.931200
   5824   5821   5837     1   109.5800467 425.931200
   5829   5835   5836     1   107.2600461 396.643200
   5833   5829   5835     1   110.2600474 425.931200
   5833   5829   5834     1   108.4600466 328.025600
   5834   5829   5835     1   110.2600474 425.931200
   5838   5839   5841     1   109.5600471 388.275200
   5838   5852   5856     1   109.5600471 388.275200
   5838   5852   5857     1   109.5600471 388.275200
   5839   5838   5840     1   109.5600471 388.275200
   5839   5842   5846     1   109.5600471 388.275200
   5839   5851   5854     1   107.2600461 396.643200
   5840   5838   5852     1   109.5600471 388.275200
   5840   5838   5860     1   109.7800468 425.094400
   5841   5839   5842     1   109.5600471 388.275200
   5841   5839   5851     1   110.2600474 425.931200
   5842   5843   5845     1   109.5600471 388.275200
   5842   5850   5853     1   107.2600461 396.643200
   5843   5842   5846     1   109.5600471 388.275200
   5843   5844   5847     1   110.2200475 386.601600
   5843   5849   5855     1   107.2600461 396.643200
   5844   5843   5845     1   109.5600471 388.275200
   5845   5843   5849     1   110.2600474 425.931200
   5846   5842   5850     1   110.2600474 425.931200
   5847   5844   5848     1   109.5800467 425.931200
   5847   5844   5860     1   109.5800467 425.931200
   5852   5858   5859     1   107.2600461 396.643200
   5856   5852   5858     1   110.2600474 425.931200
   5856   5852   5857     1   108.4600466 328.025600
   5857   5852   5858     1   110.2600474 425.931200
   5861   5862   5864     1   109.5600471 388.275200
   5861   5875   5879     1   109.5600471 388.275200
   5861   5875   5880     1   109.5600471 388.275200
   5862   5865   5869     1   109.5600471 388.275200
   5862   5874   5877     1   107.2600461 396.643200
   5862   5861   5863     1   109.5600471 388.275200
   5863   5861   5875     1   109.5600471 388.275200
   5863   5861   5883     1   109.7800468 425.094400
   5864   5862   5865     1   109.5600471 388.275200
   5864   5862   5874     1   110.2600474 425.931200
   5865   5866   5868     1   109.5600471 388.275200
   5865   5873   5876     1   107.2600461 396.643200
   5866   5867   5870     1   110.2200475 386.601600
   5866   5872   5878     1   107.2600461 396.643200
   5866   5865   5869     1   109.5600471 388.275200
   5867   5866   5868     1   109.5600471 388.275200
   5868   5866   5872     1   110.2600474 425.931200
   5869   5865   5873     1   110.2600474 425.931200
   5870   5867   5871     1   109.5800467 425.931200
   5870   5867   5883     1   109.5800467 425.931200
   5875   5881   5882     1   107.2600461 396.643200
   5879   5875   5881     1   110.2600474 425.931200
   5879   5875   5880     1   108.4600466 328.025600
   5880   5875   5881     1   110.2600474 425.931200
   5884   5885   5887     1   109.5600471 388.275200
   5884   5898   5902     1   109.5600471 388.275200
   5884   5898   5903     1   109.5600471 388.275200
   5885   5884   5886     1   109.5600471 388.275200
   5885   5888   5892     1   109.5600471 388.275200
   5885   5897   5900     1   107.2600461 396.643200
   5886   5884   5898     1   109.5600471 388.275200
   5886   5884   5906     1   109.7800468 425.094400
   5887   5885   5888     1   109.5600471 388.275200
   5887   5885   5897     1   110.2600474 425.931200
   5888   5889   5891     1   109.5600471 388.275200
   5888   5896   5899     1   107.2600461 396.643200
   5889   5888   5892     1   109.5600471 388.275200
   5889   5890   5893     1   110.2200475 386.601600
   5889   5895   5901     1   107.2600461 396.643200
   5890   5889   5891     1   109.5600471 388.275200
   5891   5889   5895     1   110.2600474 425.931200
   5892   5888   5896     1   110.2600474 425.931200
   5893   5890   5894     1   109.5800467 425.931200
   5893   5890   5906     1   109.5800467 425.931200
   5898   5904   5905     1   107.2600461 396.643200
   5902   5898   5904     1   110.2600474 425.931200
   5902   5898   5903     1   108.4600466 328.025600
   5903   5898   5904     1   110.2600474 425.931200
   5907   5908   5910     1   109.5600471 388.275200
   5907   5921   5925     1   109.5600471 388.275200
   5907   5921   5926     1   109.5600471 388.275200
   5908   5911   5915     1   109.5600471 388.275200
   5908   5920   5923     1   107.2600461 396.643200
   5908   5907   5909     1   109.5600471 388.275200
   5909   5907   5921     1   109.5600471 388.275200
   5909   5907   5929     1   109.7800468 425.094400
   5910   5908   5911     1   109.5600471 388.275200
   5910   5908   5920     1   110.2600474 425.931200
   5911   5912   5914     1   109.5600471 388.275200
   5911   5919   5922     1   107.2600461 396.643200
   5912   5913   5916     1   110.2200475 386.601600
   5912   5918   5924     1   107.2600461 396.643200
   5912   5911   5915     1   109.5600471 388.275200
   5913   5912   5914     1   109.5600471 388.275200
   5914   5912   5918     1   110.2600474 425.931200
   5915   5911   5919     1   110.2600474 425.931200
   5916   5913   5917     1   109.5800467 425.931200
   5916   5913   5929     1   109.5800467 425.931200
   5921   5927   5928     1   107.2600461 396.643200
   5925   5921   5927     1   110.2600474 425.931200
   5925   5921   5926     1   108.4600466 328.025600
   5926   5921   5927     1   110.2600474 425.931200
   5930   5931   5933     1   109.5600471 388.275200
   5930   5944   5948     1   109.5600471 388.275200
   5930   5944   5949     1   109.5600471 388.275200
   5931   5930   5932     1   109.5600471 388.275200
   5931   5934   5938     1   109.5600471 388.275200
   5931   5943   5946     1   107.2600461 396.643200
   5932   5930   5944     1   109.5600471 388.275200
   5932   5930   5952     1   109.7800468 425.094400
   5933   5931   5934     1   109.5600471 388.275200
   5933   5931   5943     1   110.2600474 425.931200
   5934   5935   5937     1   109.5600471 388.275200
   5934   5942   5945     1   107.2600461 396.643200
   5935   5934   5938     1   109.5600471 388.275200
   5935   5936   5939     1   110.2200475 386.601600
   5935   5941   5947     1   107.2600461 396.643200
   5936   5935   5937     1   109.5600471 388.275200
   5937   5935   5941     1   110.2600474 425.931200
   5938   5934   5942     1   110.2600474 425.931200
   5939   5936   5940     1   109.5800467 425.931200
   5939   5936   5952     1   109.5800467 425.931200
   5944   5950   5951     1   107.2600461 396.643200
   5948   5944   5950     1   110.2600474 425.931200
   5948   5944   5949     1   108.4600466 328.025600
   5949   5944   5950     1   110.2600474 425.931200
   5953   5954   5956     1   109.5600471 388.275200
   5953   5967   5971     1   109.5600471 388.275200
   5953   5967   5972     1   109.5600471 388.275200
   5954   5957   5961     1   109.5600471 388.275200
   5954   5966   5969     1   107.2600461 396.643200
   5954   5953   5955     1   109.5600471 388.275200
   5955   5953   5967     1   109.5600471 388.275200
   5955   5953   5975     1   109.7800468 425.094400
   5956   5954   5957     1   109.5600471 388.275200
   5956   5954   5966     1   110.2600474 425.931200
   5957   5958   5960     1   109.5600471 388.275200
   5957   5965   5968     1   107.2600461 396.643200
   5958   5959   5962     1   110.2200475 386.601600
   5958   5964   5970     1   107.2600461 396.643200
   5958   5957   5961     1   109.5600471 388.275200
   5959   5958   5960     1   109.5600471 388.275200
   5960   5958   5964     1   110.2600474 425.931200
   5961   5957   5965     1   110.2600474 425.931200
   5962   5959   5963     1   109.5800467 425.931200
   5962   5959   5975     1   109.5800467 425.931200
   5967   5973   5974     1   107.2600461 396.643200
   5971   5967   5973     1   110.2600474 425.931200
   5971   5967   5972     1   108.4600466 328.025600
   5972   5967   5973     1   110.2600474 425.931200
   5976   5977   5979     1   109.5600471 388.275200
   5976   5990   5994     1   109.5600471 388.275200
   5976   5990   5995     1   109.5600471 388.275200
   5977   5976   5978     1   109.5600471 388.275200
   5977   5980   5984     1   109.5600471 388.275200
   5977   5989   5992     1   107.2600461 396.643200
   5978   5976   5990     1   109.5600471 388.275200
   5978   5976   5998     1   109.7800468 425.094400
   5979   5977   5980     1   109.5600471 388.275200
   5979   5977   5989     1   110.2600474 425.931200
   5980   5981   5983     1   109.5600471 388.275200
   5980   5988   5991     1   107.2600461 396.643200
   5981   5980   5984     1   109.5600471 388.275200
   5981   5982   5985     1   110.2200475 386.601600
   5981   5987   5993     1   107.2600461 396.643200
   5982   5981   5983     1   109.5600471 388.275200
   5983   5981   5987     1   110.2600474 425.931200
   5984   5980   5988     1   110.2600474 425.931200
   5985   5982   5986     1   109.5800467 425.931200
   5985   5982   5998     1   109.5800467 425.931200
   5990   5996   5997     1   107.2600461 396.643200
   5994   5990   5996     1   110.2600474 425.931200
   5994   5990   5995     1   108.4600466 328.025600
   5995   5990   5996     1   110.2600474 425.931200
   5999   6000   6002     1   109.5600471 388.275200
   5999   6013   6017     1   109.5600471 388.275200
   5999   6013   6018     1   109.5600471 388.275200
   6000   6003   6007     1   109.5600471 388.275200
   6000   6012   6015     1   107.2600461 396.643200
   6000   5999   6001     1   109.5600471 388.275200
   6001   5999   6013     1   109.5600471 388.275200
   6001   5999   6021     1   109.7800468 425.094400
   6002   6000   6003     1   109.5600471 388.275200
   6002   6000   6012     1   110.2600474 425.931200
   6003   6004   6006     1   109.5600471 388.275200
   6003   6011   6014     1   107.2600461 396.643200
   6004   6005   6008     1   110.2200475 386.601600
   6004   6010   6016     1   107.2600461 396.643200
   6004   6003   6007     1   109.5600471 388.275200
   6005   6004   6006     1   109.5600471 388.275200
   6006   6004   6010     1   110.2600474 425.931200
   6007   6003   6011     1   110.2600474 425.931200
   6008   6005   6009     1   109.5800467 425.931200
   6008   6005   6021     1   109.5800467 425.931200
   6013   6019   6020     1   107.2600461 396.643200
   6017   6013   6019     1   110.2600474 425.931200
   6017   6013   6018     1   108.4600466 328.025600
   6018   6013   6019     1   110.2600474 425.931200
   6022   6023   6025     1   109.5600471 388.275200
   6022   6036   6040     1   109.5600471 388.275200
   6022   6036   6041     1   109.5600471 388.275200
   6023   6022   6024     1   109.5600471 388.275200
   6023   6026   6030     1   109.5600471 388.275200
   6023   6035   6038     1   107.2600461 396.643200
   6024   6022   6036     1   109.5600471 388.275200
   6024   6022   6044     1   109.7800468 425.094400
   6025   6023   6026     1   109.5600471 388.275200
   6025   6023   6035     1   110.2600474 425.931200
   6026   6027   6029     1   109.5600471 388.275200
   6026   6034   6037     1   107.2600461 396.643200
   6027   6026   6030     1   109.5600471 388.275200
   6027   6028   6031     1   110.2200475 386.601600
   6027   6033   6039     1   107.2600461 396.643200
   6028   6027   6029     1   109.5600471 388.275200
   6029   6027   6033     1   110.2600474 425.931200
   6030   6026   6034     1   110.2600474 425.931200
   6031   6028   6032     1   109.5800467 425.931200
   6031   6028   6044     1   109.5800467 425.931200
   6036   6042   6043     1   107.2600461 396.643200
   6040   6036   6042     1   110.2600474 425.931200
   6040   6036   6041     1   108.4600466 328.025600
   6041   6036   6042     1   110.2600474 425.931200
   6045   6046   6048     1   109.5600471 388.275200
   6045   6059   6063     1   109.5600471 388.275200
   6045   6059   6064     1   109.5600471 388.275200
   6046   6049   6053     1   109.5600471 388.275200
   6046   6058   6061     1   107.2600461 396.643200
   6046   6045   6047     1   109.5600471 388.275200
   6047   6045   6059     1   109.5600471 388.275200
   6047   6045   6067     1   109.7800468 425.094400
   6048   6046   6049     1   109.5600471 388.275200
   6048   6046   6058     1   110.2600474 425.931200
   6049   6050   6052     1   109.5600471 388.275200
   6049   6057   6060     1   107.2600461 396.643200
   6050   6051   6054     1   110.2200475 386.601600
   6050   6056   6062     1   107.2600461 396.643200
   6050   6049   6053     1   109.5600471 388.275200
   6051   6050   6052     1   109.5600471 388.275200
   6052   6050   6056     1   110.2600474 425.931200
   6053   6049   6057     1   110.2600474 425.931200
   6054   6051   6055     1   109.5800467 425.931200
   6054   6051   6067     1   109.5800467 425.931200
   6059   6065   6066     1   107.2600461 396.643200
   6063   6059   6065     1   110.2600474 425.931200
   6063   6059   6064     1   108.4600466 328.025600
   6064   6059   6065     1   110.2600474 425.931200
   6068   6069   6071     1   109.5600471 388.275200
   6068   6082   6086     1   109.5600471 388.275200
   6068   6082   6087     1   109.5600471 388.275200
   6069   6068   6070     1   109.5600471 388.275200
   6069   6072   6076     1   109.5600471 388.275200
   6069   6081   6084     1   107.2600461 396.643200
   6070   6068   6082     1   109.5600471 388.275200
   6070   6068   6090     1   109.7800468 425.094400
   6071   6069   6072     1   109.5600471 388.275200
   6071   6069   6081     1   110.2600474 425.931200
   6072   6073   6075     1   109.5600471 388.275200
   6072   6080   6083     1   107.2600461 396.643200
   6073   6072   6076     1   109.5600471 388.275200
   6073   6074   6077     1   110.2200475 386.601600
   6073   6079   6085     1   107.2600461 396.643200
   6074   6073   6075     1   109.5600471 388.275200
   6075   6073   6079     1   110.2600474 425.931200
   6076   6072   6080     1   110.2600474 425.931200
   6077   6074   6078     1   109.5800467 425.931200
   6077   6074   6090     1   109.5800467 425.931200
   6082   6088   6089     1   107.2600461 396.643200
   6086   6082   6088     1   110.2600474 425.931200
   6086   6082   6087     1   108.4600466 328.025600
   6087   6082   6088     1   110.2600474 425.931200
   6091   6092   6094     1   109.5600471 388.275200
   6091   6105   6109     1   109.5600471 388.275200
   6091   6105   6110     1   109.5600471 388.275200
   6092   6095   6099     1   109.5600471 388.275200
   6092   6104   6107     1   107.2600461 396.643200
   6092   6091   6093     1   109.5600471 388.275200
   6093   6091   6105     1   109.5600471 388.275200
   6093   6091   6113     1   109.7800468 425.094400
   6094   6092   6095     1   109.5600471 388.275200
   6094   6092   6104     1   110.2600474 425.931200
   6095   6096   6098     1   109.5600471 388.275200
   6095   6103   6106     1   107.2600461 396.643200
   6096   6097   6100     1   110.2200475 386.601600
   6096   6102   6108     1   107.2600461 396.643200
   6096   6095   6099     1   109.5600471 388.275200
   6097   6096   6098     1   109.5600471 388.275200
   6098   6096   6102     1   110.2600474 425.931200
   6099   6095   6103     1   110.2600474 425.931200
   6100   6097   6101     1   109.5800467 425.931200
   6100   6097   6113     1   109.5800467 425.931200
   6105   6111   6112     1   107.2600461 396.643200
   6109   6105   6111     1   110.2600474 425.931200
   6109   6105   6110     1   108.4600466 328.025600
   6110   6105   6111     1   110.2600474 425.931200
   6114   6115   6117     1   109.5600471 388.275200
   6114   6128   6132     1   109.5600471 388.275200
   6114   6128   6133     1   109.5600471 388.275200
   6115   6114   6116     1   109.5600471 388.275200
   6115   6118   6122     1   109.5600471 388.275200
   6115   6127   6130     1   107.2600461 396.643200
   6116   6114   6128     1   109.5600471 388.275200
   6116   6114   6136     1   109.7800468 425.094400
   6117   6115   6118     1   109.5600471 388.275200
   6117   6115   6127     1   110.2600474 425.931200
   6118   6119   6121     1   109.5600471 388.275200
   6118   6126   6129     1   107.2600461 396.643200
   6119   6118   6122     1   109.5600471 388.275200
   6119   6120   6123     1   110.2200475 386.601600
   6119   6125   6131     1   107.2600461 396.643200
   6120   6119   6121     1   109.5600471 388.275200
   6121   6119   6125     1   110.2600474 425.931200
   6122   6118   6126     1   110.2600474 425.931200
   6123   6120   6124     1   109.5800467 425.931200
   6123   6120   6136     1   109.5800467 425.931200
   6128   6134   6135     1   107.2600461 396.643200
   6132   6128   6134     1   110.2600474 425.931200
   6132   6128   6133     1   108.4600466 328.025600
   6133   6128   6134     1   110.2600474 425.931200
   6137   6138   6140     1   109.5600471 388.275200
   6137   6151   6155     1   109.5600471 388.275200
   6137   6151   6156     1   109.5600471 388.275200
   6138   6141   6145     1   109.5600471 388.275200
   6138   6150   6153     1   107.2600461 396.643200
   6138   6137   6139     1   109.5600471 388.275200
   6139   6137   6151     1   109.5600471 388.275200
   6139   6137   6159     1   109.7800468 425.094400
   6140   6138   6141     1   109.5600471 388.275200
   6140   6138   6150     1   110.2600474 425.931200
   6141   6142   6144     1   109.5600471 388.275200
   6141   6149   6152     1   107.2600461 396.643200
   6142   6143   6146     1   110.2200475 386.601600
   6142   6148   6154     1   107.2600461 396.643200
   6142   6141   6145     1   109.5600471 388.275200
   6143   6142   6144     1   109.5600471 388.275200
   6144   6142   6148     1   110.2600474 425.931200
   6145   6141   6149     1   110.2600474 425.931200
   6146   6143   6147     1   109.5800467 425.931200
   6146   6143   6159     1   109.5800467 425.931200
   6151   6157   6158     1   107.2600461 396.643200
   6155   6151   6157     1   110.2600474 425.931200
   6155   6151   6156     1   108.4600466 328.025600
   6156   6151   6157     1   110.2600474 425.931200
   6160   6161   6163     1   109.5600471 388.275200
   6160   6174   6178     1   109.5600471 388.275200
   6160   6174   6179     1   109.5600471 388.275200
   6161   6160   6162     1   109.5600471 388.275200
   6161   6164   6168     1   109.5600471 388.275200
   6161   6173   6176     1   107.2600461 396.643200
   6162   6160   6174     1   109.5600471 388.275200
   6162   6160   6182     1   109.7800468 425.094400
   6163   6161   6164     1   109.5600471 388.275200
   6163   6161   6173     1   110.2600474 425.931200
   6164   6165   6167     1   109.5600471 388.275200
   6164   6172   6175     1   107.2600461 396.643200
   6165   6164   6168     1   109.5600471 388.275200
   6165   6166   6169     1   110.2200475 386.601600
   6165   6171   6177     1   107.2600461 396.643200
   6166   6165   6167     1   109.5600471 388.275200
   6167   6165   6171     1   110.2600474 425.931200
   6168   6164   6172     1   110.2600474 425.931200
   6169   6166   6170     1   109.5800467 425.931200
   6169   6166   6182     1   109.5800467 425.931200
   6174   6180   6181     1   107.2600461 396.643200
   6178   6174   6180     1   110.2600474 425.931200
   6178   6174   6179     1   108.4600466 328.025600
   6179   6174   6180     1   110.2600474 425.931200
   6183   6184   6186     1   109.5600471 388.275200
   6183   6197   6201     1   109.5600471 388.275200
   6183   6197   6202     1   109.5600471 388.275200
   6184   6187   6191     1   109.5600471 388.275200
   6184   6196   6199     1   107.2600461 396.643200
   6184   6183   6185     1   109.5600471 388.275200
   6185   6183   6197     1   109.5600471 388.275200
   6185   6183   6205     1   109.7800468 425.094400
   6186   6184   6187     1   109.5600471 388.275200
   6186   6184   6196     1   110.2600474 425.931200
   6187   6188   6190     1   109.5600471 388.275200
   6187   6195   6198     1   107.2600461 396.643200
   6188   6189   6192     1   110.2200475 386.601600
   6188   6194   6200     1   107.2600461 396.643200
   6188   6187   6191     1   109.5600471 388.275200
   6189   6188   6190     1   109.5600471 388.275200
   6190   6188   6194     1   110.2600474 425.931200
   6191   6187   6195     1   110.2600474 425.931200
   6192   6189   6193     1   109.5800467 425.931200
   6192   6189   6205     1   109.5800467 425.931200
   6197   6203   6204     1   107.2600461 396.643200
   6201   6197   6203     1   110.2600474 425.931200
   6201   6197   6202     1   108.4600466 328.025600
   6202   6197   6203     1   110.2600474 425.931200
   6206   6207   6209     1   109.5600471 388.275200
   6206   6220   6224     1   109.5600471 388.275200
   6206   6220   6225     1   109.5600471 388.275200
   6207   6206   6208     1   109.5600471 388.275200
   6207   6210   6214     1   109.5600471 388.275200
   6207   6219   6222     1   107.2600461 396.643200
   6208   6206   6220     1   109.5600471 388.275200
   6208   6206   6228     1   109.7800468 425.094400
   6209   6207   6210     1   109.5600471 388.275200
   6209   6207   6219     1   110.2600474 425.931200
   6210   6211   6213     1   109.5600471 388.275200
   6210   6218   6221     1   107.2600461 396.643200
   6211   6210   6214     1   109.5600471 388.275200
   6211   6212   6215     1   110.2200475 386.601600
   6211   6217   6223     1   107.2600461 396.643200
   6212   6211   6213     1   109.5600471 388.275200
   6213   6211   6217     1   110.2600474 425.931200
   6214   6210   6218     1   110.2600474 425.931200
   6215   6212   6216     1   109.5800467 425.931200
   6215   6212   6228     1   109.5800467 425.931200
   6220   6226   6227     1   107.2600461 396.643200
   6224   6220   6226     1   110.2600474 425.931200
   6224   6220   6225     1   108.4600466 328.025600
   6225   6220   6226     1   110.2600474 425.931200
   6229   6230   6232     1   109.5600471 388.275200
   6229   6243   6247     1   109.5600471 388.275200
   6229   6243   6248     1   109.5600471 388.275200
   6230   6233   6237     1   109.5600471 388.275200
   6230   6242   6245     1   107.2600461 396.643200
   6230   6229   6231     1   109.5600471 388.275200
   6231   6229   6243     1   109.5600471 388.275200
   6231   6229   6251     1   109.7800468 425.094400
   6232   6230   6233     1   109.5600471 388.275200
   6232   6230   6242     1   110.2600474 425.931200
   6233   6234   6236     1   109.5600471 388.275200
   6233   6241   6244     1   107.2600461 396.643200
   6234   6235   6238     1   110.2200475 386.601600
   6234   6240   6246     1   107.2600461 396.643200
   6234   6233   6237     1   109.5600471 388.275200
   6235   6234   6236     1   109.5600471 388.275200
   6236   6234   6240     1   110.2600474 425.931200
   6237   6233   6241     1   110.2600474 425.931200
   6238   6235   6239     1   109.5800467 425.931200
   6238   6235   6251     1   109.5800467 425.931200
   6243   6249   6250     1   107.2600461 396.643200
   6247   6243   6249     1   110.2600474 425.931200
   6247   6243   6248     1   108.4600466 328.025600
   6248   6243   6249     1   110.2600474 425.931200
   6252   6253   6255     1   109.5600471 388.275200
   6252   6266   6270     1   109.5600471 388.275200
   6252   6266   6271     1   109.5600471 388.275200
   6253   6252   6254     1   109.5600471 388.275200
   6253   6256   6260     1   109.5600471 388.275200
   6253   6265   6268     1   107.2600461 396.643200
   6254   6252   6266     1   109.5600471 388.275200
   6254   6252   6274     1   109.7800468 425.094400
   6255   6253   6256     1   109.5600471 388.275200
   6255   6253   6265     1   110.2600474 425.931200
   6256   6257   6259     1   109.5600471 388.275200
   6256   6264   6267     1   107.2600461 396.643200
   6257   6256   6260     1   109.5600471 388.275200
   6257   6258   6261     1   110.2200475 386.601600
   6257   6263   6269     1   107.2600461 396.643200
   6258   6257   6259     1   109.5600471 388.275200
   6259   6257   6263     1   110.2600474 425.931200
   6260   6256   6264     1   110.2600474 425.931200
   6261   6258   6262     1   109.5800467 425.931200
   6261   6258   6274     1   109.5800467 425.931200
   6266   6272   6273     1   107.2600461 396.643200
   6270   6266   6272     1   110.2600474 425.931200
   6270   6266   6271     1   108.4600466 328.025600
   6271   6266   6272     1   110.2600474 425.931200
   6275   6276   6278     1   109.5600471 388.275200
   6275   6289   6293     1   109.5600471 388.275200
   6275   6289   6294     1   109.5600471 388.275200
   6276   6279   6283     1   109.5600471 388.275200
   6276   6288   6291     1   107.2600461 396.643200
   6276   6275   6277     1   109.5600471 388.275200
   6277   6275   6289     1   109.5600471 388.275200
   6277   6275   6297     1   109.7800468 425.094400
   6278   6276   6279     1   109.5600471 388.275200
   6278   6276   6288     1   110.2600474 425.931200
   6279   6280   6282     1   109.5600471 388.275200
   6279   6287   6290     1   107.2600461 396.643200
   6280   6281   6284     1   110.2200475 386.601600
   6280   6286   6292     1   107.2600461 396.643200
   6280   6279   6283     1   109.5600471 388.275200
   6281   6280   6282     1   109.5600471 388.275200
   6282   6280   6286     1   110.2600474 425.931200
   6283   6279   6287     1   110.2600474 425.931200
   6284   6281   6285     1   109.5800467 425.931200
   6284   6281   6297     1   109.5800467 425.931200
   6289   6295   6296     1   107.2600461 396.643200
   6293   6289   6295     1   110.2600474 425.931200
   6293   6289   6294     1   108.4600466 328.025600
   6294   6289   6295     1   110.2600474 425.931200
   6298   6299   6301     1   109.5600471 388.275200
   6298   6312   6316     1   109.5600471 388.275200
   6298   6312   6317     1   109.5600471 388.275200
   6299   6298   6300     1   109.5600471 388.275200
   6299   6302   6306     1   109.5600471 388.275200
   6299   6311   6314     1   107.2600461 396.643200
   6300   6298   6312     1   109.5600471 388.275200
   6300   6298   6320     1   109.7800468 425.094400
   6301   6299   6302     1   109.5600471 388.275200
   6301   6299   6311     1   110.2600474 425.931200
   6302   6303   6305     1   109.5600471 388.275200
   6302   6310   6313     1   107.2600461 396.643200
   6303   6302   6306     1   109.5600471 388.275200
   6303   6304   6307     1   110.2200475 386.601600
   6303   6309   6315     1   107.2600461 396.643200
   6304   6303   6305     1   109.5600471 388.275200
   6305   6303   6309     1   110.2600474 425.931200
   6306   6302   6310     1   110.2600474 425.931200
   6307   6304   6308     1   109.5800467 425.931200
   6307   6304   6320     1   109.5800467 425.931200
   6312   6318   6319     1   107.2600461 396.643200
   6316   6312   6318     1   110.2600474 425.931200
   6316   6312   6317     1   108.4600466 328.025600
   6317   6312   6318     1   110.2600474 425.931200
   6321   6322   6324     1   109.5600471 388.275200
   6321   6335   6339     1   109.5600471 388.275200
   6321   6335   6340     1   109.5600471 388.275200
   6322   6325   6329     1   109.5600471 388.275200
   6322   6334   6337     1   107.2600461 396.643200
   6322   6321   6323     1   109.5600471 388.275200
   6323   6321   6335     1   109.5600471 388.275200
   6323   6321   6343     1   109.7800468 425.094400
   6324   6322   6325     1   109.5600471 388.275200
   6324   6322   6334     1   110.2600474 425.931200
   6325   6326   6328     1   109.5600471 388.275200
   6325   6333   6336     1   107.2600461 396.643200
   6326   6327   6330     1   110.2200475 386.601600
   6326   6332   6338     1   107.2600461 396.643200
   6326   6325   6329     1   109.5600471 388.275200
   6327   6326   6328     1   109.5600471 388.275200
   6328   6326   6332     1   110.2600474 425.931200
   6329   6325   6333     1   110.2600474 425.931200
   6330   6327   6331     1   109.5800467 425.931200
   6330   6327   6343     1   109.5800467 425.931200
   6335   6341   6342     1   107.2600461 396.643200
   6339   6335   6341     1   110.2600474 425.931200
   6339   6335   6340     1   108.4600466 328.025600
   6340   6335   6341     1   110.2600474 425.931200
   6344   6345   6347     1   109.5600471 388.275200
   6344   6358   6362     1   109.5600471 388.275200
   6344   6358   6363     1   109.5600471 388.275200
   6345   6344   6346     1   109.5600471 388.275200
   6345   6348   6352     1   109.5600471 388.275200
   6345   6357   6360     1   107.2600461 396.643200
   6346   6344   6358     1   109.5600471 388.275200
   6346   6344   6366     1   109.7800468 425.094400
   6347   6345   6348     1   109.5600471 388.275200
   6347   6345   6357     1   110.2600474 425.931200
   6348   6349   6351     1   109.5600471 388.275200
   6348   6356   6359     1   107.2600461 396.643200
   6349   6348   6352     1   109.5600471 388.275200
   6349   6350   6353     1   110.2200475 386.601600
   6349   6355   6361     1   107.2600461 396.643200
   6350   6349   6351     1   109.5600471 388.275200
   6351   6349   6355     1   110.2600474 425.931200
   6352   6348   6356     1   110.2600474 425.931200
   6353   6350   6354     1   109.5800467 425.931200
   6353   6350   6366     1   109.5800467 425.931200
   6358   6364   6365     1   107.2600461 396.643200
   6362   6358   6364     1   110.2600474 425.931200
   6362   6358   6363     1   108.4600466 328.025600
   6363   6358   6364     1   110.2600474 425.931200
   6367   6368   6370     1   109.5600471 388.275200
   6367   6381   6385     1   109.5600471 388.275200
   6367   6381   6386     1   109.5600471 388.275200
   6368   6371   6375     1   109.5600471 388.275200
   6368   6380   6383     1   107.2600461 396.643200
   6368   6367   6369     1   109.5600471 388.275200
   6369   6367   6381     1   109.5600471 388.275200
   6369   6367   6389     1   109.7800468 425.094400
   6370   6368   6371     1   109.5600471 388.275200
   6370   6368   6380     1   110.2600474 425.931200
   6371   6372   6374     1   109.5600471 388.275200
   6371   6379   6382     1   107.2600461 396.643200
   6372   6373   6376     1   110.2200475 386.601600
   6372   6378   6384     1   107.2600461 396.643200
   6372   6371   6375     1   109.5600471 388.275200
   6373   6372   6374     1   109.5600471 388.275200
   6374   6372   6378     1   110.2600474 425.931200
   6375   6371   6379     1   110.2600474 425.931200
   6376   6373   6377     1   109.5800467 425.931200
   6376   6373   6389     1   109.5800467 425.931200
   6381   6387   6388     1   107.2600461 396.643200
   6385   6381   6387     1   110.2600474 425.931200
   6385   6381   6386     1   108.4600466 328.025600
   6386   6381   6387     1   110.2600474 425.931200
   6390   6391   6393     1   109.5600471 388.275200
   6390   6404   6408     1   109.5600471 388.275200
   6390   6404   6409     1   109.5600471 388.275200
   6391   6390   6392     1   109.5600471 388.275200
   6391   6394   6398     1   109.5600471 388.275200
   6391   6403   6406     1   107.2600461 396.643200
   6392   6390   6404     1   109.5600471 388.275200
   6392   6390   6412     1   109.7800468 425.094400
   6393   6391   6394     1   109.5600471 388.275200
   6393   6391   6403     1   110.2600474 425.931200
   6394   6395   6397     1   109.5600471 388.275200
   6394   6402   6405     1   107.2600461 396.643200
   6395   6394   6398     1   109.5600471 388.275200
   6395   6396   6399     1   110.2200475 386.601600
   6395   6401   6407     1   107.2600461 396.643200
   6396   6395   6397     1   109.5600471 388.275200
   6397   6395   6401     1   110.2600474 425.931200
   6398   6394   6402     1   110.2600474 425.931200
   6399   6396   6400     1   109.5800467 425.931200
   6399   6396   6412     1   109.5800467 425.931200
   6404   6410   6411     1   107.2600461 396.643200
   6408   6404   6410     1   110.2600474 425.931200
   6408   6404   6409     1   108.4600466 328.025600
   6409   6404   6410     1   110.2600474 425.931200
   6413   6414   6416     1   109.5600471 388.275200
   6413   6427   6431     1   109.5600471 388.275200
   6413   6427   6432     1   109.5600471 388.275200
   6414   6417   6421     1   109.5600471 388.275200
   6414   6426   6429     1   107.2600461 396.643200
   6414   6413   6415     1   109.5600471 388.275200
   6415   6413   6427     1   109.5600471 388.275200
   6415   6413   6435     1   109.7800468 425.094400
   6416   6414   6417     1   109.5600471 388.275200
   6416   6414   6426     1   110.2600474 425.931200
   6417   6418   6420     1   109.5600471 388.275200
   6417   6425   6428     1   107.2600461 396.643200
   6418   6419   6422     1   110.2200475 386.601600
   6418   6424   6430     1   107.2600461 396.643200
   6418   6417   6421     1   109.5600471 388.275200
   6419   6418   6420     1   109.5600471 388.275200
   6420   6418   6424     1   110.2600474 425.931200
   6421   6417   6425     1   110.2600474 425.931200
   6422   6419   6423     1   109.5800467 425.931200
   6422   6419   6435     1   109.5800467 425.931200
   6427   6433   6434     1   107.2600461 396.643200
   6431   6427   6433     1   110.2600474 425.931200
   6431   6427   6432     1   108.4600466 328.025600
   6432   6427   6433     1   110.2600474 425.931200
   6436   6437   6439     1   109.5600471 388.275200
   6436   6450   6454     1   109.5600471 388.275200
   6436   6450   6455     1   109.5600471 388.275200
   6437   6436   6438     1   109.5600471 388.275200
   6437   6440   6444     1   109.5600471 388.275200
   6437   6449   6452     1   107.2600461 396.643200
   6438   6436   6450     1   109.5600471 388.275200
   6438   6436   6458     1   109.7800468 425.094400
   6439   6437   6440     1   109.5600471 388.275200
   6439   6437   6449     1   110.2600474 425.931200
   6440   6441   6443     1   109.5600471 388.275200
   6440   6448   6451     1   107.2600461 396.643200
   6441   6440   6444     1   109.5600471 388.275200
   6441   6442   6445     1   110.2200475 386.601600
   6441   6447   6453     1   107.2600461 396.643200
   6442   6441   6443     1   109.5600471 388.275200
   6443   6441   6447     1   110.2600474 425.931200
   6444   6440   6448     1   110.2600474 425.931200
   6445   6442   6446     1   109.5800467 425.931200
   6445   6442   6458     1   109.5800467 425.931200
   6450   6456   6457     1   107.2600461 396.643200
   6454   6450   6456     1   110.2600474 425.931200
   6454   6450   6455     1   108.4600466 328.025600
   6455   6450   6456     1   110.2600474 425.931200
   6459   6460   6462     1   109.5600471 388.275200
   6459   6473   6477     1   109.5600471 388.275200
   6459   6473   6478     1   109.5600471 388.275200
   6460   6463   6467     1   109.5600471 388.275200
   6460   6472   6475     1   107.2600461 396.643200
   6460   6459   6461     1   109.5600471 388.275200
   6461   6459   6473     1   109.5600471 388.275200
   6461   6459   6481     1   109.7800468 425.094400
   6462   6460   6463     1   109.5600471 388.275200
   6462   6460   6472     1   110.2600474 425.931200
   6463   6464   6466     1   109.5600471 388.275200
   6463   6471   6474     1   107.2600461 396.643200
   6464   6465   6468     1   110.2200475 386.601600
   6464   6470   6476     1   107.2600461 396.643200
   6464   6463   6467     1   109.5600471 388.275200
   6465   6464   6466     1   109.5600471 388.275200
   6466   6464   6470     1   110.2600474 425.931200
   6467   6463   6471     1   110.2600474 425.931200
   6468   6465   6469     1   109.5800467 425.931200
   6468   6465   6481     1   109.5800467 425.931200
   6473   6479   6480     1   107.2600461 396.643200
   6477   6473   6479     1   110.2600474 425.931200
   6477   6473   6478     1   108.4600466 328.025600
   6478   6473   6479     1   110.2600474 425.931200
   6482   6483   6485     1   109.5600471 388.275200
   6482   6496   6500     1   109.5600471 388.275200
   6482   6496   6501     1   109.5600471 388.275200
   6483   6482   6484     1   109.5600471 388.275200
   6483   6486   6490     1   109.5600471 388.275200
   6483   6495   6498     1   107.2600461 396.643200
   6484   6482   6496     1   109.5600471 388.275200
   6484   6482   6504     1   109.7800468 425.094400
   6485   6483   6486     1   109.5600471 388.275200
   6485   6483   6495     1   110.2600474 425.931200
   6486   6487   6489     1   109.5600471 388.275200
   6486   6494   6497     1   107.2600461 396.643200
   6487   6486   6490     1   109.5600471 388.275200
   6487   6488   6491     1   110.2200475 386.601600
   6487   6493   6499     1   107.2600461 396.643200
   6488   6487   6489     1   109.5600471 388.275200
   6489   6487   6493     1   110.2600474 425.931200
   6490   6486   6494     1   110.2600474 425.931200
   6491   6488   6492     1   109.5800467 425.931200
   6491   6488   6504     1   109.5800467 425.931200
   6496   6502   6503     1   107.2600461 396.643200
   6500   6496   6502     1   110.2600474 425.931200
   6500   6496   6501     1   108.4600466 328.025600
   6501   6496   6502     1   110.2600474 425.931200
   6505   6506   6508     1   109.5600471 388.275200
   6505   6519   6523     1   109.5600471 388.275200
   6505   6519   6524     1   109.5600471 388.275200
   6506   6509   6513     1   109.5600471 388.275200
   6506   6518   6521     1   107.2600461 396.643200
   6506   6505   6507     1   109.5600471 388.275200
   6507   6505   6519     1   109.5600471 388.275200
   6507   6505   6527     1   109.7800468 425.094400
   6508   6506   6509     1   109.5600471 388.275200
   6508   6506   6518     1   110.2600474 425.931200
   6509   6510   6512     1   109.5600471 388.275200
   6509   6517   6520     1   107.2600461 396.643200
   6510   6511   6514     1   110.2200475 386.601600
   6510   6516   6522     1   107.2600461 396.643200
   6510   6509   6513     1   109.5600471 388.275200
   6511   6510   6512     1   109.5600471 388.275200
   6512   6510   6516     1   110.2600474 425.931200
   6513   6509   6517     1   110.2600474 425.931200
   6514   6511   6515     1   109.5800467 425.931200
   6514   6511   6527     1   109.5800467 425.931200
   6519   6525   6526     1   107.2600461 396.643200
   6523   6519   6525     1   110.2600474 425.931200
   6523   6519   6524     1   108.4600466 328.025600
   6524   6519   6525     1   110.2600474 425.931200
   6528   6529   6531     1   109.5600471 388.275200
   6528   6542   6546     1   109.5600471 388.275200
   6528   6542   6547     1   109.5600471 388.275200
   6529   6528   6530     1   109.5600471 388.275200
   6529   6532   6536     1   109.5600471 388.275200
   6529   6541   6544     1   107.2600461 396.643200
   6530   6528   6542     1   109.5600471 388.275200
   6530   6528   6550     1   109.7800468 425.094400
   6531   6529   6532     1   109.5600471 388.275200
   6531   6529   6541     1   110.2600474 425.931200
   6532   6533   6535     1   109.5600471 388.275200
   6532   6540   6543     1   107.2600461 396.643200
   6533   6532   6536     1   109.5600471 388.275200
   6533   6534   6537     1   110.2200475 386.601600
   6533   6539   6545     1   107.2600461 396.643200
   6534   6533   6535     1   109.5600471 388.275200
   6535   6533   6539     1   110.2600474 425.931200
   6536   6532   6540     1   110.2600474 425.931200
   6537   6534   6538     1   109.5800467 425.931200
   6537   6534   6550     1   109.5800467 425.931200
   6542   6548   6549     1   107.2600461 396.643200
   6546   6542   6548     1   110.2600474 425.931200
   6546   6542   6547     1   108.4600466 328.025600
   6547   6542   6548     1   110.2600474 425.931200
   6551   6552   6554     1   109.5600471 388.275200
   6551   6565   6569     1   109.5600471 388.275200
   6551   6565   6570     1   109.5600471 388.275200
   6552   6555   6559     1   109.5600471 388.275200
   6552   6564   6567     1   107.2600461 396.643200
   6552   6551   6553     1   109.5600471 388.275200
   6553   6551   6565     1   109.5600471 388.275200
   6553   6551   6573     1   109.7800468 425.094400
   6554   6552   6555     1   109.5600471 388.275200
   6554   6552   6564     1   110.2600474 425.931200
   6555   6556   6558     1   109.5600471 388.275200
   6555   6563   6566     1   107.2600461 396.643200
   6556   6557   6560     1   110.2200475 386.601600
   6556   6562   6568     1   107.2600461 396.643200
   6556   6555   6559     1   109.5600471 388.275200
   6557   6556   6558     1   109.5600471 388.275200
   6558   6556   6562     1   110.2600474 425.931200
   6559   6555   6563     1   110.2600474 425.931200
   6560   6557   6561     1   109.5800467 425.931200
   6560   6557   6573     1   109.5800467 425.931200
   6565   6571   6572     1   107.2600461 396.643200
   6569   6565   6571     1   110.2600474 425.931200
   6569   6565   6570     1   108.4600466 328.025600
   6570   6565   6571     1   110.2600474 425.931200
   6574   6575   6577     1   109.5600471 388.275200
   6574   6588   6592     1   109.5600471 388.275200
   6574   6588   6593     1   109.5600471 388.275200
   6575   6574   6576     1   109.5600471 388.275200
   6575   6578   6582     1   109.5600471 388.275200
   6575   6587   6590     1   107.2600461 396.643200
   6576   6574   6588     1   109.5600471 388.275200
   6576   6574   6596     1   109.7800468 425.094400
   6577   6575   6578     1   109.5600471 388.275200
   6577   6575   6587     1   110.2600474 425.931200
   6578   6579   6581     1   109.5600471 388.275200
   6578   6586   6589     1   107.2600461 396.643200
   6579   6578   6582     1   109.5600471 388.275200
   6579   6580   6583     1   110.2200475 386.601600
   6579   6585   6591     1   107.2600461 396.643200
   6580   6579   6581     1   109.5600471 388.275200
   6581   6579   6585     1   110.2600474 425.931200
   6582   6578   6586     1   110.2600474 425.931200
   6583   6580   6584     1   109.5800467 425.931200
   6583   6580   6596     1   109.5800467 425.931200
   6588   6594   6595     1   107.2600461 396.643200
   6592   6588   6594     1   110.2600474 425.931200
   6592   6588   6593     1   108.4600466 328.025600
   6593   6588   6594     1   110.2600474 425.931200
   6597   6598   6600     1   109.5600471 388.275200
   6597   6611   6615     1   109.5600471 388.275200
   6597   6611   6616     1   109.5600471 388.275200
   6598   6601   6605     1   109.5600471 388.275200
   6598   6610   6613     1   107.2600461 396.643200
   6598   6597   6599     1   109.5600471 388.275200
   6599   6597   6611     1   109.5600471 388.275200
   6599   6597   6619     1   109.7800468 425.094400
   6600   6598   6601     1   109.5600471 388.275200
   6600   6598   6610     1   110.2600474 425.931200
   6601   6602   6604     1   109.5600471 388.275200
   6601   6609   6612     1   107.2600461 396.643200
   6602   6603   6606     1   110.2200475 386.601600
   6602   6608   6614     1   107.2600461 396.643200
   6602   6601   6605     1   109.5600471 388.275200
   6603   6602   6604     1   109.5600471 388.275200
   6604   6602   6608     1   110.2600474 425.931200
   6605   6601   6609     1   110.2600474 425.931200
   6606   6603   6607     1   109.5800467 425.931200
   6606   6603   6619     1   109.5800467 425.931200
   6611   6617   6618     1   107.2600461 396.643200
   6615   6611   6617     1   110.2600474 425.931200
   6615   6611   6616     1   108.4600466 328.025600
   6616   6611   6617     1   110.2600474 425.931200
   6620   6621   6623     1   109.5600471 388.275200
   6620   6634   6638     1   109.5600471 388.275200
   6620   6634   6639     1   109.5600471 388.275200
   6621   6620   6622     1   109.5600471 388.275200
   6621   6624   6628     1   109.5600471 388.275200
   6621   6633   6636     1   107.2600461 396.643200
   6622   6620   6634     1   109.5600471 388.275200
   6622   6620   6642     1   109.7800468 425.094400
   6623   6621   6624     1   109.5600471 388.275200
   6623   6621   6633     1   110.2600474 425.931200
   6624   6625   6627     1   109.5600471 388.275200
   6624   6632   6635     1   107.2600461 396.643200
   6625   6624   6628     1   109.5600471 388.275200
   6625   6626   6629     1   110.2200475 386.601600
   6625   6631   6637     1   107.2600461 396.643200
   6626   6625   6627     1   109.5600471 388.275200
   6627   6625   6631     1   110.2600474 425.931200
   6628   6624   6632     1   110.2600474 425.931200
   6629   6626   6630     1   109.5800467 425.931200
   6629   6626   6642     1   109.5800467 425.931200
   6634   6640   6641     1   107.2600461 396.643200
   6638   6634   6640     1   110.2600474 425.931200
   6638   6634   6639     1   108.4600466 328.025600
   6639   6634   6640     1   110.2600474 425.931200
   6643   6644   6646     1   109.5600471 388.275200
   6643   6657   6661     1   109.5600471 388.275200
   6643   6657   6662     1   109.5600471 388.275200
   6644   6647   6651     1   109.5600471 388.275200
   6644   6656   6659     1   107.2600461 396.643200
   6644   6643   6645     1   109.5600471 388.275200
   6645   6643   6657     1   109.5600471 388.275200
   6645   6643   6665     1   109.7800468 425.094400
   6646   6644   6647     1   109.5600471 388.275200
   6646   6644   6656     1   110.2600474 425.931200
   6647   6648   6650     1   109.5600471 388.275200
   6647   6655   6658     1   107.2600461 396.643200
   6648   6649   6652     1   110.2200475 386.601600
   6648   6654   6660     1   107.2600461 396.643200
   6648   6647   6651     1   109.5600471 388.275200
   6649   6648   6650     1   109.5600471 388.275200
   6650   6648   6654     1   110.2600474 425.931200
   6651   6647   6655     1   110.2600474 425.931200
   6652   6649   6653     1   109.5800467 425.931200
   6652   6649   6665     1   109.5800467 425.931200
   6657   6663   6664     1   107.2600461 396.643200
   6661   6657   6663     1   110.2600474 425.931200
   6661   6657   6662     1   108.4600466 328.025600
   6662   6657   6663     1   110.2600474 425.931200
   6666   6667   6669     1   109.5600471 388.275200
   6666   6680   6684     1   109.5600471 388.275200
   6666   6680   6685     1   109.5600471 388.275200
   6667   6666   6668     1   109.5600471 388.275200
   6667   6670   6674     1   109.5600471 388.275200
   6667   6679   6682     1   107.2600461 396.643200
   6668   6666   6680     1   109.5600471 388.275200
   6668   6666   6688     1   109.7800468 425.094400
   6669   6667   6670     1   109.5600471 388.275200
   6669   6667   6679     1   110.2600474 425.931200
   6670   6671   6673     1   109.5600471 388.275200
   6670   6678   6681     1   107.2600461 396.643200
   6671   6670   6674     1   109.5600471 388.275200
   6671   6672   6675     1   110.2200475 386.601600
   6671   6677   6683     1   107.2600461 396.643200
   6672   6671   6673     1   109.5600471 388.275200
   6673   6671   6677     1   110.2600474 425.931200
   6674   6670   6678     1   110.2600474 425.931200
   6675   6672   6676     1   109.5800467 425.931200
   6675   6672   6688     1   109.5800467 425.931200
   6680   6686   6687     1   107.2600461 396.643200
   6684   6680   6686     1   110.2600474 425.931200
   6684   6680   6685     1   108.4600466 328.025600
   6685   6680   6686     1   110.2600474 425.931200
   6689   6690   6692     1   109.5600471 388.275200
   6689   6703   6707     1   109.5600471 388.275200
   6689   6703   6708     1   109.5600471 388.275200
   6690   6693   6697     1   109.5600471 388.275200
   6690   6702   6705     1   107.2600461 396.643200
   6690   6689   6691     1   109.5600471 388.275200
   6691   6689   6703     1   109.5600471 388.275200
   6691   6689   6711     1   109.7800468 425.094400
   6692   6690   6693     1   109.5600471 388.275200
   6692   6690   6702     1   110.2600474 425.931200
   6693   6694   6696     1   109.5600471 388.275200
   6693   6701   6704     1   107.2600461 396.643200
   6694   6695   6698     1   110.2200475 386.601600
   6694   6700   6706     1   107.2600461 396.643200
   6694   6693   6697     1   109.5600471 388.275200
   6695   6694   6696     1   109.5600471 388.275200
   6696   6694   6700     1   110.2600474 425.931200
   6697   6693   6701     1   110.2600474 425.931200
   6698   6695   6699     1   109.5800467 425.931200
   6698   6695   6711     1   109.5800467 425.931200
   6703   6709   6710     1   107.2600461 396.643200
   6707   6703   6709     1   110.2600474 425.931200
   6707   6703   6708     1   108.4600466 328.025600
   6708   6703   6709     1   110.2600474 425.931200
   6712   6713   6715     1   109.5600471 388.275200
   6712   6726   6730     1   109.5600471 388.275200
   6712   6726   6731     1   109.5600471 388.275200
   6713   6712   6714     1   109.5600471 388.275200
   6713   6716   6720     1   109.5600471 388.275200
   6713   6725   6728     1   107.2600461 396.643200
   6714   6712   6726     1   109.5600471 388.275200
   6714   6712   6734     1   109.7800468 425.094400
   6715   6713   6716     1   109.5600471 388.275200
   6715   6713   6725     1   110.2600474 425.931200
   6716   6717   6719     1   109.5600471 388.275200
   6716   6724   6727     1   107.2600461 396.643200
   6717   6716   6720     1   109.5600471 388.275200
   6717   6718   6721     1   110.2200475 386.601600
   6717   6723   6729     1   107.2600461 396.643200
   6718   6717   6719     1   109.5600471 388.275200
   6719   6717   6723     1   110.2600474 425.931200
   6720   6716   6724     1   110.2600474 425.931200
   6721   6718   6722     1   109.5800467 425.931200
   6721   6718   6734     1   109.5800467 425.931200
   6726   6732   6733     1   107.2600461 396.643200
   6730   6726   6732     1   110.2600474 425.931200
   6730   6726   6731     1   108.4600466 328.025600
   6731   6726   6732     1   110.2600474 425.931200
   6735   6736   6738     1   109.5600471 388.275200
   6735   6749   6753     1   109.5600471 388.275200
   6735   6749   6754     1   109.5600471 388.275200
   6736   6739   6743     1   109.5600471 388.275200
   6736   6748   6751     1   107.2600461 396.643200
   6736   6735   6737     1   109.5600471 388.275200
   6737   6735   6749     1   109.5600471 388.275200
   6737   6735   6757     1   109.7800468 425.094400
   6738   6736   6739     1   109.5600471 388.275200
   6738   6736   6748     1   110.2600474 425.931200
   6739   6740   6742     1   109.5600471 388.275200
   6739   6747   6750     1   107.2600461 396.643200
   6740   6741   6744     1   110.2200475 386.601600
   6740   6746   6752     1   107.2600461 396.643200
   6740   6739   6743     1   109.5600471 388.275200
   6741   6740   6742     1   109.5600471 388.275200
   6742   6740   6746     1   110.2600474 425.931200
   6743   6739   6747     1   110.2600474 425.931200
   6744   6741   6745     1   109.5800467 425.931200
   6744   6741   6757     1   109.5800467 425.931200
   6749   6755   6756     1   107.2600461 396.643200
   6753   6749   6755     1   110.2600474 425.931200
   6753   6749   6754     1   108.4600466 328.025600
   6754   6749   6755     1   110.2600474 425.931200
   6758   6759   6761     1   109.5600471 388.275200
   6758   6772   6776     1   109.5600471 388.275200
   6758   6772   6777     1   109.5600471 388.275200
   6759   6758   6760     1   109.5600471 388.275200
   6759   6762   6766     1   109.5600471 388.275200
   6759   6771   6774     1   107.2600461 396.643200
   6760   6758   6772     1   109.5600471 388.275200
   6760   6758   6780     1   109.7800468 425.094400
   6761   6759   6762     1   109.5600471 388.275200
   6761   6759   6771     1   110.2600474 425.931200
   6762   6763   6765     1   109.5600471 388.275200
   6762   6770   6773     1   107.2600461 396.643200
   6763   6762   6766     1   109.5600471 388.275200
   6763   6764   6767     1   110.2200475 386.601600
   6763   6769   6775     1   107.2600461 396.643200
   6764   6763   6765     1   109.5600471 388.275200
   6765   6763   6769     1   110.2600474 425.931200
   6766   6762   6770     1   110.2600474 425.931200
   6767   6764   6768     1   109.5800467 425.931200
   6767   6764   6780     1   109.5800467 425.931200
   6772   6778   6779     1   107.2600461 396.643200
   6776   6772   6778     1   110.2600474 425.931200
   6776   6772   6777     1   108.4600466 328.025600
   6777   6772   6778     1   110.2600474 425.931200
   6781   6782   6784     1   109.5600471 388.275200
   6781   6795   6799     1   109.5600471 388.275200
   6781   6795   6800     1   109.5600471 388.275200
   6782   6785   6789     1   109.5600471 388.275200
   6782   6794   6797     1   107.2600461 396.643200
   6782   6781   6783     1   109.5600471 388.275200
   6783   6781   6795     1   109.5600471 388.275200
   6783   6781   6803     1   109.7800468 425.094400
   6784   6782   6785     1   109.5600471 388.275200
   6784   6782   6794     1   110.2600474 425.931200
   6785   6786   6788     1   109.5600471 388.275200
   6785   6793   6796     1   107.2600461 396.643200
   6786   6787   6790     1   110.2200475 386.601600
   6786   6792   6798     1   107.2600461 396.643200
   6786   6785   6789     1   109.5600471 388.275200
   6787   6786   6788     1   109.5600471 388.275200
   6788   6786   6792     1   110.2600474 425.931200
   6789   6785   6793     1   110.2600474 425.931200
   6790   6787   6791     1   109.5800467 425.931200
   6790   6787   6803     1   109.5800467 425.931200
   6795   6801   6802     1   107.2600461 396.643200
   6799   6795   6801     1   110.2600474 425.931200
   6799   6795   6800     1   108.4600466 328.025600
   6800   6795   6801     1   110.2600474 425.931200
   6804   6805   6807     1   109.5600471 388.275200
   6804   6818   6822     1   109.5600471 388.275200
   6804   6818   6823     1   109.5600471 388.275200
   6805   6804   6806     1   109.5600471 388.275200
   6805   6808   6812     1   109.5600471 388.275200
   6805   6817   6820     1   107.2600461 396.643200
   6806   6804   6818     1   109.5600471 388.275200
   6806   6804   6826     1   109.7800468 425.094400
   6807   6805   6808     1   109.5600471 388.275200
   6807   6805   6817     1   110.2600474 425.931200
   6808   6809   6811     1   109.5600471 388.275200
   6808   6816   6819     1   107.2600461 396.643200
   6809   6808   6812     1   109.5600471 388.275200
   6809   6810   6813     1   110.2200475 386.601600
   6809   6815   6821     1   107.2600461 396.643200
   6810   6809   6811     1   109.5600471 388.275200
   6811   6809   6815     1   110.2600474 425.931200
   6812   6808   6816     1   110.2600474 425.931200
   6813   6810   6814     1   109.5800467 425.931200
   6813   6810   6826     1   109.5800467 425.931200
   6818   6824   6825     1   107.2600461 396.643200
   6822   6818   6824     1   110.2600474 425.931200
   6822   6818   6823     1   108.4600466 328.025600
   6823   6818   6824     1   110.2600474 425.931200
   6827   6828   6830     1   109.5600471 388.275200
   6827   6841   6845     1   109.5600471 388.275200
   6827   6841   6846     1   109.5600471 388.275200
   6828   6831   6835     1   109.5600471 388.275200
   6828   6840   6843     1   107.2600461 396.643200
   6828   6827   6829     1   109.5600471 388.275200
   6829   6827   6841     1   109.5600471 388.275200
   6829   6827   6849     1   109.7800468 425.094400
   6830   6828   6831     1   109.5600471 388.275200
   6830   6828   6840     1   110.2600474 425.931200
   6831   6832   6834     1   109.5600471 388.275200
   6831   6839   6842     1   107.2600461 396.643200
   6832   6833   6836     1   110.2200475 386.601600
   6832   6838   6844     1   107.2600461 396.643200
   6832   6831   6835     1   109.5600471 388.275200
   6833   6832   6834     1   109.5600471 388.275200
   6834   6832   6838     1   110.2600474 425.931200
   6835   6831   6839     1   110.2600474 425.931200
   6836   6833   6837     1   109.5800467 425.931200
   6836   6833   6849     1   109.5800467 425.931200
   6841   6847   6848     1   107.2600461 396.643200
   6845   6841   6847     1   110.2600474 425.931200
   6845   6841   6846     1   108.4600466 328.025600
   6846   6841   6847     1   110.2600474 425.931200
   6850   6851   6853     1   109.5600471 388.275200
   6850   6864   6868     1   109.5600471 388.275200
   6850   6864   6869     1   109.5600471 388.275200
   6851   6850   6852     1   109.5600471 388.275200
   6851   6854   6858     1   109.5600471 388.275200
   6851   6863   6866     1   107.2600461 396.643200
   6852   6850   6864     1   109.5600471 388.275200
   6852   6850   6872     1   109.7800468 425.094400
   6853   6851   6854     1   109.5600471 388.275200
   6853   6851   6863     1   110.2600474 425.931200
   6854   6855   6857     1   109.5600471 388.275200
   6854   6862   6865     1   107.2600461 396.643200
   6855   6854   6858     1   109.5600471 388.275200
   6855   6856   6859     1   110.2200475 386.601600
   6855   6861   6867     1   107.2600461 396.643200
   6856   6855   6857     1   109.5600471 388.275200
   6857   6855   6861     1   110.2600474 425.931200
   6858   6854   6862     1   110.2600474 425.931200
   6859   6856   6860     1   109.5800467 425.931200
   6859   6856   6872     1   109.5800467 425.931200
   6864   6870   6871     1   107.2600461 396.643200
   6868   6864   6870     1   110.2600474 425.931200
   6868   6864   6869     1   108.4600466 328.025600
   6869   6864   6870     1   110.2600474 425.931200
   6873   6874   6876     1   109.5600471 388.275200
   6873   6887   6891     1   109.5600471 388.275200
   6873   6887   6892     1   109.5600471 388.275200
   6874   6877   6881     1   109.5600471 388.275200
   6874   6886   6889     1   107.2600461 396.643200
   6874   6873   6875     1   109.5600471 388.275200
   6875   6873   6887     1   109.5600471 388.275200
   6875   6873   6895     1   109.7800468 425.094400
   6876   6874   6877     1   109.5600471 388.275200
   6876   6874   6886     1   110.2600474 425.931200
   6877   6878   6880     1   109.5600471 388.275200
   6877   6885   6888     1   107.2600461 396.643200
   6878   6879   6882     1   110.2200475 386.601600
   6878   6884   6890     1   107.2600461 396.643200
   6878   6877   6881     1   109.5600471 388.275200
   6879   6878   6880     1   109.5600471 388.275200
   6880   6878   6884     1   110.2600474 425.931200
   6881   6877   6885     1   110.2600474 425.931200
   6882   6879   6883     1   109.5800467 425.931200
   6882   6879   6895     1   109.5800467 425.931200
   6887   6893   6894     1   107.2600461 396.643200
   6891   6887   6893     1   110.2600474 425.931200
   6891   6887   6892     1   108.4600466 328.025600
   6892   6887   6893     1   110.2600474 425.931200
   6896   6897   6899     1   109.5600471 388.275200
   6896   6910   6914     1   109.5600471 388.275200
   6896   6910   6915     1   109.5600471 388.275200
   6897   6896   6898     1   109.5600471 388.275200
   6897   6900   6904     1   109.5600471 388.275200
   6897   6909   6912     1   107.2600461 396.643200
   6898   6896   6910     1   109.5600471 388.275200
   6898   6896   6918     1   109.7800468 425.094400
   6899   6897   6900     1   109.5600471 388.275200
   6899   6897   6909     1   110.2600474 425.931200
   6900   6901   6903     1   109.5600471 388.275200
   6900   6908   6911     1   107.2600461 396.643200
   6901   6900   6904     1   109.5600471 388.275200
   6901   6902   6905     1   110.2200475 386.601600
   6901   6907   6913     1   107.2600461 396.643200
   6902   6901   6903     1   109.5600471 388.275200
   6903   6901   6907     1   110.2600474 425.931200
   6904   6900   6908     1   110.2600474 425.931200
   6905   6902   6906     1   109.5800467 425.931200
   6905   6902   6918     1   109.5800467 425.931200
   6910   6916   6917     1   107.2600461 396.643200
   6914   6910   6916     1   110.2600474 425.931200
   6914   6910   6915     1   108.4600466 328.025600
   6915   6910   6916     1   110.2600474 425.931200
   6919   6920   6922     1   109.5600471 388.275200
   6919   6933   6937     1   109.5600471 388.275200
   6919   6933   6938     1   109.5600471 388.275200
   6920   6923   6927     1   109.5600471 388.275200
   6920   6932   6935     1   107.2600461 396.643200
   6920   6919   6921     1   109.5600471 388.275200
   6921   6919   6933     1   109.5600471 388.275200
   6921   6919   6941     1   109.7800468 425.094400
   6922   6920   6923     1   109.5600471 388.275200
   6922   6920   6932     1   110.2600474 425.931200
   6923   6924   6926     1   109.5600471 388.275200
   6923   6931   6934     1   107.2600461 396.643200
   6924   6925   6928     1   110.2200475 386.601600
   6924   6930   6936     1   107.2600461 396.643200
   6924   6923   6927     1   109.5600471 388.275200
   6925   6924   6926     1   109.5600471 388.275200
   6926   6924   6930     1   110.2600474 425.931200
   6927   6923   6931     1   110.2600474 425.931200
   6928   6925   6929     1   109.5800467 425.931200
   6928   6925   6941     1   109.5800467 425.931200
   6933   6939   6940     1   107.2600461 396.643200
   6937   6933   6939     1   110.2600474 425.931200
   6937   6933   6938     1   108.4600466 328.025600
   6938   6933   6939     1   110.2600474 425.931200
   6942   6943   6945     1   109.5600471 388.275200
   6942   6956   6960     1   109.5600471 388.275200
   6942   6956   6961     1   109.5600471 388.275200
   6943   6942   6944     1   109.5600471 388.275200
   6943   6946   6950     1   109.5600471 388.275200
   6943   6955   6958     1   107.2600461 396.643200
   6944   6942   6956     1   109.5600471 388.275200
   6944   6942   6964     1   109.7800468 425.094400
   6945   6943   6946     1   109.5600471 388.275200
   6945   6943   6955     1   110.2600474 425.931200
   6946   6947   6949     1   109.5600471 388.275200
   6946   6954   6957     1   107.2600461 396.643200
   6947   6946   6950     1   109.5600471 388.275200
   6947   6948   6951     1   110.2200475 386.601600
   6947   6953   6959     1   107.2600461 396.643200
   6948   6947   6949     1   109.5600471 388.275200
   6949   6947   6953     1   110.2600474 425.931200
   6950   6946   6954     1   110.2600474 425.931200
   6951   6948   6952     1   109.5800467 425.931200
   6951   6948   6964     1   109.5800467 425.931200
   6956   6962   6963     1   107.2600461 396.643200
   6960   6956   6962     1   110.2600474 425.931200
   6960   6956   6961     1   108.4600466 328.025600
   6961   6956   6962     1   110.2600474 425.931200
   6965   6966   6968     1   109.5600471 388.275200
   6965   6979   6983     1   109.5600471 388.275200
   6965   6979   6984     1   109.5600471 388.275200
   6966   6969   6973     1   109.5600471 388.275200
   6966   6978   6981     1   107.2600461 396.643200
   6966   6965   6967     1   109.5600471 388.275200
   6967   6965   6979     1   109.5600471 388.275200
   6967   6965   6987     1   109.7800468 425.094400
   6968   6966   6969     1   109.5600471 388.275200
   6968   6966   6978     1   110.2600474 425.931200
   6969   6970   6972     1   109.5600471 388.275200
   6969   6977   6980     1   107.2600461 396.643200
   6970   6971   6974     1   110.2200475 386.601600
   6970   6976   6982     1   107.2600461 396.643200
   6970   6969   6973     1   109.5600471 388.275200
   6971   6970   6972     1   109.5600471 388.275200
   6972   6970   6976     1   110.2600474 425.931200
   6973   6969   6977     1   110.2600474 425.931200
   6974   6971   6975     1   109.5800467 425.931200
   6974   6971   6987     1   109.5800467 425.931200
   6979   6985   6986     1   107.2600461 396.643200
   6983   6979   6985     1   110.2600474 425.931200
   6983   6979   6984     1   108.4600466 328.025600
   6984   6979   6985     1   110.2600474 425.931200
   6988   6989   6991     1   109.5600471 388.275200
   6988   7002   7006     1   109.5600471 388.275200
   6988   7002   7007     1   109.5600471 388.275200
   6989   6988   6990     1   109.5600471 388.275200
   6989   6992   6996     1   109.5600471 388.275200
   6989   7001   7004     1   107.2600461 396.643200
   6990   6988   7002     1   109.5600471 388.275200
   6990   6988   7010     1   109.7800468 425.094400
   6991   6989   6992     1   109.5600471 388.275200
   6991   6989   7001     1   110.2600474 425.931200
   6992   6993   6995     1   109.5600471 388.275200
   6992   7000   7003     1   107.2600461 396.643200
   6993   6992   6996     1   109.5600471 388.275200
   6993   6994   6997     1   110.2200475 386.601600
   6993   6999   7005     1   107.2600461 396.643200
   6994   6993   6995     1   109.5600471 388.275200
   6995   6993   6999     1   110.2600474 425.931200
   6996   6992   7000     1   110.2600474 425.931200
   6997   6994   6998     1   109.5800467 425.931200
   6997   6994   7010     1   109.5800467 425.931200
   7002   7008   7009     1   107.2600461 396.643200
   7006   7002   7008     1   110.2600474 425.931200
   7006   7002   7007     1   108.4600466 328.025600
   7007   7002   7008     1   110.2600474 425.931200
   7011   7012   7014     1   109.5600471 388.275200
   7011   7025   7029     1   109.5600471 388.275200
   7011   7025   7030     1   109.5600471 388.275200
   7012   7015   7019     1   109.5600471 388.275200
   7012   7024   7027     1   107.2600461 396.643200
   7012   7011   7013     1   109.5600471 388.275200
   7013   7011   7025     1   109.5600471 388.275200
   7013   7011   7033     1   109.7800468 425.094400
   7014   7012   7015     1   109.5600471 388.275200
   7014   7012   7024     1   110.2600474 425.931200
   7015   7016   7018     1   109.5600471 388.275200
   7015   7023   7026     1   107.2600461 396.643200
   7016   7017   7020     1   110.2200475 386.601600
   7016   7022   7028     1   107.2600461 396.643200
   7016   7015   7019     1   109.5600471 388.275200
   7017   7016   7018     1   109.5600471 388.275200
   7018   7016   7022     1   110.2600474 425.931200
   7019   7015   7023     1   110.2600474 425.931200
   7020   7017   7021     1   109.5800467 425.931200
   7020   7017   7033     1   109.5800467 425.931200
   7025   7031   7032     1   107.2600461 396.643200
   7029   7025   7031     1   110.2600474 425.931200
   7029   7025   7030     1   108.4600466 328.025600
   7030   7025   7031     1   110.2600474 425.931200
   7034   7035   7037     1   109.5600471 388.275200
   7034   7048   7052     1   109.5600471 388.275200
   7034   7048   7053     1   109.5600471 388.275200
   7035   7034   7036     1   109.5600471 388.275200
   7035   7038   7042     1   109.5600471 388.275200
   7035   7047   7050     1   107.2600461 396.643200
   7036   7034   7048     1   109.5600471 388.275200
   7036   7034   7056     1   109.7800468 425.094400
   7037   7035   7038     1   109.5600471 388.275200
   7037   7035   7047     1   110.2600474 425.931200
   7038   7039   7041     1   109.5600471 388.275200
   7038   7046   7049     1   107.2600461 396.643200
   7039   7038   7042     1   109.5600471 388.275200
   7039   7040   7043     1   110.2200475 386.601600
   7039   7045   7051     1   107.2600461 396.643200
   7040   7039   7041     1   109.5600471 388.275200
   7041   7039   7045     1   110.2600474 425.931200
   7042   7038   7046     1   110.2600474 425.931200
   7043   7040   7044     1   109.5800467 425.931200
   7043   7040   7056     1   109.5800467 425.931200
   7048   7054   7055     1   107.2600461 396.643200
   7052   7048   7054     1   110.2600474 425.931200
   7052   7048   7053     1   108.4600466 328.025600
   7053   7048   7054     1   110.2600474 425.931200
   7057   7058   7060     1   109.5600471 388.275200
   7057   7071   7075     1   109.5600471 388.275200
   7057   7071   7076     1   109.5600471 388.275200
   7058   7061   7065     1   109.5600471 388.275200
   7058   7070   7073     1   107.2600461 396.643200
   7058   7057   7059     1   109.5600471 388.275200
   7059   7057   7071     1   109.5600471 388.275200
   7059   7057   7079     1   109.7800468 425.094400
   7060   7058   7061     1   109.5600471 388.275200
   7060   7058   7070     1   110.2600474 425.931200
   7061   7062   7064     1   109.5600471 388.275200
   7061   7069   7072     1   107.2600461 396.643200
   7062   7063   7066     1   110.2200475 386.601600
   7062   7068   7074     1   107.2600461 396.643200
   7062   7061   7065     1   109.5600471 388.275200
   7063   7062   7064     1   109.5600471 388.275200
   7064   7062   7068     1   110.2600474 425.931200
   7065   7061   7069     1   110.2600474 425.931200
   7066   7063   7067     1   109.5800467 425.931200
   7066   7063   7079     1   109.5800467 425.931200
   7071   7077   7078     1   107.2600461 396.643200
   7075   7071   7077     1   110.2600474 425.931200
   7075   7071   7076     1   108.4600466 328.025600
   7076   7071   7077     1   110.2600474 425.931200
   7080   7081   7083     1   109.5600471 388.275200
   7080   7094   7098     1   109.5600471 388.275200
   7080   7094   7099     1   109.5600471 388.275200
   7081   7080   7082     1   109.5600471 388.275200
   7081   7084   7088     1   109.5600471 388.275200
   7081   7093   7096     1   107.2600461 396.643200
   7082   7080   7094     1   109.5600471 388.275200
   7082   7080   7102     1   109.7800468 425.094400
   7083   7081   7084     1   109.5600471 388.275200
   7083   7081   7093     1   110.2600474 425.931200
   7084   7085   7087     1   109.5600471 388.275200
   7084   7092   7095     1   107.2600461 396.643200
   7085   7084   7088     1   109.5600471 388.275200
   7085   7086   7089     1   110.2200475 386.601600
   7085   7091   7097     1   107.2600461 396.643200
   7086   7085   7087     1   109.5600471 388.275200
   7087   7085   7091     1   110.2600474 425.931200
   7088   7084   7092     1   110.2600474 425.931200
   7089   7086   7090     1   109.5800467 425.931200
   7089   7086   7102     1   109.5800467 425.931200
   7094   7100   7101     1   107.2600461 396.643200
   7098   7094   7100     1   110.2600474 425.931200
   7098   7094   7099     1   108.4600466 328.025600
   7099   7094   7100     1   110.2600474 425.931200
   7103   7104   7106     1   109.5600471 388.275200
   7103   7117   7121     1   109.5600471 388.275200
   7103   7117   7122     1   109.5600471 388.275200
   7104   7107   7111     1   109.5600471 388.275200
   7104   7116   7119     1   107.2600461 396.643200
   7104   7103   7105     1   109.5600471 388.275200
   7105   7103   7117     1   109.5600471 388.275200
   7105   7103   7125     1   109.7800468 425.094400
   7106   7104   7107     1   109.5600471 388.275200
   7106   7104   7116     1   110.2600474 425.931200
   7107   7108   7110     1   109.5600471 388.275200
   7107   7115   7118     1   107.2600461 396.643200
   7108   7109   7112     1   110.2200475 386.601600
   7108   7114   7120     1   107.2600461 396.643200
   7108   7107   7111     1   109.5600471 388.275200
   7109   7108   7110     1   109.5600471 388.275200
   7110   7108   7114     1   110.2600474 425.931200
   7111   7107   7115     1   110.2600474 425.931200
   7112   7109   7113     1   109.5800467 425.931200
   7112   7109   7125     1   109.5800467 425.931200
   7117   7123   7124     1   107.2600461 396.643200
   7121   7117   7123     1   110.2600474 425.931200
   7121   7117   7122     1   108.4600466 328.025600
   7122   7117   7123     1   110.2600474 425.931200
   7126   7127   7129     1   109.5600471 388.275200
   7126   7140   7144     1   109.5600471 388.275200
   7126   7140   7145     1   109.5600471 388.275200
   7127   7126   7128     1   109.5600471 388.275200
   7127   7130   7134     1   109.5600471 388.275200
   7127   7139   7142     1   107.2600461 396.643200
   7128   7126   7140     1   109.5600471 388.275200
   7128   7126   7148     1   109.7800468 425.094400
   7129   7127   7130     1   109.5600471 388.275200
   7129   7127   7139     1   110.2600474 425.931200
   7130   7131   7133     1   109.5600471 388.275200
   7130   7138   7141     1   107.2600461 396.643200
   7131   7130   7134     1   109.5600471 388.275200
   7131   7132   7135     1   110.2200475 386.601600
   7131   7137   7143     1   107.2600461 396.643200
   7132   7131   7133     1   109.5600471 388.275200
   7133   7131   7137     1   110.2600474 425.931200
   7134   7130   7138     1   110.2600474 425.931200
   7135   7132   7136     1   109.5800467 425.931200
   7135   7132   7148     1   109.5800467 425.931200
   7140   7146   7147     1   107.2600461 396.643200
   7144   7140   7146     1   110.2600474 425.931200
   7144   7140   7145     1   108.4600466 328.025600
   7145   7140   7146     1   110.2600474 425.931200
   7149   7150   7152     1   109.5600471 388.275200
   7149   7163   7167     1   109.5600471 388.275200
   7149   7163   7168     1   109.5600471 388.275200
   7150   7153   7157     1   109.5600471 388.275200
   7150   7162   7165     1   107.2600461 396.643200
   7150   7149   7151     1   109.5600471 388.275200
   7151   7149   7163     1   109.5600471 388.275200
   7151   7149   7171     1   109.7800468 425.094400
   7152   7150   7153     1   109.5600471 388.275200
   7152   7150   7162     1   110.2600474 425.931200
   7153   7154   7156     1   109.5600471 388.275200
   7153   7161   7164     1   107.2600461 396.643200
   7154   7155   7158     1   110.2200475 386.601600
   7154   7160   7166     1   107.2600461 396.643200
   7154   7153   7157     1   109.5600471 388.275200
   7155   7154   7156     1   109.5600471 388.275200
   7156   7154   7160     1   110.2600474 425.931200
   7157   7153   7161     1   110.2600474 425.931200
   7158   7155   7159     1   109.5800467 425.931200
   7158   7155   7171     1   109.5800467 425.931200
   7163   7169   7170     1   107.2600461 396.643200
   7167   7163   7169     1   110.2600474 425.931200
   7167   7163   7168     1   108.4600466 328.025600
   7168   7163   7169     1   110.2600474 425.931200
   7172   7173   7175     1   109.5600471 388.275200
   7172   7186   7190     1   109.5600471 388.275200
   7172   7186   7191     1   109.5600471 388.275200
   7173   7172   7174     1   109.5600471 388.275200
   7173   7176   7180     1   109.5600471 388.275200
   7173   7185   7188     1   107.2600461 396.643200
   7174   7172   7186     1   109.5600471 388.275200
   7174   7172   7194     1   109.7800468 425.094400
   7175   7173   7176     1   109.5600471 388.275200
   7175   7173   7185     1   110.2600474 425.931200
   7176   7177   7179     1   109.5600471 388.275200
   7176   7184   7187     1   107.2600461 396.643200
   7177   7176   7180     1   109.5600471 388.275200
   7177   7178   7181     1   110.2200475 386.601600
   7177   7183   7189     1   107.2600461 396.643200
   7178   7177   7179     1   109.5600471 388.275200
   7179   7177   7183     1   110.2600474 425.931200
   7180   7176   7184     1   110.2600474 425.931200
   7181   7178   7182     1   109.5800467 425.931200
   7181   7178   7194     1   109.5800467 425.931200
   7186   7192   7193     1   107.2600461 396.643200
   7190   7186   7192     1   110.2600474 425.931200
   7190   7186   7191     1   108.4600466 328.025600
   7191   7186   7192     1   110.2600474 425.931200
   7195   7196   7198     1   109.5600471 388.275200
   7195   7209   7213     1   109.5600471 388.275200
   7195   7209   7214     1   109.5600471 388.275200
   7196   7199   7203     1   109.5600471 388.275200
   7196   7208   7211     1   107.2600461 396.643200
   7196   7195   7197     1   109.5600471 388.275200
   7197   7195   7209     1   109.5600471 388.275200
   7197   7195   7217     1   109.7800468 425.094400
   7198   7196   7199     1   109.5600471 388.275200
   7198   7196   7208     1   110.2600474 425.931200
   7199   7200   7202     1   109.5600471 388.275200
   7199   7207   7210     1   107.2600461 396.643200
   7200   7201   7204     1   110.2200475 386.601600
   7200   7206   7212     1   107.2600461 396.643200
   7200   7199   7203     1   109.5600471 388.275200
   7201   7200   7202     1   109.5600471 388.275200
   7202   7200   7206     1   110.2600474 425.931200
   7203   7199   7207     1   110.2600474 425.931200
   7204   7201   7205     1   109.5800467 425.931200
   7204   7201   7217     1   109.5800467 425.931200
   7209   7215   7216     1   107.2600461 396.643200
   7213   7209   7215     1   110.2600474 425.931200
   7213   7209   7214     1   108.4600466 328.025600
   7214   7209   7215     1   110.2600474 425.931200
   7218   7219   7221     1   109.5600471 388.275200
   7218   7232   7236     1   109.5600471 388.275200
   7218   7232   7237     1   109.5600471 388.275200
   7219   7218   7220     1   109.5600471 388.275200
   7219   7222   7226     1   109.5600471 388.275200
   7219   7231   7234     1   107.2600461 396.643200
   7220   7218   7232     1   109.5600471 388.275200
   7220   7218   7240     1   109.7800468 425.094400
   7221   7219   7222     1   109.5600471 388.275200
   7221   7219   7231     1   110.2600474 425.931200
   7222   7223   7225     1   109.5600471 388.275200
   7222   7230   7233     1   107.2600461 396.643200
   7223   7222   7226     1   109.5600471 388.275200
   7223   7224   7227     1   110.2200475 386.601600
   7223   7229   7235     1   107.2600461 396.643200
   7224   7223   7225     1   109.5600471 388.275200
   7225   7223   7229     1   110.2600474 425.931200
   7226   7222   7230     1   110.2600474 425.931200
   7227   7224   7228     1   109.5800467 425.931200
   7227   7224   7240     1   109.5800467 425.931200
   7232   7238   7239     1   107.2600461 396.643200
   7236   7232   7238     1   110.2600474 425.931200
   7236   7232   7237     1   108.4600466 328.025600
   7237   7232   7238     1   110.2600474 425.931200
   7241   7242   7244     1   109.5600471 388.275200
   7241   7255   7259     1   109.5600471 388.275200
   7241   7255   7260     1   109.5600471 388.275200
   7242   7245   7249     1   109.5600471 388.275200
   7242   7254   7257     1   107.2600461 396.643200
   7242   7241   7243     1   109.5600471 388.275200
   7243   7241   7255     1   109.5600471 388.275200
   7243   7241   7263     1   109.7800468 425.094400
   7244   7242   7245     1   109.5600471 388.275200
   7244   7242   7254     1   110.2600474 425.931200
   7245   7246   7248     1   109.5600471 388.275200
   7245   7253   7256     1   107.2600461 396.643200
   7246   7247   7250     1   110.2200475 386.601600
   7246   7252   7258     1   107.2600461 396.643200
   7246   7245   7249     1   109.5600471 388.275200
   7247   7246   7248     1   109.5600471 388.275200
   7248   7246   7252     1   110.2600474 425.931200
   7249   7245   7253     1   110.2600474 425.931200
   7250   7247   7251     1   109.5800467 425.931200
   7250   7247   7263     1   109.5800467 425.931200
   7255   7261   7262     1   107.2600461 396.643200
   7259   7255   7261     1   110.2600474 425.931200
   7259   7255   7260     1   108.4600466 328.025600
   7260   7255   7261     1   110.2600474 425.931200
   7264   7265   7267     1   109.5600471 388.275200
   7264   7278   7282     1   109.5600471 388.275200
   7264   7278   7283     1   109.5600471 388.275200
   7265   7264   7266     1   109.5600471 388.275200
   7265   7268   7272     1   109.5600471 388.275200
   7265   7277   7280     1   107.2600461 396.643200
   7266   7264   7278     1   109.5600471 388.275200
   7266   7264   7286     1   109.7800468 425.094400
   7267   7265   7268     1   109.5600471 388.275200
   7267   7265   7277     1   110.2600474 425.931200
   7268   7269   7271     1   109.5600471 388.275200
   7268   7276   7279     1   107.2600461 396.643200
   7269   7268   7272     1   109.5600471 388.275200
   7269   7270   7273     1   110.2200475 386.601600
   7269   7275   7281     1   107.2600461 396.643200
   7270   7269   7271     1   109.5600471 388.275200
   7271   7269   7275     1   110.2600474 425.931200
   7272   7268   7276     1   110.2600474 425.931200
   7273   7270   7274     1   109.5800467 425.931200
   7273   7270   7286     1   109.5800467 425.931200
   7278   7284   7285     1   107.2600461 396.643200
   7282   7278   7284     1   110.2600474 425.931200
   7282   7278   7283     1   108.4600466 328.025600
   7283   7278   7284     1   110.2600474 425.931200
   7287   7288   7290     1   109.5600471 388.275200
   7287   7301   7305     1   109.5600471 388.275200
   7287   7301   7306     1   109.5600471 388.275200
   7288   7291   7295     1   109.5600471 388.275200
   7288   7300   7303     1   107.2600461 396.643200
   7288   7287   7289     1   109.5600471 388.275200
   7289   7287   7301     1   109.5600471 388.275200
   7289   7287   7309     1   109.7800468 425.094400
   7290   7288   7291     1   109.5600471 388.275200
   7290   7288   7300     1   110.2600474 425.931200
   7291   7292   7294     1   109.5600471 388.275200
   7291   7299   7302     1   107.2600461 396.643200
   7292   7293   7296     1   110.2200475 386.601600
   7292   7298   7304     1   107.2600461 396.643200
   7292   7291   7295     1   109.5600471 388.275200
   7293   7292   7294     1   109.5600471 388.275200
   7294   7292   7298     1   110.2600474 425.931200
   7295   7291   7299     1   110.2600474 425.931200
   7296   7293   7297     1   109.5800467 425.931200
   7296   7293   7309     1   109.5800467 425.931200
   7301   7307   7308     1   107.2600461 396.643200
   7305   7301   7307     1   110.2600474 425.931200
   7305   7301   7306     1   108.4600466 328.025600
   7306   7301   7307     1   110.2600474 425.931200
   7310   7311   7313     1   109.5600471 388.275200
   7310   7324   7328     1   109.5600471 388.275200
   7310   7324   7329     1   109.5600471 388.275200
   7311   7310   7312     1   109.5600471 388.275200
   7311   7314   7318     1   109.5600471 388.275200
   7311   7323   7326     1   107.2600461 396.643200
   7312   7310   7324     1   109.5600471 388.275200
   7312   7310   7332     1   109.7800468 425.094400
   7313   7311   7314     1   109.5600471 388.275200
   7313   7311   7323     1   110.2600474 425.931200
   7314   7315   7317     1   109.5600471 388.275200
   7314   7322   7325     1   107.2600461 396.643200
   7315   7314   7318     1   109.5600471 388.275200
   7315   7316   7319     1   110.2200475 386.601600
   7315   7321   7327     1   107.2600461 396.643200
   7316   7315   7317     1   109.5600471 388.275200
   7317   7315   7321     1   110.2600474 425.931200
   7318   7314   7322     1   110.2600474 425.931200
   7319   7316   7320     1   109.5800467 425.931200
   7319   7316   7332     1   109.5800467 425.931200
   7324   7330   7331     1   107.2600461 396.643200
   7328   7324   7330     1   110.2600474 425.931200
   7328   7324   7329     1   108.4600466 328.025600
   7329   7324   7330     1   110.2600474 425.931200
   7333   7334   7336     1   109.5600471 388.275200
   7333   7347   7351     1   109.5600471 388.275200
   7333   7347   7352     1   109.5600471 388.275200
   7334   7337   7341     1   109.5600471 388.275200
   7334   7346   7349     1   107.2600461 396.643200
   7334   7333   7335     1   109.5600471 388.275200
   7335   7333   7347     1   109.5600471 388.275200
   7335   7333   7355     1   109.7800468 425.094400
   7336   7334   7337     1   109.5600471 388.275200
   7336   7334   7346     1   110.2600474 425.931200
   7337   7338   7340     1   109.5600471 388.275200
   7337   7345   7348     1   107.2600461 396.643200
   7338   7339   7342     1   110.2200475 386.601600
   7338   7344   7350     1   107.2600461 396.643200
   7338   7337   7341     1   109.5600471 388.275200
   7339   7338   7340     1   109.5600471 388.275200
   7340   7338   7344     1   110.2600474 425.931200
   7341   7337   7345     1   110.2600474 425.931200
   7342   7339   7343     1   109.5800467 425.931200
   7342   7339   7355     1   109.5800467 425.931200
   7347   7353   7354     1   107.2600461 396.643200
   7351   7347   7353     1   110.2600474 425.931200
   7351   7347   7352     1   108.4600466 328.025600
   7352   7347   7353     1   110.2600474 425.931200
   7356   7357   7359     1   109.5600471 388.275200
   7356   7370   7374     1   109.5600471 388.275200
   7356   7370   7375     1   109.5600471 388.275200
   7357   7356   7358     1   109.5600471 388.275200
   7357   7360   7364     1   109.5600471 388.275200
   7357   7369   7372     1   107.2600461 396.643200
   7358   7356   7370     1   109.5600471 388.275200
   7358   7356   7378     1   109.7800468 425.094400
   7359   7357   7360     1   109.5600471 388.275200
   7359   7357   7369     1   110.2600474 425.931200
   7360   7361   7363     1   109.5600471 388.275200
   7360   7368   7371     1   107.2600461 396.643200
   7361   7360   7364     1   109.5600471 388.275200
   7361   7362   7365     1   110.2200475 386.601600
   7361   7367   7373     1   107.2600461 396.643200
   7362   7361   7363     1   109.5600471 388.275200
   7363   7361   7367     1   110.2600474 425.931200
   7364   7360   7368     1   110.2600474 425.931200
   7365   7362   7366     1   109.5800467 425.931200
   7365   7362   7378     1   109.5800467 425.931200
   7370   7376   7377     1   107.2600461 396.643200
   7374   7370   7376     1   110.2600474 425.931200
   7374   7370   7375     1   108.4600466 328.025600
   7375   7370   7376     1   110.2600474 425.931200
   7379   7380   7382     1   109.5600471 388.275200
   7379   7393   7397     1   109.5600471 388.275200
   7379   7393   7398     1   109.5600471 388.275200
   7380   7383   7387     1   109.5600471 388.275200
   7380   7392   7395     1   107.2600461 396.643200
   7380   7379   7381     1   109.5600471 388.275200
   7381   7379   7393     1   109.5600471 388.275200
   7381   7379   7401     1   109.7800468 425.094400
   7382   7380   7383     1   109.5600471 388.275200
   7382   7380   7392     1   110.2600474 425.931200
   7383   7384   7386     1   109.5600471 388.275200
   7383   7391   7394     1   107.2600461 396.643200
   7384   7385   7388     1   110.2200475 386.601600
   7384   7390   7396     1   107.2600461 396.643200
   7384   7383   7387     1   109.5600471 388.275200
   7385   7384   7386     1   109.5600471 388.275200
   7386   7384   7390     1   110.2600474 425.931200
   7387   7383   7391     1   110.2600474 425.931200
   7388   7385   7389     1   109.5800467 425.931200
   7388   7385   7401     1   109.5800467 425.931200
   7393   7399   7400     1   107.2600461 396.643200
   7397   7393   7399     1   110.2600474 425.931200
   7397   7393   7398     1   108.4600466 328.025600
   7398   7393   7399     1   110.2600474 425.931200
   7402   7403   7405     1   109.5600471 388.275200
   7402   7416   7420     1   109.5600471 388.275200
   7402   7416   7421     1   109.5600471 388.275200
   7403   7402   7404     1   109.5600471 388.275200
   7403   7406   7410     1   109.5600471 388.275200
   7403   7415   7418     1   107.2600461 396.643200
   7404   7402   7416     1   109.5600471 388.275200
   7404   7402   7424     1   109.7800468 425.094400
   7405   7403   7406     1   109.5600471 388.275200
   7405   7403   7415     1   110.2600474 425.931200
   7406   7407   7409     1   109.5600471 388.275200
   7406   7414   7417     1   107.2600461 396.643200
   7407   7406   7410     1   109.5600471 388.275200
   7407   7408   7411     1   110.2200475 386.601600
   7407   7413   7419     1   107.2600461 396.643200
   7408   7407   7409     1   109.5600471 388.275200
   7409   7407   7413     1   110.2600474 425.931200
   7410   7406   7414     1   110.2600474 425.931200
   7411   7408   7412     1   109.5800467 425.931200
   7411   7408   7424     1   109.5800467 425.931200
   7416   7422   7423     1   107.2600461 396.643200
   7420   7416   7422     1   110.2600474 425.931200
   7420   7416   7421     1   108.4600466 328.025600
   7421   7416   7422     1   110.2600474 425.931200
   7425   7426   7428     1   109.5600471 388.275200
   7425   7439   7443     1   109.5600471 388.275200
   7425   7439   7444     1   109.5600471 388.275200
   7426   7429   7433     1   109.5600471 388.275200
   7426   7438   7441     1   107.2600461 396.643200
   7426   7425   7427     1   109.5600471 388.275200
   7427   7425   7439     1   109.5600471 388.275200
   7427   7425   7447     1   109.7800468 425.094400
   7428   7426   7429     1   109.5600471 388.275200
   7428   7426   7438     1   110.2600474 425.931200
   7429   7430   7432     1   109.5600471 388.275200
   7429   7437   7440     1   107.2600461 396.643200
   7430   7431   7434     1   110.2200475 386.601600
   7430   7436   7442     1   107.2600461 396.643200
   7430   7429   7433     1   109.5600471 388.275200
   7431   7430   7432     1   109.5600471 388.275200
   7432   7430   7436     1   110.2600474 425.931200
   7433   7429   7437     1   110.2600474 425.931200
   7434   7431   7435     1   109.5800467 425.931200
   7434   7431   7447     1   109.5800467 425.931200
   7439   7445   7446     1   107.2600461 396.643200
   7443   7439   7445     1   110.2600474 425.931200
   7443   7439   7444     1   108.4600466 328.025600
   7444   7439   7445     1   110.2600474 425.931200
   7448   7449   7451     1   109.5600471 388.275200
   7448   7462   7466     1   109.5600471 388.275200
   7448   7462   7467     1   109.5600471 388.275200
   7449   7448   7450     1   109.5600471 388.275200
   7449   7452   7456     1   109.5600471 388.275200
   7449   7461   7464     1   107.2600461 396.643200
   7450   7448   7462     1   109.5600471 388.275200
   7450   7448   7470     1   109.7800468 425.094400
   7451   7449   7452     1   109.5600471 388.275200
   7451   7449   7461     1   110.2600474 425.931200
   7452   7453   7455     1   109.5600471 388.275200
   7452   7460   7463     1   107.2600461 396.643200
   7453   7452   7456     1   109.5600471 388.275200
   7453   7454   7457     1   110.2200475 386.601600
   7453   7459   7465     1   107.2600461 396.643200
   7454   7453   7455     1   109.5600471 388.275200
   7455   7453   7459     1   110.2600474 425.931200
   7456   7452   7460     1   110.2600474 425.931200
   7457   7454   7458     1   109.5800467 425.931200
   7457   7454   7470     1   109.5800467 425.931200
   7462   7468   7469     1   107.2600461 396.643200
   7466   7462   7468     1   110.2600474 425.931200
   7466   7462   7467     1   108.4600466 328.025600
   7467   7462   7468     1   110.2600474 425.931200
   7471   7472   7474     1   109.5600471 388.275200
   7471   7485   7489     1   109.5600471 388.275200
   7471   7485   7490     1   109.5600471 388.275200
   7472   7475   7479     1   109.5600471 388.275200
   7472   7484   7487     1   107.2600461 396.643200
   7472   7471   7473     1   109.5600471 388.275200
   7473   7471   7485     1   109.5600471 388.275200
   7473   7471   7493     1   109.7800468 425.094400
   7474   7472   7475     1   109.5600471 388.275200
   7474   7472   7484     1   110.2600474 425.931200
   7475   7476   7478     1   109.5600471 388.275200
   7475   7483   7486     1   107.2600461 396.643200
   7476   7477   7480     1   110.2200475 386.601600
   7476   7482   7488     1   107.2600461 396.643200
   7476   7475   7479     1   109.5600471 388.275200
   7477   7476   7478     1   109.5600471 388.275200
   7478   7476   7482     1   110.2600474 425.931200
   7479   7475   7483     1   110.2600474 425.931200
   7480   7477   7481     1   109.5800467 425.931200
   7480   7477   7493     1   109.5800467 425.931200
   7485   7491   7492     1   107.2600461 396.643200
   7489   7485   7491     1   110.2600474 425.931200
   7489   7485   7490     1   108.4600466 328.025600
   7490   7485   7491     1   110.2600474 425.931200
   7494   7495   7497     1   109.5600471 388.275200
   7494   7508   7512     1   109.5600471 388.275200
   7494   7508   7513     1   109.5600471 388.275200
   7495   7494   7496     1   109.5600471 388.275200
   7495   7498   7502     1   109.5600471 388.275200
   7495   7507   7510     1   107.2600461 396.643200
   7496   7494   7508     1   109.5600471 388.275200
   7496   7494   7516     1   109.7800468 425.094400
   7497   7495   7498     1   109.5600471 388.275200
   7497   7495   7507     1   110.2600474 425.931200
   7498   7499   7501     1   109.5600471 388.275200
   7498   7506   7509     1   107.2600461 396.643200
   7499   7498   7502     1   109.5600471 388.275200
   7499   7500   7503     1   110.2200475 386.601600
   7499   7505   7511     1   107.2600461 396.643200
   7500   7499   7501     1   109.5600471 388.275200
   7501   7499   7505     1   110.2600474 425.931200
   7502   7498   7506     1   110.2600474 425.931200
   7503   7500   7504     1   109.5800467 425.931200
   7503   7500   7516     1   109.5800467 425.931200
   7508   7514   7515     1   107.2600461 396.643200
   7512   7508   7514     1   110.2600474 425.931200
   7512   7508   7513     1   108.4600466 328.025600
   7513   7508   7514     1   110.2600474 425.931200
   7517   7518   7520     1   109.5600471 388.275200
   7517   7531   7535     1   109.5600471 388.275200
   7517   7531   7536     1   109.5600471 388.275200
   7518   7521   7525     1   109.5600471 388.275200
   7518   7530   7533     1   107.2600461 396.643200
   7518   7517   7519     1   109.5600471 388.275200
   7519   7517   7531     1   109.5600471 388.275200
   7519   7517   7539     1   109.7800468 425.094400
   7520   7518   7521     1   109.5600471 388.275200
   7520   7518   7530     1   110.2600474 425.931200
   7521   7522   7524     1   109.5600471 388.275200
   7521   7529   7532     1   107.2600461 396.643200
   7522   7523   7526     1   110.2200475 386.601600
   7522   7528   7534     1   107.2600461 396.643200
   7522   7521   7525     1   109.5600471 388.275200
   7523   7522   7524     1   109.5600471 388.275200
   7524   7522   7528     1   110.2600474 425.931200
   7525   7521   7529     1   110.2600474 425.931200
   7526   7523   7527     1   109.5800467 425.931200
   7526   7523   7539     1   109.5800467 425.931200
   7531   7537   7538     1   107.2600461 396.643200
   7535   7531   7537     1   110.2600474 425.931200
   7535   7531   7536     1   108.4600466 328.025600
   7536   7531   7537     1   110.2600474 425.931200
   7540   7541   7543     1   109.5600471 388.275200
   7540   7554   7558     1   109.5600471 388.275200
   7540   7554   7559     1   109.5600471 388.275200
   7541   7540   7542     1   109.5600471 388.275200
   7541   7544   7548     1   109.5600471 388.275200
   7541   7553   7556     1   107.2600461 396.643200
   7542   7540   7554     1   109.5600471 388.275200
   7542   7540   7562     1   109.7800468 425.094400
   7543   7541   7544     1   109.5600471 388.275200
   7543   7541   7553     1   110.2600474 425.931200
   7544   7545   7547     1   109.5600471 388.275200
   7544   7552   7555     1   107.2600461 396.643200
   7545   7544   7548     1   109.5600471 388.275200
   7545   7546   7549     1   110.2200475 386.601600
   7545   7551   7557     1   107.2600461 396.643200
   7546   7545   7547     1   109.5600471 388.275200
   7547   7545   7551     1   110.2600474 425.931200
   7548   7544   7552     1   110.2600474 425.931200
   7549   7546   7550     1   109.5800467 425.931200
   7549   7546   7562     1   109.5800467 425.931200
   7554   7560   7561     1   107.2600461 396.643200
   7558   7554   7560     1   110.2600474 425.931200
   7558   7554   7559     1   108.4600466 328.025600
   7559   7554   7560     1   110.2600474 425.931200
   7563   7564   7566     1   109.5600471 388.275200
   7563   7577   7581     1   109.5600471 388.275200
   7563   7577   7582     1   109.5600471 388.275200
   7564   7567   7571     1   109.5600471 388.275200
   7564   7576   7579     1   107.2600461 396.643200
   7564   7563   7565     1   109.5600471 388.275200
   7565   7563   7577     1   109.5600471 388.275200
   7565   7563   7585     1   109.7800468 425.094400
   7566   7564   7567     1   109.5600471 388.275200
   7566   7564   7576     1   110.2600474 425.931200
   7567   7568   7570     1   109.5600471 388.275200
   7567   7575   7578     1   107.2600461 396.643200
   7568   7569   7572     1   110.2200475 386.601600
   7568   7574   7580     1   107.2600461 396.643200
   7568   7567   7571     1   109.5600471 388.275200
   7569   7568   7570     1   109.5600471 388.275200
   7570   7568   7574     1   110.2600474 425.931200
   7571   7567   7575     1   110.2600474 425.931200
   7572   7569   7573     1   109.5800467 425.931200
   7572   7569   7585     1   109.5800467 425.931200
   7577   7583   7584     1   107.2600461 396.643200
   7581   7577   7583     1   110.2600474 425.931200
   7581   7577   7582     1   108.4600466 328.025600
   7582   7577   7583     1   110.2600474 425.931200
   7586   7587   7589     1   109.5600471 388.275200
   7586   7600   7604     1   109.5600471 388.275200
   7586   7600   7605     1   109.5600471 388.275200
   7587   7586   7588     1   109.5600471 388.275200
   7587   7590   7594     1   109.5600471 388.275200
   7587   7599   7602     1   107.2600461 396.643200
   7588   7586   7600     1   109.5600471 388.275200
   7588   7586   7608     1   109.7800468 425.094400
   7589   7587   7590     1   109.5600471 388.275200
   7589   7587   7599     1   110.2600474 425.931200
   7590   7591   7593     1   109.5600471 388.275200
   7590   7598   7601     1   107.2600461 396.643200
   7591   7590   7594     1   109.5600471 388.275200
   7591   7592   7595     1   110.2200475 386.601600
   7591   7597   7603     1   107.2600461 396.643200
   7592   7591   7593     1   109.5600471 388.275200
   7593   7591   7597     1   110.2600474 425.931200
   7594   7590   7598     1   110.2600474 425.931200
   7595   7592   7596     1   109.5800467 425.931200
   7595   7592   7608     1   109.5800467 425.931200
   7600   7606   7607     1   107.2600461 396.643200
   7604   7600   7606     1   110.2600474 425.931200
   7604   7600   7605     1   108.4600466 328.025600
   7605   7600   7606     1   110.2600474 425.931200
   7609   7610   7612     1   109.5600471 388.275200
   7609   7623   7627     1   109.5600471 388.275200
   7609   7623   7628     1   109.5600471 388.275200
   7610   7613   7617     1   109.5600471 388.275200
   7610   7622   7625     1   107.2600461 396.643200
   7610   7609   7611     1   109.5600471 388.275200
   7611   7609   7623     1   109.5600471 388.275200
   7611   7609   7631     1   109.7800468 425.094400
   7612   7610   7613     1   109.5600471 388.275200
   7612   7610   7622     1   110.2600474 425.931200
   7613   7614   7616     1   109.5600471 388.275200
   7613   7621   7624     1   107.2600461 396.643200
   7614   7615   7618     1   110.2200475 386.601600
   7614   7620   7626     1   107.2600461 396.643200
   7614   7613   7617     1   109.5600471 388.275200
   7615   7614   7616     1   109.5600471 388.275200
   7616   7614   7620     1   110.2600474 425.931200
   7617   7613   7621     1   110.2600474 425.931200
   7618   7615   7619     1   109.5800467 425.931200
   7618   7615   7631     1   109.5800467 425.931200
   7623   7629   7630     1   107.2600461 396.643200
   7627   7623   7629     1   110.2600474 425.931200
   7627   7623   7628     1   108.4600466 328.025600
   7628   7623   7629     1   110.2600474 425.931200
   7632   7633   7635     1   109.5600471 388.275200
   7632   7646   7650     1   109.5600471 388.275200
   7632   7646   7651     1   109.5600471 388.275200
   7633   7632   7634     1   109.5600471 388.275200
   7633   7636   7640     1   109.5600471 388.275200
   7633   7645   7648     1   107.2600461 396.643200
   7634   7632   7646     1   109.5600471 388.275200
   7634   7632   7654     1   109.7800468 425.094400
   7635   7633   7636     1   109.5600471 388.275200
   7635   7633   7645     1   110.2600474 425.931200
   7636   7637   7639     1   109.5600471 388.275200
   7636   7644   7647     1   107.2600461 396.643200
   7637   7636   7640     1   109.5600471 388.275200
   7637   7638   7641     1   110.2200475 386.601600
   7637   7643   7649     1   107.2600461 396.643200
   7638   7637   7639     1   109.5600471 388.275200
   7639   7637   7643     1   110.2600474 425.931200
   7640   7636   7644     1   110.2600474 425.931200
   7641   7638   7642     1   109.5800467 425.931200
   7641   7638   7654     1   109.5800467 425.931200
   7646   7652   7653     1   107.2600461 396.643200
   7650   7646   7652     1   110.2600474 425.931200
   7650   7646   7651     1   108.4600466 328.025600
   7651   7646   7652     1   110.2600474 425.931200
   7655   7656   7658     1   109.5600471 388.275200
   7655   7669   7673     1   109.5600471 388.275200
   7655   7669   7674     1   109.5600471 388.275200
   7656   7659   7663     1   109.5600471 388.275200
   7656   7668   7671     1   107.2600461 396.643200
   7656   7655   7657     1   109.5600471 388.275200
   7657   7655   7669     1   109.5600471 388.275200
   7657   7655   7677     1   109.7800468 425.094400
   7658   7656   7659     1   109.5600471 388.275200
   7658   7656   7668     1   110.2600474 425.931200
   7659   7660   7662     1   109.5600471 388.275200
   7659   7667   7670     1   107.2600461 396.643200
   7660   7661   7664     1   110.2200475 386.601600
   7660   7666   7672     1   107.2600461 396.643200
   7660   7659   7663     1   109.5600471 388.275200
   7661   7660   7662     1   109.5600471 388.275200
   7662   7660   7666     1   110.2600474 425.931200
   7663   7659   7667     1   110.2600474 425.931200
   7664   7661   7665     1   109.5800467 425.931200
   7664   7661   7677     1   109.5800467 425.931200
   7669   7675   7676     1   107.2600461 396.643200
   7673   7669   7675     1   110.2600474 425.931200
   7673   7669   7674     1   108.4600466 328.025600
   7674   7669   7675     1   110.2600474 425.931200
   7678   7679   7681     1   109.5600471 388.275200
   7678   7692   7696     1   109.5600471 388.275200
   7678   7692   7697     1   109.5600471 388.275200
   7679   7678   7680     1   109.5600471 388.275200
   7679   7682   7686     1   109.5600471 388.275200
   7679   7691   7694     1   107.2600461 396.643200
   7680   7678   7692     1   109.5600471 388.275200
   7680   7678   7700     1   109.7800468 425.094400
   7681   7679   7682     1   109.5600471 388.275200
   7681   7679   7691     1   110.2600474 425.931200
   7682   7683   7685     1   109.5600471 388.275200
   7682   7690   7693     1   107.2600461 396.643200
   7683   7682   7686     1   109.5600471 388.275200
   7683   7684   7687     1   110.2200475 386.601600
   7683   7689   7695     1   107.2600461 396.643200
   7684   7683   7685     1   109.5600471 388.275200
   7685   7683   7689     1   110.2600474 425.931200
   7686   7682   7690     1   110.2600474 425.931200
   7687   7684   7688     1   109.5800467 425.931200
   7687   7684   7700     1   109.5800467 425.931200
   7692   7698   7699     1   107.2600461 396.643200
   7696   7692   7698     1   110.2600474 425.931200
   7696   7692   7697     1   108.4600466 328.025600
   7697   7692   7698     1   110.2600474 425.931200
   7701   7702   7704     1   109.5600471 388.275200
   7701   7715   7719     1   109.5600471 388.275200
   7701   7715   7720     1   109.5600471 388.275200
   7702   7705   7709     1   109.5600471 388.275200
   7702   7714   7717     1   107.2600461 396.643200
   7702   7701   7703     1   109.5600471 388.275200
   7703   7701   7715     1   109.5600471 388.275200
   7703   7701   7723     1   109.7800468 425.094400
   7704   7702   7705     1   109.5600471 388.275200
   7704   7702   7714     1   110.2600474 425.931200
   7705   7706   7708     1   109.5600471 388.275200
   7705   7713   7716     1   107.2600461 396.643200
   7706   7707   7710     1   110.2200475 386.601600
   7706   7712   7718     1   107.2600461 396.643200
   7706   7705   7709     1   109.5600471 388.275200
   7707   7706   7708     1   109.5600471 388.275200
   7708   7706   7712     1   110.2600474 425.931200
   7709   7705   7713     1   110.2600474 425.931200
   7710   7707   7711     1   109.5800467 425.931200
   7710   7707   7723     1   109.5800467 425.931200
   7715   7721   7722     1   107.2600461 396.643200
   7719   7715   7721     1   110.2600474 425.931200
   7719   7715   7720     1   108.4600466 328.025600
   7720   7715   7721     1   110.2600474 425.931200
   7724   7725   7727     1   109.5600471 388.275200
   7724   7738   7742     1   109.5600471 388.275200
   7724   7738   7743     1   109.5600471 388.275200
   7725   7724   7726     1   109.5600471 388.275200
   7725   7728   7732     1   109.5600471 388.275200
   7725   7737   7740     1   107.2600461 396.643200
   7726   7724   7738     1   109.5600471 388.275200
   7726   7724   7746     1   109.7800468 425.094400
   7727   7725   7728     1   109.5600471 388.275200
   7727   7725   7737     1   110.2600474 425.931200
   7728   7729   7731     1   109.5600471 388.275200
   7728   7736   7739     1   107.2600461 396.643200
   7729   7728   7732     1   109.5600471 388.275200
   7729   7730   7733     1   110.2200475 386.601600
   7729   7735   7741     1   107.2600461 396.643200
   7730   7729   7731     1   109.5600471 388.275200
   7731   7729   7735     1   110.2600474 425.931200
   7732   7728   7736     1   110.2600474 425.931200
   7733   7730   7734     1   109.5800467 425.931200
   7733   7730   7746     1   109.5800467 425.931200
   7738   7744   7745     1   107.2600461 396.643200
   7742   7738   7744     1   110.2600474 425.931200
   7742   7738   7743     1   108.4600466 328.025600
   7743   7738   7744     1   110.2600474 425.931200
   7747   7748   7750     1   109.5600471 388.275200
   7747   7761   7765     1   109.5600471 388.275200
   7747   7761   7766     1   109.5600471 388.275200
   7748   7751   7755     1   109.5600471 388.275200
   7748   7760   7763     1   107.2600461 396.643200
   7748   7747   7749     1   109.5600471 388.275200
   7749   7747   7761     1   109.5600471 388.275200
   7749   7747   7769     1   109.7800468 425.094400
   7750   7748   7751     1   109.5600471 388.275200
   7750   7748   7760     1   110.2600474 425.931200
   7751   7752   7754     1   109.5600471 388.275200
   7751   7759   7762     1   107.2600461 396.643200
   7752   7753   7756     1   110.2200475 386.601600
   7752   7758   7764     1   107.2600461 396.643200
   7752   7751   7755     1   109.5600471 388.275200
   7753   7752   7754     1   109.5600471 388.275200
   7754   7752   7758     1   110.2600474 425.931200
   7755   7751   7759     1   110.2600474 425.931200
   7756   7753   7757     1   109.5800467 425.931200
   7756   7753   7769     1   109.5800467 425.931200
   7761   7767   7768     1   107.2600461 396.643200
   7765   7761   7767     1   110.2600474 425.931200
   7765   7761   7766     1   108.4600466 328.025600
   7766   7761   7767     1   110.2600474 425.931200
   7770   7771   7773     1   109.5600471 388.275200
   7770   7784   7788     1   109.5600471 388.275200
   7770   7784   7789     1   109.5600471 388.275200
   7771   7770   7772     1   109.5600471 388.275200
   7771   7774   7778     1   109.5600471 388.275200
   7771   7783   7786     1   107.2600461 396.643200
   7772   7770   7784     1   109.5600471 388.275200
   7772   7770   7792     1   109.7800468 425.094400
   7773   7771   7774     1   109.5600471 388.275200
   7773   7771   7783     1   110.2600474 425.931200
   7774   7775   7777     1   109.5600471 388.275200
   7774   7782   7785     1   107.2600461 396.643200
   7775   7774   7778     1   109.5600471 388.275200
   7775   7776   7779     1   110.2200475 386.601600
   7775   7781   7787     1   107.2600461 396.643200
   7776   7775   7777     1   109.5600471 388.275200
   7777   7775   7781     1   110.2600474 425.931200
   7778   7774   7782     1   110.2600474 425.931200
   7779   7776   7780     1   109.5800467 425.931200
   7779   7776   7792     1   109.5800467 425.931200
   7784   7790   7791     1   107.2600461 396.643200
   7788   7784   7790     1   110.2600474 425.931200
   7788   7784   7789     1   108.4600466 328.025600
   7789   7784   7790     1   110.2600474 425.931200
   7793   7794   7796     1   109.5600471 388.275200
   7793   7807   7811     1   109.5600471 388.275200
   7793   7807   7812     1   109.5600471 388.275200
   7794   7797   7801     1   109.5600471 388.275200
   7794   7806   7809     1   107.2600461 396.643200
   7794   7793   7795     1   109.5600471 388.275200
   7795   7793   7807     1   109.5600471 388.275200
   7795   7793   7815     1   109.7800468 425.094400
   7796   7794   7797     1   109.5600471 388.275200
   7796   7794   7806     1   110.2600474 425.931200
   7797   7798   7800     1   109.5600471 388.275200
   7797   7805   7808     1   107.2600461 396.643200
   7798   7799   7802     1   110.2200475 386.601600
   7798   7804   7810     1   107.2600461 396.643200
   7798   7797   7801     1   109.5600471 388.275200
   7799   7798   7800     1   109.5600471 388.275200
   7800   7798   7804     1   110.2600474 425.931200
   7801   7797   7805     1   110.2600474 425.931200
   7802   7799   7803     1   109.5800467 425.931200
   7802   7799   7815     1   109.5800467 425.931200
   7807   7813   7814     1   107.2600461 396.643200
   7811   7807   7813     1   110.2600474 425.931200
   7811   7807   7812     1   108.4600466 328.025600
   7812   7807   7813     1   110.2600474 425.931200
   7816   7817   7819     1   109.5600471 388.275200
   7816   7830   7834     1   109.5600471 388.275200
   7816   7830   7835     1   109.5600471 388.275200
   7817   7816   7818     1   109.5600471 388.275200
   7817   7820   7824     1   109.5600471 388.275200
   7817   7829   7832     1   107.2600461 396.643200
   7818   7816   7830     1   109.5600471 388.275200
   7818   7816   7838     1   109.7800468 425.094400
   7819   7817   7820     1   109.5600471 388.275200
   7819   7817   7829     1   110.2600474 425.931200
   7820   7821   7823     1   109.5600471 388.275200
   7820   7828   7831     1   107.2600461 396.643200
   7821   7820   7824     1   109.5600471 388.275200
   7821   7822   7825     1   110.2200475 386.601600
   7821   7827   7833     1   107.2600461 396.643200
   7822   7821   7823     1   109.5600471 388.275200
   7823   7821   7827     1   110.2600474 425.931200
   7824   7820   7828     1   110.2600474 425.931200
   7825   7822   7826     1   109.5800467 425.931200
   7825   7822   7838     1   109.5800467 425.931200
   7830   7836   7837     1   107.2600461 396.643200
   7834   7830   7836     1   110.2600474 425.931200
   7834   7830   7835     1   108.4600466 328.025600
   7835   7830   7836     1   110.2600474 425.931200
   7839   7840   7842     1   109.5600471 388.275200
   7839   7853   7857     1   109.5600471 388.275200
   7839   7853   7858     1   109.5600471 388.275200
   7840   7843   7847     1   109.5600471 388.275200
   7840   7852   7855     1   107.2600461 396.643200
   7840   7839   7841     1   109.5600471 388.275200
   7841   7839   7853     1   109.5600471 388.275200
   7841   7839   7861     1   109.7800468 425.094400
   7842   7840   7843     1   109.5600471 388.275200
   7842   7840   7852     1   110.2600474 425.931200
   7843   7844   7846     1   109.5600471 388.275200
   7843   7851   7854     1   107.2600461 396.643200
   7844   7845   7848     1   110.2200475 386.601600
   7844   7850   7856     1   107.2600461 396.643200
   7844   7843   7847     1   109.5600471 388.275200
   7845   7844   7846     1   109.5600471 388.275200
   7846   7844   7850     1   110.2600474 425.931200
   7847   7843   7851     1   110.2600474 425.931200
   7848   7845   7849     1   109.5800467 425.931200
   7848   7845   7861     1   109.5800467 425.931200
   7853   7859   7860     1   107.2600461 396.643200
   7857   7853   7859     1   110.2600474 425.931200
   7857   7853   7858     1   108.4600466 328.025600
   7858   7853   7859     1   110.2600474 425.931200
   7862   7863   7865     1   109.5600471 388.275200
   7862   7876   7880     1   109.5600471 388.275200
   7862   7876   7881     1   109.5600471 388.275200
   7863   7862   7864     1   109.5600471 388.275200
   7863   7866   7870     1   109.5600471 388.275200
   7863   7875   7878     1   107.2600461 396.643200
   7864   7862   7876     1   109.5600471 388.275200
   7864   7862   7884     1   109.7800468 425.094400
   7865   7863   7866     1   109.5600471 388.275200
   7865   7863   7875     1   110.2600474 425.931200
   7866   7867   7869     1   109.5600471 388.275200
   7866   7874   7877     1   107.2600461 396.643200
   7867   7866   7870     1   109.5600471 388.275200
   7867   7868   7871     1   110.2200475 386.601600
   7867   7873   7879     1   107.2600461 396.643200
   7868   7867   7869     1   109.5600471 388.275200
   7869   7867   7873     1   110.2600474 425.931200
   7870   7866   7874     1   110.2600474 425.931200
   7871   7868   7872     1   109.5800467 425.931200
   7871   7868   7884     1   109.5800467 425.931200
   7876   7882   7883     1   107.2600461 396.643200
   7880   7876   7882     1   110.2600474 425.931200
   7880   7876   7881     1   108.4600466 328.025600
   7881   7876   7882     1   110.2600474 425.931200
   7885   7886   7888     1   109.5600471 388.275200
   7885   7899   7903     1   109.5600471 388.275200
   7885   7899   7904     1   109.5600471 388.275200
   7886   7889   7893     1   109.5600471 388.275200
   7886   7898   7901     1   107.2600461 396.643200
   7886   7885   7887     1   109.5600471 388.275200
   7887   7885   7899     1   109.5600471 388.275200
   7887   7885   7907     1   109.7800468 425.094400
   7888   7886   7889     1   109.5600471 388.275200
   7888   7886   7898     1   110.2600474 425.931200
   7889   7890   7892     1   109.5600471 388.275200
   7889   7897   7900     1   107.2600461 396.643200
   7890   7891   7894     1   110.2200475 386.601600
   7890   7896   7902     1   107.2600461 396.643200
   7890   7889   7893     1   109.5600471 388.275200
   7891   7890   7892     1   109.5600471 388.275200
   7892   7890   7896     1   110.2600474 425.931200
   7893   7889   7897     1   110.2600474 425.931200
   7894   7891   7895     1   109.5800467 425.931200
   7894   7891   7907     1   109.5800467 425.931200
   7899   7905   7906     1   107.2600461 396.643200
   7903   7899   7905     1   110.2600474 425.931200
   7903   7899   7904     1   108.4600466 328.025600
   7904   7899   7905     1   110.2600474 425.931200
   7908   7909   7911     1   109.5600471 388.275200
   7908   7922   7926     1   109.5600471 388.275200
   7908   7922   7927     1   109.5600471 388.275200
   7909   7908   7910     1   109.5600471 388.275200
   7909   7912   7916     1   109.5600471 388.275200
   7909   7921   7924     1   107.2600461 396.643200
   7910   7908   7922     1   109.5600471 388.275200
   7910   7908   7930     1   109.7800468 425.094400
   7911   7909   7912     1   109.5600471 388.275200
   7911   7909   7921     1   110.2600474 425.931200
   7912   7913   7915     1   109.5600471 388.275200
   7912   7920   7923     1   107.2600461 396.643200
   7913   7912   7916     1   109.5600471 388.275200
   7913   7914   7917     1   110.2200475 386.601600
   7913   7919   7925     1   107.2600461 396.643200
   7914   7913   7915     1   109.5600471 388.275200
   7915   7913   7919     1   110.2600474 425.931200
   7916   7912   7920     1   110.2600474 425.931200
   7917   7914   7918     1   109.5800467 425.931200
   7917   7914   7930     1   109.5800467 425.931200
   7922   7928   7929     1   107.2600461 396.643200
   7926   7922   7928     1   110.2600474 425.931200
   7926   7922   7927     1   108.4600466 328.025600
   7927   7922   7928     1   110.2600474 425.931200
   7931   7932   7934     1   109.5600471 388.275200
   7931   7945   7949     1   109.5600471 388.275200
   7931   7945   7950     1   109.5600471 388.275200
   7932   7935   7939     1   109.5600471 388.275200
   7932   7944   7947     1   107.2600461 396.643200
   7932   7931   7933     1   109.5600471 388.275200
   7933   7931   7945     1   109.5600471 388.275200
   7933   7931   7953     1   109.7800468 425.094400
   7934   7932   7935     1   109.5600471 388.275200
   7934   7932   7944     1   110.2600474 425.931200
   7935   7936   7938     1   109.5600471 388.275200
   7935   7943   7946     1   107.2600461 396.643200
   7936   7937   7940     1   110.2200475 386.601600
   7936   7942   7948     1   107.2600461 396.643200
   7936   7935   7939     1   109.5600471 388.275200
   7937   7936   7938     1   109.5600471 388.275200
   7938   7936   7942     1   110.2600474 425.931200
   7939   7935   7943     1   110.2600474 425.931200
   7940   7937   7941     1   109.5800467 425.931200
   7940   7937   7953     1   109.5800467 425.931200
   7945   7951   7952     1   107.2600461 396.643200
   7949   7945   7951     1   110.2600474 425.931200
   7949   7945   7950     1   108.4600466 328.025600
   7950   7945   7951     1   110.2600474 425.931200
   7954   7955   7957     1   109.5600471 388.275200
   7954   7968   7972     1   109.5600471 388.275200
   7954   7968   7973     1   109.5600471 388.275200
   7955   7954   7956     1   109.5600471 388.275200
   7955   7958   7962     1   109.5600471 388.275200
   7955   7967   7970     1   107.2600461 396.643200
   7956   7954   7968     1   109.5600471 388.275200
   7956   7954   7976     1   109.7800468 425.094400
   7957   7955   7958     1   109.5600471 388.275200
   7957   7955   7967     1   110.2600474 425.931200
   7958   7959   7961     1   109.5600471 388.275200
   7958   7966   7969     1   107.2600461 396.643200
   7959   7958   7962     1   109.5600471 388.275200
   7959   7960   7963     1   110.2200475 386.601600
   7959   7965   7971     1   107.2600461 396.643200
   7960   7959   7961     1   109.5600471 388.275200
   7961   7959   7965     1   110.2600474 425.931200
   7962   7958   7966     1   110.2600474 425.931200
   7963   7960   7964     1   109.5800467 425.931200
   7963   7960   7976     1   109.5800467 425.931200
   7968   7974   7975     1   107.2600461 396.643200
   7972   7968   7974     1   110.2600474 425.931200
   7972   7968   7973     1   108.4600466 328.025600
   7973   7968   7974     1   110.2600474 425.931200
   7977   7978   7980     1   109.5600471 388.275200
   7977   7991   7995     1   109.5600471 388.275200
   7977   7991   7996     1   109.5600471 388.275200
   7978   7981   7985     1   109.5600471 388.275200
   7978   7990   7993     1   107.2600461 396.643200
   7978   7977   7979     1   109.5600471 388.275200
   7979   7977   7991     1   109.5600471 388.275200
   7979   7977   7999     1   109.7800468 425.094400
   7980   7978   7981     1   109.5600471 388.275200
   7980   7978   7990     1   110.2600474 425.931200
   7981   7982   7984     1   109.5600471 388.275200
   7981   7989   7992     1   107.2600461 396.643200
   7982   7983   7986     1   110.2200475 386.601600
   7982   7988   7994     1   107.2600461 396.643200
   7982   7981   7985     1   109.5600471 388.275200
   7983   7982   7984     1   109.5600471 388.275200
   7984   7982   7988     1   110.2600474 425.931200
   7985   7981   7989     1   110.2600474 425.931200
   7986   7983   7987     1   109.5800467 425.931200
   7986   7983   7999     1   109.5800467 425.931200
   7991   7997   7998     1   107.2600461 396.643200
   7995   7991   7997     1   110.2600474 425.931200
   7995   7991   7996     1   108.4600466 328.025600
   7996   7991   7997     1   110.2600474 425.931200
   8000   8001   8003     1   109.5600471 388.275200
   8000   8014   8018     1   109.5600471 388.275200
   8000   8014   8019     1   109.5600471 388.275200
   8001   8000   8002     1   109.5600471 388.275200
   8001   8004   8008     1   109.5600471 388.275200
   8001   8013   8016     1   107.2600461 396.643200
   8002   8000   8014     1   109.5600471 388.275200
   8002   8000   8022     1   109.7800468 425.094400
   8003   8001   8004     1   109.5600471 388.275200
   8003   8001   8013     1   110.2600474 425.931200
   8004   8005   8007     1   109.5600471 388.275200
   8004   8012   8015     1   107.2600461 396.643200
   8005   8004   8008     1   109.5600471 388.275200
   8005   8006   8009     1   110.2200475 386.601600
   8005   8011   8017     1   107.2600461 396.643200
   8006   8005   8007     1   109.5600471 388.275200
   8007   8005   8011     1   110.2600474 425.931200
   8008   8004   8012     1   110.2600474 425.931200
   8009   8006   8010     1   109.5800467 425.931200
   8009   8006   8022     1   109.5800467 425.931200
   8014   8020   8021     1   107.2600461 396.643200
   8018   8014   8020     1   110.2600474 425.931200
   8018   8014   8019     1   108.4600466 328.025600
   8019   8014   8020     1   110.2600474 425.931200
   8023   8024   8026     1   109.5600471 388.275200
   8023   8037   8041     1   109.5600471 388.275200
   8023   8037   8042     1   109.5600471 388.275200
   8024   8027   8031     1   109.5600471 388.275200
   8024   8036   8039     1   107.2600461 396.643200
   8024   8023   8025     1   109.5600471 388.275200
   8025   8023   8037     1   109.5600471 388.275200
   8025   8023   8045     1   109.7800468 425.094400
   8026   8024   8027     1   109.5600471 388.275200
   8026   8024   8036     1   110.2600474 425.931200
   8027   8028   8030     1   109.5600471 388.275200
   8027   8035   8038     1   107.2600461 396.643200
   8028   8029   8032     1   110.2200475 386.601600
   8028   8034   8040     1   107.2600461 396.643200
   8028   8027   8031     1   109.5600471 388.275200
   8029   8028   8030     1   109.5600471 388.275200
   8030   8028   8034     1   110.2600474 425.931200
   8031   8027   8035     1   110.2600474 425.931200
   8032   8029   8033     1   109.5800467 425.931200
   8032   8029   8045     1   109.5800467 425.931200
   8037   8043   8044     1   107.2600461 396.643200
   8041   8037   8043     1   110.2600474 425.931200
   8041   8037   8042     1   108.4600466 328.025600
   8042   8037   8043     1   110.2600474 425.931200
   8046   8047   8049     1   109.5600471 388.275200
   8046   8060   8064     1   109.5600471 388.275200
   8046   8060   8065     1   109.5600471 388.275200
   8047   8046   8048     1   109.5600471 388.275200
   8047   8050   8054     1   109.5600471 388.275200
   8047   8059   8062     1   107.2600461 396.643200
   8048   8046   8060     1   109.5600471 388.275200
   8048   8046   8068     1   109.7800468 425.094400
   8049   8047   8050     1   109.5600471 388.275200
   8049   8047   8059     1   110.2600474 425.931200
   8050   8051   8053     1   109.5600471 388.275200
   8050   8058   8061     1   107.2600461 396.643200
   8051   8050   8054     1   109.5600471 388.275200
   8051   8052   8055     1   110.2200475 386.601600
   8051   8057   8063     1   107.2600461 396.643200
   8052   8051   8053     1   109.5600471 388.275200
   8053   8051   8057     1   110.2600474 425.931200
   8054   8050   8058     1   110.2600474 425.931200
   8055   8052   8056     1   109.5800467 425.931200
   8055   8052   8068     1   109.5800467 425.931200
   8060   8066   8067     1   107.2600461 396.643200
   8064   8060   8066     1   110.2600474 425.931200
   8064   8060   8065     1   108.4600466 328.025600
   8065   8060   8066     1   110.2600474 425.931200
   8069   8070   8072     1   109.5600471 388.275200
   8069   8083   8087     1   109.5600471 388.275200
   8069   8083   8088     1   109.5600471 388.275200
   8070   8073   8077     1   109.5600471 388.275200
   8070   8082   8085     1   107.2600461 396.643200
   8070   8069   8071     1   109.5600471 388.275200
   8071   8069   8083     1   109.5600471 388.275200
   8071   8069   8091     1   109.7800468 425.094400
   8072   8070   8073     1   109.5600471 388.275200
   8072   8070   8082     1   110.2600474 425.931200
   8073   8074   8076     1   109.5600471 388.275200
   8073   8081   8084     1   107.2600461 396.643200
   8074   8075   8078     1   110.2200475 386.601600
   8074   8080   8086     1   107.2600461 396.643200
   8074   8073   8077     1   109.5600471 388.275200
   8075   8074   8076     1   109.5600471 388.275200
   8076   8074   8080     1   110.2600474 425.931200
   8077   8073   8081     1   110.2600474 425.931200
   8078   8075   8079     1   109.5800467 425.931200
   8078   8075   8091     1   109.5800467 425.931200
   8083   8089   8090     1   107.2600461 396.643200
   8087   8083   8089     1   110.2600474 425.931200
   8087   8083   8088     1   108.4600466 328.025600
   8088   8083   8089     1   110.2600474 425.931200
   8092   8093   8095     1   109.5600471 388.275200
   8092   8106   8110     1   109.5600471 388.275200
   8092   8106   8111     1   109.5600471 388.275200
   8093   8092   8094     1   109.5600471 388.275200
   8093   8096   8100     1   109.5600471 388.275200
   8093   8105   8108     1   107.2600461 396.643200
   8094   8092   8106     1   109.5600471 388.275200
   8094   8092   8114     1   109.7800468 425.094400
   8095   8093   8096     1   109.5600471 388.275200
   8095   8093   8105     1   110.2600474 425.931200
   8096   8097   8099     1   109.5600471 388.275200
   8096   8104   8107     1   107.2600461 396.643200
   8097   8096   8100     1   109.5600471 388.275200
   8097   8098   8101     1   110.2200475 386.601600
   8097   8103   8109     1   107.2600461 396.643200
   8098   8097   8099     1   109.5600471 388.275200
   8099   8097   8103     1   110.2600474 425.931200
   8100   8096   8104     1   110.2600474 425.931200
   8101   8098   8102     1   109.5800467 425.931200
   8101   8098   8114     1   109.5800467 425.931200
   8106   8112   8113     1   107.2600461 396.643200
   8110   8106   8112     1   110.2600474 425.931200
   8110   8106   8111     1   108.4600466 328.025600
   8111   8106   8112     1   110.2600474 425.931200
   8115   8116   8118     1   109.5600471 388.275200
   8115   8129   8133     1   109.5600471 388.275200
   8115   8129   8134     1   109.5600471 388.275200
   8116   8119   8123     1   109.5600471 388.275200
   8116   8128   8131     1   107.2600461 396.643200
   8116   8115   8117     1   109.5600471 388.275200
   8117   8115   8129     1   109.5600471 388.275200
   8117   8115   8137     1   109.7800468 425.094400
   8118   8116   8119     1   109.5600471 388.275200
   8118   8116   8128     1   110.2600474 425.931200
   8119   8120   8122     1   109.5600471 388.275200
   8119   8127   8130     1   107.2600461 396.643200
   8120   8121   8124     1   110.2200475 386.601600
   8120   8126   8132     1   107.2600461 396.643200
   8120   8119   8123     1   109.5600471 388.275200
   8121   8120   8122     1   109.5600471 388.275200
   8122   8120   8126     1   110.2600474 425.931200
   8123   8119   8127     1   110.2600474 425.931200
   8124   8121   8125     1   109.5800467 425.931200
   8124   8121   8137     1   109.5800467 425.931200
   8129   8135   8136     1   107.2600461 396.643200
   8133   8129   8135     1   110.2600474 425.931200
   8133   8129   8134     1   108.4600466 328.025600
   8134   8129   8135     1   110.2600474 425.931200
   8138   8139   8141     1   109.5600471 388.275200
   8138   8152   8156     1   109.5600471 388.275200
   8138   8152   8157     1   109.5600471 388.275200
   8139   8138   8140     1   109.5600471 388.275200
   8139   8142   8146     1   109.5600471 388.275200
   8139   8151   8154     1   107.2600461 396.643200
   8140   8138   8152     1   109.5600471 388.275200
   8140   8138   8160     1   109.7800468 425.094400
   8141   8139   8142     1   109.5600471 388.275200
   8141   8139   8151     1   110.2600474 425.931200
   8142   8143   8145     1   109.5600471 388.275200
   8142   8150   8153     1   107.2600461 396.643200
   8143   8142   8146     1   109.5600471 388.275200
   8143   8144   8147     1   110.2200475 386.601600
   8143   8149   8155     1   107.2600461 396.643200
   8144   8143   8145     1   109.5600471 388.275200
   8145   8143   8149     1   110.2600474 425.931200
   8146   8142   8150     1   110.2600474 425.931200
   8147   8144   8148     1   109.5800467 425.931200
   8147   8144   8160     1   109.5800467 425.931200
   8152   8158   8159     1   107.2600461 396.643200
   8156   8152   8158     1   110.2600474 425.931200
   8156   8152   8157     1   108.4600466 328.025600
   8157   8152   8158     1   110.2600474 425.931200
   8161   8162   8164     1   109.5600471 388.275200
   8161   8175   8179     1   109.5600471 388.275200
   8161   8175   8180     1   109.5600471 388.275200
   8162   8165   8169     1   109.5600471 388.275200
   8162   8174   8177     1   107.2600461 396.643200
   8162   8161   8163     1   109.5600471 388.275200
   8163   8161   8175     1   109.5600471 388.275200
   8163   8161   8183     1   109.7800468 425.094400
   8164   8162   8165     1   109.5600471 388.275200
   8164   8162   8174     1   110.2600474 425.931200
   8165   8166   8168     1   109.5600471 388.275200
   8165   8173   8176     1   107.2600461 396.643200
   8166   8167   8170     1   110.2200475 386.601600
   8166   8172   8178     1   107.2600461 396.643200
   8166   8165   8169     1   109.5600471 388.275200
   8167   8166   8168     1   109.5600471 388.275200
   8168   8166   8172     1   110.2600474 425.931200
   8169   8165   8173     1   110.2600474 425.931200
   8170   8167   8171     1   109.5800467 425.931200
   8170   8167   8183     1   109.5800467 425.931200
   8175   8181   8182     1   107.2600461 396.643200
   8179   8175   8181     1   110.2600474 425.931200
   8179   8175   8180     1   108.4600466 328.025600
   8180   8175   8181     1   110.2600474 425.931200
   8184   8185   8187     1   109.5600471 388.275200
   8184   8198   8202     1   109.5600471 388.275200
   8184   8198   8203     1   109.5600471 388.275200
   8185   8184   8186     1   109.5600471 388.275200
   8185   8188   8192     1   109.5600471 388.275200
   8185   8197   8200     1   107.2600461 396.643200
   8186   8184   8198     1   109.5600471 388.275200
   8186   8184   8206     1   109.7800468 425.094400
   8187   8185   8188     1   109.5600471 388.275200
   8187   8185   8197     1   110.2600474 425.931200
   8188   8189   8191     1   109.5600471 388.275200
   8188   8196   8199     1   107.2600461 396.643200
   8189   8188   8192     1   109.5600471 388.275200
   8189   8190   8193     1   110.2200475 386.601600
   8189   8195   8201     1   107.2600461 396.643200
   8190   8189   8191     1   109.5600471 388.275200
   8191   8189   8195     1   110.2600474 425.931200
   8192   8188   8196     1   110.2600474 425.931200
   8193   8190   8194     1   109.5800467 425.931200
   8193   8190   8206     1   109.5800467 425.931200
   8198   8204   8205     1   107.2600461 396.643200
   8202   8198   8204     1   110.2600474 425.931200
   8202   8198   8203     1   108.4600466 328.025600
   8203   8198   8204     1   110.2600474 425.931200
   8207   8208   8210     1   109.5600471 388.275200
   8207   8221   8225     1   109.5600471 388.275200
   8207   8221   8226     1   109.5600471 388.275200
   8208   8211   8215     1   109.5600471 388.275200
   8208   8220   8223     1   107.2600461 396.643200
   8208   8207   8209     1   109.5600471 388.275200
   8209   8207   8221     1   109.5600471 388.275200
   8209   8207   8229     1   109.7800468 425.094400
   8210   8208   8211     1   109.5600471 388.275200
   8210   8208   8220     1   110.2600474 425.931200
   8211   8212   8214     1   109.5600471 388.275200
   8211   8219   8222     1   107.2600461 396.643200
   8212   8213   8216     1   110.2200475 386.601600
   8212   8218   8224     1   107.2600461 396.643200
   8212   8211   8215     1   109.5600471 388.275200
   8213   8212   8214     1   109.5600471 388.275200
   8214   8212   8218     1   110.2600474 425.931200
   8215   8211   8219     1   110.2600474 425.931200
   8216   8213   8217     1   109.5800467 425.931200
   8216   8213   8229     1   109.5800467 425.931200
   8221   8227   8228     1   107.2600461 396.643200
   8225   8221   8227     1   110.2600474 425.931200
   8225   8221   8226     1   108.4600466 328.025600
   8226   8221   8227     1   110.2600474 425.931200
   8230   8231   8233     1   109.5600471 388.275200
   8230   8244   8248     1   109.5600471 388.275200
   8230   8244   8249     1   109.5600471 388.275200
   8231   8230   8232     1   109.5600471 388.275200
   8231   8234   8238     1   109.5600471 388.275200
   8231   8243   8246     1   107.2600461 396.643200
   8232   8230   8244     1   109.5600471 388.275200
   8232   8230   8252     1   109.7800468 425.094400
   8233   8231   8234     1   109.5600471 388.275200
   8233   8231   8243     1   110.2600474 425.931200
   8234   8235   8237     1   109.5600471 388.275200
   8234   8242   8245     1   107.2600461 396.643200
   8235   8234   8238     1   109.5600471 388.275200
   8235   8236   8239     1   110.2200475 386.601600
   8235   8241   8247     1   107.2600461 396.643200
   8236   8235   8237     1   109.5600471 388.275200
   8237   8235   8241     1   110.2600474 425.931200
   8238   8234   8242     1   110.2600474 425.931200
   8239   8236   8240     1   109.5800467 425.931200
   8239   8236   8252     1   109.5800467 425.931200
   8244   8250   8251     1   107.2600461 396.643200
   8248   8244   8250     1   110.2600474 425.931200
   8248   8244   8249     1   108.4600466 328.025600
   8249   8244   8250     1   110.2600474 425.931200
   8253   8254   8256     1   109.5600471 388.275200
   8253   8267   8271     1   109.5600471 388.275200
   8253   8267   8272     1   109.5600471 388.275200
   8254   8257   8261     1   109.5600471 388.275200
   8254   8266   8269     1   107.2600461 396.643200
   8254   8253   8255     1   109.5600471 388.275200
   8255   8253   8267     1   109.5600471 388.275200
   8255   8253   8275     1   109.7800468 425.094400
   8256   8254   8257     1   109.5600471 388.275200
   8256   8254   8266     1   110.2600474 425.931200
   8257   8258   8260     1   109.5600471 388.275200
   8257   8265   8268     1   107.2600461 396.643200
   8258   8259   8262     1   110.2200475 386.601600
   8258   8264   8270     1   107.2600461 396.643200
   8258   8257   8261     1   109.5600471 388.275200
   8259   8258   8260     1   109.5600471 388.275200
   8260   8258   8264     1   110.2600474 425.931200
   8261   8257   8265     1   110.2600474 425.931200
   8262   8259   8263     1   109.5800467 425.931200
   8262   8259   8275     1   109.5800467 425.931200
   8267   8273   8274     1   107.2600461 396.643200
   8271   8267   8273     1   110.2600474 425.931200
   8271   8267   8272     1   108.4600466 328.025600
   8272   8267   8273     1   110.2600474 425.931200
   8276   8277   8279     1   109.5600471 388.275200
   8276   8290   8294     1   109.5600471 388.275200
   8276   8290   8295     1   109.5600471 388.275200
   8277   8276   8278     1   109.5600471 388.275200
   8277   8280   8284     1   109.5600471 388.275200
   8277   8289   8292     1   107.2600461 396.643200
   8278   8276   8290     1   109.5600471 388.275200
   8278   8276   8298     1   109.7800468 425.094400
   8279   8277   8280     1   109.5600471 388.275200
   8279   8277   8289     1   110.2600474 425.931200
   8280   8281   8283     1   109.5600471 388.275200
   8280   8288   8291     1   107.2600461 396.643200
   8281   8280   8284     1   109.5600471 388.275200
   8281   8282   8285     1   110.2200475 386.601600
   8281   8287   8293     1   107.2600461 396.643200
   8282   8281   8283     1   109.5600471 388.275200
   8283   8281   8287     1   110.2600474 425.931200
   8284   8280   8288     1   110.2600474 425.931200
   8285   8282   8286     1   109.5800467 425.931200
   8285   8282   8298     1   109.5800467 425.931200
   8290   8296   8297     1   107.2600461 396.643200
   8294   8290   8296     1   110.2600474 425.931200
   8294   8290   8295     1   108.4600466 328.025600
   8295   8290   8296     1   110.2600474 425.931200
   8299   8300   8302     1   109.5600471 388.275200
   8299   8313   8317     1   109.5600471 388.275200
   8299   8313   8318     1   109.5600471 388.275200
   8300   8303   8307     1   109.5600471 388.275200
   8300   8312   8315     1   107.2600461 396.643200
   8300   8299   8301     1   109.5600471 388.275200
   8301   8299   8313     1   109.5600471 388.275200
   8301   8299   8321     1   109.7800468 425.094400
   8302   8300   8303     1   109.5600471 388.275200
   8302   8300   8312     1   110.2600474 425.931200
   8303   8304   8306     1   109.5600471 388.275200
   8303   8311   8314     1   107.2600461 396.643200
   8304   8305   8308     1   110.2200475 386.601600
   8304   8310   8316     1   107.2600461 396.643200
   8304   8303   8307     1   109.5600471 388.275200
   8305   8304   8306     1   109.5600471 388.275200
   8306   8304   8310     1   110.2600474 425.931200
   8307   8303   8311     1   110.2600474 425.931200
   8308   8305   8309     1   109.5800467 425.931200
   8308   8305   8321     1   109.5800467 425.931200
   8313   8319   8320     1   107.2600461 396.643200
   8317   8313   8319     1   110.2600474 425.931200
   8317   8313   8318     1   108.4600466 328.025600
   8318   8313   8319     1   110.2600474 425.931200
   8322   8323   8325     1   109.5600471 388.275200
   8322   8336   8340     1   109.5600471 388.275200
   8322   8336   8341     1   109.5600471 388.275200
   8323   8322   8324     1   109.5600471 388.275200
   8323   8326   8330     1   109.5600471 388.275200
   8323   8335   8338     1   107.2600461 396.643200
   8324   8322   8336     1   109.5600471 388.275200
   8324   8322   8344     1   109.7800468 425.094400
   8325   8323   8326     1   109.5600471 388.275200
   8325   8323   8335     1   110.2600474 425.931200
   8326   8327   8329     1   109.5600471 388.275200
   8326   8334   8337     1   107.2600461 396.643200
   8327   8326   8330     1   109.5600471 388.275200
   8327   8328   8331     1   110.2200475 386.601600
   8327   8333   8339     1   107.2600461 396.643200
   8328   8327   8329     1   109.5600471 388.275200
   8329   8327   8333     1   110.2600474 425.931200
   8330   8326   8334     1   110.2600474 425.931200
   8331   8328   8332     1   109.5800467 425.931200
   8331   8328   8344     1   109.5800467 425.931200
   8336   8342   8343     1   107.2600461 396.643200
   8340   8336   8342     1   110.2600474 425.931200
   8340   8336   8341     1   108.4600466 328.025600
   8341   8336   8342     1   110.2600474 425.931200
   8345   8346   8348     1   109.5600471 388.275200
   8345   8359   8363     1   109.5600471 388.275200
   8345   8359   8364     1   109.5600471 388.275200
   8346   8349   8353     1   109.5600471 388.275200
   8346   8358   8361     1   107.2600461 396.643200
   8346   8345   8347     1   109.5600471 388.275200
   8347   8345   8359     1   109.5600471 388.275200
   8347   8345   8367     1   109.7800468 425.094400
   8348   8346   8349     1   109.5600471 388.275200
   8348   8346   8358     1   110.2600474 425.931200
   8349   8350   8352     1   109.5600471 388.275200
   8349   8357   8360     1   107.2600461 396.643200
   8350   8351   8354     1   110.2200475 386.601600
   8350   8356   8362     1   107.2600461 396.643200
   8350   8349   8353     1   109.5600471 388.275200
   8351   8350   8352     1   109.5600471 388.275200
   8352   8350   8356     1   110.2600474 425.931200
   8353   8349   8357     1   110.2600474 425.931200
   8354   8351   8355     1   109.5800467 425.931200
   8354   8351   8367     1   109.5800467 425.931200
   8359   8365   8366     1   107.2600461 396.643200
   8363   8359   8365     1   110.2600474 425.931200
   8363   8359   8364     1   108.4600466 328.025600
   8364   8359   8365     1   110.2600474 425.931200
   8368   8369   8371     1   109.5600471 388.275200
   8368   8382   8386     1   109.5600471 388.275200
   8368   8382   8387     1   109.5600471 388.275200
   8369   8368   8370     1   109.5600471 388.275200
   8369   8372   8376     1   109.5600471 388.275200
   8369   8381   8384     1   107.2600461 396.643200
   8370   8368   8382     1   109.5600471 388.275200
   8370   8368   8390     1   109.7800468 425.094400
   8371   8369   8372     1   109.5600471 388.275200
   8371   8369   8381     1   110.2600474 425.931200
   8372   8373   8375     1   109.5600471 388.275200
   8372   8380   8383     1   107.2600461 396.643200
   8373   8372   8376     1   109.5600471 388.275200
   8373   8374   8377     1   110.2200475 386.601600
   8373   8379   8385     1   107.2600461 396.643200
   8374   8373   8375     1   109.5600471 388.275200
   8375   8373   8379     1   110.2600474 425.931200
   8376   8372   8380     1   110.2600474 425.931200
   8377   8374   8378     1   109.5800467 425.931200
   8377   8374   8390     1   109.5800467 425.931200
   8382   8388   8389     1   107.2600461 396.643200
   8386   8382   8388     1   110.2600474 425.931200
   8386   8382   8387     1   108.4600466 328.025600
   8387   8382   8388     1   110.2600474 425.931200
   8391   8392   8394     1   109.5600471 388.275200
   8391   8405   8409     1   109.5600471 388.275200
   8391   8405   8410     1   109.5600471 388.275200
   8392   8395   8399     1   109.5600471 388.275200
   8392   8404   8407     1   107.2600461 396.643200
   8392   8391   8393     1   109.5600471 388.275200
   8393   8391   8405     1   109.5600471 388.275200
   8393   8391   8413     1   109.7800468 425.094400
   8394   8392   8395     1   109.5600471 388.275200
   8394   8392   8404     1   110.2600474 425.931200
   8395   8396   8398     1   109.5600471 388.275200
   8395   8403   8406     1   107.2600461 396.643200
   8396   8397   8400     1   110.2200475 386.601600
   8396   8402   8408     1   107.2600461 396.643200
   8396   8395   8399     1   109.5600471 388.275200
   8397   8396   8398     1   109.5600471 388.275200
   8398   8396   8402     1   110.2600474 425.931200
   8399   8395   8403     1   110.2600474 425.931200
   8400   8397   8401     1   109.5800467 425.931200
   8400   8397   8413     1   109.5800467 425.931200
   8405   8411   8412     1   107.2600461 396.643200
   8409   8405   8411     1   110.2600474 425.931200
   8409   8405   8410     1   108.4600466 328.025600
   8410   8405   8411     1   110.2600474 425.931200
   8414   8415   8417     1   109.5600471 388.275200
   8414   8428   8432     1   109.5600471 388.275200
   8414   8428   8433     1   109.5600471 388.275200
   8415   8414   8416     1   109.5600471 388.275200
   8415   8418   8422     1   109.5600471 388.275200
   8415   8427   8430     1   107.2600461 396.643200
   8416   8414   8428     1   109.5600471 388.275200
   8416   8414   8436     1   109.7800468 425.094400
   8417   8415   8418     1   109.5600471 388.275200
   8417   8415   8427     1   110.2600474 425.931200
   8418   8419   8421     1   109.5600471 388.275200
   8418   8426   8429     1   107.2600461 396.643200
   8419   8418   8422     1   109.5600471 388.275200
   8419   8420   8423     1   110.2200475 386.601600
   8419   8425   8431     1   107.2600461 396.643200
   8420   8419   8421     1   109.5600471 388.275200
   8421   8419   8425     1   110.2600474 425.931200
   8422   8418   8426     1   110.2600474 425.931200
   8423   8420   8424     1   109.5800467 425.931200
   8423   8420   8436     1   109.5800467 425.931200
   8428   8434   8435     1   107.2600461 396.643200
   8432   8428   8434     1   110.2600474 425.931200
   8432   8428   8433     1   108.4600466 328.025600
   8433   8428   8434     1   110.2600474 425.931200
   8437   8438   8440     1   109.5600471 388.275200
   8437   8451   8455     1   109.5600471 388.275200
   8437   8451   8456     1   109.5600471 388.275200
   8438   8441   8445     1   109.5600471 388.275200
   8438   8450   8453     1   107.2600461 396.643200
   8438   8437   8439     1   109.5600471 388.275200
   8439   8437   8451     1   109.5600471 388.275200
   8439   8437   8459     1   109.7800468 425.094400
   8440   8438   8441     1   109.5600471 388.275200
   8440   8438   8450     1   110.2600474 425.931200
   8441   8442   8444     1   109.5600471 388.275200
   8441   8449   8452     1   107.2600461 396.643200
   8442   8443   8446     1   110.2200475 386.601600
   8442   8448   8454     1   107.2600461 396.643200
   8442   8441   8445     1   109.5600471 388.275200
   8443   8442   8444     1   109.5600471 388.275200
   8444   8442   8448     1   110.2600474 425.931200
   8445   8441   8449     1   110.2600474 425.931200
   8446   8443   8447     1   109.5800467 425.931200
   8446   8443   8459     1   109.5800467 425.931200
   8451   8457   8458     1   107.2600461 396.643200
   8455   8451   8457     1   110.2600474 425.931200
   8455   8451   8456     1   108.4600466 328.025600
   8456   8451   8457     1   110.2600474 425.931200
   8460   8461   8463     1   109.5600471 388.275200
   8460   8474   8478     1   109.5600471 388.275200
   8460   8474   8479     1   109.5600471 388.275200
   8461   8460   8462     1   109.5600471 388.275200
   8461   8464   8468     1   109.5600471 388.275200
   8461   8473   8476     1   107.2600461 396.643200
   8462   8460   8474     1   109.5600471 388.275200
   8462   8460   8482     1   109.7800468 425.094400
   8463   8461   8464     1   109.5600471 388.275200
   8463   8461   8473     1   110.2600474 425.931200
   8464   8465   8467     1   109.5600471 388.275200
   8464   8472   8475     1   107.2600461 396.643200
   8465   8464   8468     1   109.5600471 388.275200
   8465   8466   8469     1   110.2200475 386.601600
   8465   8471   8477     1   107.2600461 396.643200
   8466   8465   8467     1   109.5600471 388.275200
   8467   8465   8471     1   110.2600474 425.931200
   8468   8464   8472     1   110.2600474 425.931200
   8469   8466   8470     1   109.5800467 425.931200
   8469   8466   8482     1   109.5800467 425.931200
   8474   8480   8481     1   107.2600461 396.643200
   8478   8474   8480     1   110.2600474 425.931200
   8478   8474   8479     1   108.4600466 328.025600
   8479   8474   8480     1   110.2600474 425.931200
   8483   8484   8486     1   109.5600471 388.275200
   8483   8497   8501     1   109.5600471 388.275200
   8483   8497   8502     1   109.5600471 388.275200
   8484   8487   8491     1   109.5600471 388.275200
   8484   8496   8499     1   107.2600461 396.643200
   8484   8483   8485     1   109.5600471 388.275200
   8485   8483   8497     1   109.5600471 388.275200
   8485   8483   8505     1   109.7800468 425.094400
   8486   8484   8487     1   109.5600471 388.275200
   8486   8484   8496     1   110.2600474 425.931200
   8487   8488   8490     1   109.5600471 388.275200
   8487   8495   8498     1   107.2600461 396.643200
   8488   8489   8492     1   110.2200475 386.601600
   8488   8494   8500     1   107.2600461 396.643200
   8488   8487   8491     1   109.5600471 388.275200
   8489   8488   8490     1   109.5600471 388.275200
   8490   8488   8494     1   110.2600474 425.931200
   8491   8487   8495     1   110.2600474 425.931200
   8492   8489   8493     1   109.5800467 425.931200
   8492   8489   8505     1   109.5800467 425.931200
   8497   8503   8504     1   107.2600461 396.643200
   8501   8497   8503     1   110.2600474 425.931200
   8501   8497   8502     1   108.4600466 328.025600
   8502   8497   8503     1   110.2600474 425.931200
   8506   8507   8509     1   109.5600471 388.275200
   8506   8520   8524     1   109.5600471 388.275200
   8506   8520   8525     1   109.5600471 388.275200
   8507   8506   8508     1   109.5600471 388.275200
   8507   8510   8514     1   109.5600471 388.275200
   8507   8519   8522     1   107.2600461 396.643200
   8508   8506   8520     1   109.5600471 388.275200
   8508   8506   8528     1   109.7800468 425.094400
   8509   8507   8510     1   109.5600471 388.275200
   8509   8507   8519     1   110.2600474 425.931200
   8510   8511   8513     1   109.5600471 388.275200
   8510   8518   8521     1   107.2600461 396.643200
   8511   8510   8514     1   109.5600471 388.275200
   8511   8512   8515     1   110.2200475 386.601600
   8511   8517   8523     1   107.2600461 396.643200
   8512   8511   8513     1   109.5600471 388.275200
   8513   8511   8517     1   110.2600474 425.931200
   8514   8510   8518     1   110.2600474 425.931200
   8515   8512   8516     1   109.5800467 425.931200
   8515   8512   8528     1   109.5800467 425.931200
   8520   8526   8527     1   107.2600461 396.643200
   8524   8520   8526     1   110.2600474 425.931200
   8524   8520   8525     1   108.4600466 328.025600
   8525   8520   8526     1   110.2600474 425.931200
   8529   8530   8532     1   109.5600471 388.275200
   8529   8543   8547     1   109.5600471 388.275200
   8529   8543   8548     1   109.5600471 388.275200
   8530   8533   8537     1   109.5600471 388.275200
   8530   8542   8545     1   107.2600461 396.643200
   8530   8529   8531     1   109.5600471 388.275200
   8531   8529   8543     1   109.5600471 388.275200
   8531   8529   8551     1   109.7800468 425.094400
   8532   8530   8533     1   109.5600471 388.275200
   8532   8530   8542     1   110.2600474 425.931200
   8533   8534   8536     1   109.5600471 388.275200
   8533   8541   8544     1   107.2600461 396.643200
   8534   8535   8538     1   110.2200475 386.601600
   8534   8540   8546     1   107.2600461 396.643200
   8534   8533   8537     1   109.5600471 388.275200
   8535   8534   8536     1   109.5600471 388.275200
   8536   8534   8540     1   110.2600474 425.931200
   8537   8533   8541     1   110.2600474 425.931200
   8538   8535   8539     1   109.5800467 425.931200
   8538   8535   8551     1   109.5800467 425.931200
   8543   8549   8550     1   107.2600461 396.643200
   8547   8543   8549     1   110.2600474 425.931200
   8547   8543   8548     1   108.4600466 328.025600
   8548   8543   8549     1   110.2600474 425.931200
   8552   8553   8555     1   109.5600471 388.275200
   8552   8566   8570     1   109.5600471 388.275200
   8552   8566   8571     1   109.5600471 388.275200
   8553   8552   8554     1   109.5600471 388.275200
   8553   8556   8560     1   109.5600471 388.275200
   8553   8565   8568     1   107.2600461 396.643200
   8554   8552   8566     1   109.5600471 388.275200
   8554   8552   8574     1   109.7800468 425.094400
   8555   8553   8556     1   109.5600471 388.275200
   8555   8553   8565     1   110.2600474 425.931200
   8556   8557   8559     1   109.5600471 388.275200
   8556   8564   8567     1   107.2600461 396.643200
   8557   8556   8560     1   109.5600471 388.275200
   8557   8558   8561     1   110.2200475 386.601600
   8557   8563   8569     1   107.2600461 396.643200
   8558   8557   8559     1   109.5600471 388.275200
   8559   8557   8563     1   110.2600474 425.931200
   8560   8556   8564     1   110.2600474 425.931200
   8561   8558   8562     1   109.5800467 425.931200
   8561   8558   8574     1   109.5800467 425.931200
   8566   8572   8573     1   107.2600461 396.643200
   8570   8566   8572     1   110.2600474 425.931200
   8570   8566   8571     1   108.4600466 328.025600
   8571   8566   8572     1   110.2600474 425.931200
   8575   8576   8578     1   109.5600471 388.275200
   8575   8589   8593     1   109.5600471 388.275200
   8575   8589   8594     1   109.5600471 388.275200
   8576   8579   8583     1   109.5600471 388.275200
   8576   8588   8591     1   107.2600461 396.643200
   8576   8575   8577     1   109.5600471 388.275200
   8577   8575   8589     1   109.5600471 388.275200
   8577   8575   8597     1   109.7800468 425.094400
   8578   8576   8579     1   109.5600471 388.275200
   8578   8576   8588     1   110.2600474 425.931200
   8579   8580   8582     1   109.5600471 388.275200
   8579   8587   8590     1   107.2600461 396.643200
   8580   8581   8584     1   110.2200475 386.601600
   8580   8586   8592     1   107.2600461 396.643200
   8580   8579   8583     1   109.5600471 388.275200
   8581   8580   8582     1   109.5600471 388.275200
   8582   8580   8586     1   110.2600474 425.931200
   8583   8579   8587     1   110.2600474 425.931200
   8584   8581   8585     1   109.5800467 425.931200
   8584   8581   8597     1   109.5800467 425.931200
   8589   8595   8596     1   107.2600461 396.643200
   8593   8589   8595     1   110.2600474 425.931200
   8593   8589   8594     1   108.4600466 328.025600
   8594   8589   8595     1   110.2600474 425.931200
   8598   8599   8601     1   109.5600471 388.275200
   8598   8612   8616     1   109.5600471 388.275200
   8598   8612   8617     1   109.5600471 388.275200
   8599   8598   8600     1   109.5600471 388.275200
   8599   8602   8606     1   109.5600471 388.275200
   8599   8611   8614     1   107.2600461 396.643200
   8600   8598   8612     1   109.5600471 388.275200
   8600   8598   8620     1   109.7800468 425.094400
   8601   8599   8602     1   109.5600471 388.275200
   8601   8599   8611     1   110.2600474 425.931200
   8602   8603   8605     1   109.5600471 388.275200
   8602   8610   8613     1   107.2600461 396.643200
   8603   8602   8606     1   109.5600471 388.275200
   8603   8604   8607     1   110.2200475 386.601600
   8603   8609   8615     1   107.2600461 396.643200
   8604   8603   8605     1   109.5600471 388.275200
   8605   8603   8609     1   110.2600474 425.931200
   8606   8602   8610     1   110.2600474 425.931200
   8607   8604   8608     1   109.5800467 425.931200
   8607   8604   8620     1   109.5800467 425.931200
   8612   8618   8619     1   107.2600461 396.643200
   8616   8612   8618     1   110.2600474 425.931200
   8616   8612   8617     1   108.4600466 328.025600
   8617   8612   8618     1   110.2600474 425.931200
   8621   8622   8624     1   109.5600471 388.275200
   8621   8635   8639     1   109.5600471 388.275200
   8621   8635   8640     1   109.5600471 388.275200
   8622   8625   8629     1   109.5600471 388.275200
   8622   8634   8637     1   107.2600461 396.643200
   8622   8621   8623     1   109.5600471 388.275200
   8623   8621   8635     1   109.5600471 388.275200
   8623   8621   8643     1   109.7800468 425.094400
   8624   8622   8625     1   109.5600471 388.275200
   8624   8622   8634     1   110.2600474 425.931200
   8625   8626   8628     1   109.5600471 388.275200
   8625   8633   8636     1   107.2600461 396.643200
   8626   8627   8630     1   110.2200475 386.601600
   8626   8632   8638     1   107.2600461 396.643200
   8626   8625   8629     1   109.5600471 388.275200
   8627   8626   8628     1   109.5600471 388.275200
   8628   8626   8632     1   110.2600474 425.931200
   8629   8625   8633     1   110.2600474 425.931200
   8630   8627   8631     1   109.5800467 425.931200
   8630   8627   8643     1   109.5800467 425.931200
   8635   8641   8642     1   107.2600461 396.643200
   8639   8635   8641     1   110.2600474 425.931200
   8639   8635   8640     1   108.4600466 328.025600
   8640   8635   8641     1   110.2600474 425.931200
   8644   8645   8647     1   109.5600471 388.275200
   8644   8658   8662     1   109.5600471 388.275200
   8644   8658   8663     1   109.5600471 388.275200
   8645   8644   8646     1   109.5600471 388.275200
   8645   8648   8652     1   109.5600471 388.275200
   8645   8657   8660     1   107.2600461 396.643200
   8646   8644   8658     1   109.5600471 388.275200
   8646   8644   8666     1   109.7800468 425.094400
   8647   8645   8648     1   109.5600471 388.275200
   8647   8645   8657     1   110.2600474 425.931200
   8648   8649   8651     1   109.5600471 388.275200
   8648   8656   8659     1   107.2600461 396.643200
   8649   8648   8652     1   109.5600471 388.275200
   8649   8650   8653     1   110.2200475 386.601600
   8649   8655   8661     1   107.2600461 396.643200
   8650   8649   8651     1   109.5600471 388.275200
   8651   8649   8655     1   110.2600474 425.931200
   8652   8648   8656     1   110.2600474 425.931200
   8653   8650   8654     1   109.5800467 425.931200
   8653   8650   8666     1   109.5800467 425.931200
   8658   8664   8665     1   107.2600461 396.643200
   8662   8658   8664     1   110.2600474 425.931200
   8662   8658   8663     1   108.4600466 328.025600
   8663   8658   8664     1   110.2600474 425.931200
   8667   8668   8670     1   109.5600471 388.275200
   8667   8681   8685     1   109.5600471 388.275200
   8667   8681   8686     1   109.5600471 388.275200
   8668   8671   8675     1   109.5600471 388.275200
   8668   8680   8683     1   107.2600461 396.643200
   8668   8667   8669     1   109.5600471 388.275200
   8669   8667   8681     1   109.5600471 388.275200
   8669   8667   8689     1   109.7800468 425.094400
   8670   8668   8671     1   109.5600471 388.275200
   8670   8668   8680     1   110.2600474 425.931200
   8671   8672   8674     1   109.5600471 388.275200
   8671   8679   8682     1   107.2600461 396.643200
   8672   8673   8676     1   110.2200475 386.601600
   8672   8678   8684     1   107.2600461 396.643200
   8672   8671   8675     1   109.5600471 388.275200
   8673   8672   8674     1   109.5600471 388.275200
   8674   8672   8678     1   110.2600474 425.931200
   8675   8671   8679     1   110.2600474 425.931200
   8676   8673   8677     1   109.5800467 425.931200
   8676   8673   8689     1   109.5800467 425.931200
   8681   8687   8688     1   107.2600461 396.643200
   8685   8681   8687     1   110.2600474 425.931200
   8685   8681   8686     1   108.4600466 328.025600
   8686   8681   8687     1   110.2600474 425.931200
   8690   8691   8693     1   109.5600471 388.275200
   8690   8704   8708     1   109.5600471 388.275200
   8690   8704   8709     1   109.5600471 388.275200
   8691   8690   8692     1   109.5600471 388.275200
   8691   8694   8698     1   109.5600471 388.275200
   8691   8703   8706     1   107.2600461 396.643200
   8692   8690   8704     1   109.5600471 388.275200
   8692   8690   8712     1   109.7800468 425.094400
   8693   8691   8694     1   109.5600471 388.275200
   8693   8691   8703     1   110.2600474 425.931200
   8694   8695   8697     1   109.5600471 388.275200
   8694   8702   8705     1   107.2600461 396.643200
   8695   8694   8698     1   109.5600471 388.275200
   8695   8696   8699     1   110.2200475 386.601600
   8695   8701   8707     1   107.2600461 396.643200
   8696   8695   8697     1   109.5600471 388.275200
   8697   8695   8701     1   110.2600474 425.931200
   8698   8694   8702     1   110.2600474 425.931200
   8699   8696   8700     1   109.5800467 425.931200
   8699   8696   8712     1   109.5800467 425.931200
   8704   8710   8711     1   107.2600461 396.643200
   8708   8704   8710     1   110.2600474 425.931200
   8708   8704   8709     1   108.4600466 328.025600
   8709   8704   8710     1   110.2600474 425.931200
   8713   8714   8716     1   109.5600471 388.275200
   8713   8727   8731     1   109.5600471 388.275200
   8713   8727   8732     1   109.5600471 388.275200
   8714   8717   8721     1   109.5600471 388.275200
   8714   8726   8729     1   107.2600461 396.643200
   8714   8713   8715     1   109.5600471 388.275200
   8715   8713   8727     1   109.5600471 388.275200
   8715   8713   8735     1   109.7800468 425.094400
   8716   8714   8717     1   109.5600471 388.275200
   8716   8714   8726     1   110.2600474 425.931200
   8717   8718   8720     1   109.5600471 388.275200
   8717   8725   8728     1   107.2600461 396.643200
   8718   8719   8722     1   110.2200475 386.601600
   8718   8724   8730     1   107.2600461 396.643200
   8718   8717   8721     1   109.5600471 388.275200
   8719   8718   8720     1   109.5600471 388.275200
   8720   8718   8724     1   110.2600474 425.931200
   8721   8717   8725     1   110.2600474 425.931200
   8722   8719   8723     1   109.5800467 425.931200
   8722   8719   8735     1   109.5800467 425.931200
   8727   8733   8734     1   107.2600461 396.643200
   8731   8727   8733     1   110.2600474 425.931200
   8731   8727   8732     1   108.4600466 328.025600
   8732   8727   8733     1   110.2600474 425.931200
   8736   8737   8739     1   109.5600471 388.275200
   8736   8750   8754     1   109.5600471 388.275200
   8736   8750   8755     1   109.5600471 388.275200
   8737   8736   8738     1   109.5600471 388.275200
   8737   8740   8744     1   109.5600471 388.275200
   8737   8749   8752     1   107.2600461 396.643200
   8738   8736   8750     1   109.5600471 388.275200
   8738   8736   8758     1   109.7800468 425.094400
   8739   8737   8740     1   109.5600471 388.275200
   8739   8737   8749     1   110.2600474 425.931200
   8740   8741   8743     1   109.5600471 388.275200
   8740   8748   8751     1   107.2600461 396.643200
   8741   8740   8744     1   109.5600471 388.275200
   8741   8742   8745     1   110.2200475 386.601600
   8741   8747   8753     1   107.2600461 396.643200
   8742   8741   8743     1   109.5600471 388.275200
   8743   8741   8747     1   110.2600474 425.931200
   8744   8740   8748     1   110.2600474 425.931200
   8745   8742   8746     1   109.5800467 425.931200
   8745   8742   8758     1   109.5800467 425.931200
   8750   8756   8757     1   107.2600461 396.643200
   8754   8750   8756     1   110.2600474 425.931200
   8754   8750   8755     1   108.4600466 328.025600
   8755   8750   8756     1   110.2600474 425.931200
   8759   8760   8762     1   109.5600471 388.275200
   8759   8773   8777     1   109.5600471 388.275200
   8759   8773   8778     1   109.5600471 388.275200
   8760   8763   8767     1   109.5600471 388.275200
   8760   8772   8775     1   107.2600461 396.643200
   8760   8759   8761     1   109.5600471 388.275200
   8761   8759   8773     1   109.5600471 388.275200
   8761   8759   8781     1   109.7800468 425.094400
   8762   8760   8763     1   109.5600471 388.275200
   8762   8760   8772     1   110.2600474 425.931200
   8763   8764   8766     1   109.5600471 388.275200
   8763   8771   8774     1   107.2600461 396.643200
   8764   8765   8768     1   110.2200475 386.601600
   8764   8770   8776     1   107.2600461 396.643200
   8764   8763   8767     1   109.5600471 388.275200
   8765   8764   8766     1   109.5600471 388.275200
   8766   8764   8770     1   110.2600474 425.931200
   8767   8763   8771     1   110.2600474 425.931200
   8768   8765   8769     1   109.5800467 425.931200
   8768   8765   8781     1   109.5800467 425.931200
   8773   8779   8780     1   107.2600461 396.643200
   8777   8773   8779     1   110.2600474 425.931200
   8777   8773   8778     1   108.4600466 328.025600
   8778   8773   8779     1   110.2600474 425.931200
   8782   8783   8785     1   109.5600471 388.275200
   8782   8796   8800     1   109.5600471 388.275200
   8782   8796   8801     1   109.5600471 388.275200
   8783   8782   8784     1   109.5600471 388.275200
   8783   8786   8790     1   109.5600471 388.275200
   8783   8795   8798     1   107.2600461 396.643200
   8784   8782   8796     1   109.5600471 388.275200
   8784   8782   8804     1   109.7800468 425.094400
   8785   8783   8786     1   109.5600471 388.275200
   8785   8783   8795     1   110.2600474 425.931200
   8786   8787   8789     1   109.5600471 388.275200
   8786   8794   8797     1   107.2600461 396.643200
   8787   8786   8790     1   109.5600471 388.275200
   8787   8788   8791     1   110.2200475 386.601600
   8787   8793   8799     1   107.2600461 396.643200
   8788   8787   8789     1   109.5600471 388.275200
   8789   8787   8793     1   110.2600474 425.931200
   8790   8786   8794     1   110.2600474 425.931200
   8791   8788   8792     1   109.5800467 425.931200
   8791   8788   8804     1   109.5800467 425.931200
   8796   8802   8803     1   107.2600461 396.643200
   8800   8796   8802     1   110.2600474 425.931200
   8800   8796   8801     1   108.4600466 328.025600
   8801   8796   8802     1   110.2600474 425.931200
   8805   8806   8808     1   109.5600471 388.275200
   8805   8819   8823     1   109.5600471 388.275200
   8805   8819   8824     1   109.5600471 388.275200
   8806   8809   8813     1   109.5600471 388.275200
   8806   8818   8821     1   107.2600461 396.643200
   8806   8805   8807     1   109.5600471 388.275200
   8807   8805   8819     1   109.5600471 388.275200
   8807   8805   8827     1   109.7800468 425.094400
   8808   8806   8809     1   109.5600471 388.275200
   8808   8806   8818     1   110.2600474 425.931200
   8809   8810   8812     1   109.5600471 388.275200
   8809   8817   8820     1   107.2600461 396.643200
   8810   8811   8814     1   110.2200475 386.601600
   8810   8816   8822     1   107.2600461 396.643200
   8810   8809   8813     1   109.5600471 388.275200
   8811   8810   8812     1   109.5600471 388.275200
   8812   8810   8816     1   110.2600474 425.931200
   8813   8809   8817     1   110.2600474 425.931200
   8814   8811   8815     1   109.5800467 425.931200
   8814   8811   8827     1   109.5800467 425.931200
   8819   8825   8826     1   107.2600461 396.643200
   8823   8819   8825     1   110.2600474 425.931200
   8823   8819   8824     1   108.4600466 328.025600
   8824   8819   8825     1   110.2600474 425.931200
   8828   8829   8831     1   109.5600471 388.275200
   8828   8842   8846     1   109.5600471 388.275200
   8828   8842   8847     1   109.5600471 388.275200
   8829   8828   8830     1   109.5600471 388.275200
   8829   8832   8836     1   109.5600471 388.275200
   8829   8841   8844     1   107.2600461 396.643200
   8830   8828   8842     1   109.5600471 388.275200
   8830   8828   8850     1   109.7800468 425.094400
   8831   8829   8832     1   109.5600471 388.275200
   8831   8829   8841     1   110.2600474 425.931200
   8832   8833   8835     1   109.5600471 388.275200
   8832   8840   8843     1   107.2600461 396.643200
   8833   8832   8836     1   109.5600471 388.275200
   8833   8834   8837     1   110.2200475 386.601600
   8833   8839   8845     1   107.2600461 396.643200
   8834   8833   8835     1   109.5600471 388.275200
   8835   8833   8839     1   110.2600474 425.931200
   8836   8832   8840     1   110.2600474 425.931200
   8837   8834   8838     1   109.5800467 425.931200
   8837   8834   8850     1   109.5800467 425.931200
   8842   8848   8849     1   107.2600461 396.643200
   8846   8842   8848     1   110.2600474 425.931200
   8846   8842   8847     1   108.4600466 328.025600
   8847   8842   8848     1   110.2600474 425.931200
   8851   8852   8854     1   109.5600471 388.275200
   8851   8865   8869     1   109.5600471 388.275200
   8851   8865   8870     1   109.5600471 388.275200
   8852   8855   8859     1   109.5600471 388.275200
   8852   8864   8867     1   107.2600461 396.643200
   8852   8851   8853     1   109.5600471 388.275200
   8853   8851   8865     1   109.5600471 388.275200
   8853   8851   8873     1   109.7800468 425.094400
   8854   8852   8855     1   109.5600471 388.275200
   8854   8852   8864     1   110.2600474 425.931200
   8855   8856   8858     1   109.5600471 388.275200
   8855   8863   8866     1   107.2600461 396.643200
   8856   8857   8860     1   110.2200475 386.601600
   8856   8862   8868     1   107.2600461 396.643200
   8856   8855   8859     1   109.5600471 388.275200
   8857   8856   8858     1   109.5600471 388.275200
   8858   8856   8862     1   110.2600474 425.931200
   8859   8855   8863     1   110.2600474 425.931200
   8860   8857   8861     1   109.5800467 425.931200
   8860   8857   8873     1   109.5800467 425.931200
   8865   8871   8872     1   107.2600461 396.643200
   8869   8865   8871     1   110.2600474 425.931200
   8869   8865   8870     1   108.4600466 328.025600
   8870   8865   8871     1   110.2600474 425.931200
   8874   8875   8877     1   109.5600471 388.275200
   8874   8888   8892     1   109.5600471 388.275200
   8874   8888   8893     1   109.5600471 388.275200
   8875   8874   8876     1   109.5600471 388.275200
   8875   8878   8882     1   109.5600471 388.275200
   8875   8887   8890     1   107.2600461 396.643200
   8876   8874   8888     1   109.5600471 388.275200
   8876   8874   8896     1   109.7800468 425.094400
   8877   8875   8878     1   109.5600471 388.275200
   8877   8875   8887     1   110.2600474 425.931200
   8878   8879   8881     1   109.5600471 388.275200
   8878   8886   8889     1   107.2600461 396.643200
   8879   8878   8882     1   109.5600471 388.275200
   8879   8880   8883     1   110.2200475 386.601600
   8879   8885   8891     1   107.2600461 396.643200
   8880   8879   8881     1   109.5600471 388.275200
   8881   8879   8885     1   110.2600474 425.931200
   8882   8878   8886     1   110.2600474 425.931200
   8883   8880   8884     1   109.5800467 425.931200
   8883   8880   8896     1   109.5800467 425.931200
   8888   8894   8895     1   107.2600461 396.643200
   8892   8888   8894     1   110.2600474 425.931200
   8892   8888   8893     1   108.4600466 328.025600
   8893   8888   8894     1   110.2600474 425.931200
   8897   8898   8900     1   109.5600471 388.275200
   8897   8911   8915     1   109.5600471 388.275200
   8897   8911   8916     1   109.5600471 388.275200
   8898   8901   8905     1   109.5600471 388.275200
   8898   8910   8913     1   107.2600461 396.643200
   8898   8897   8899     1   109.5600471 388.275200
   8899   8897   8911     1   109.5600471 388.275200
   8899   8897   8919     1   109.7800468 425.094400
   8900   8898   8901     1   109.5600471 388.275200
   8900   8898   8910     1   110.2600474 425.931200
   8901   8902   8904     1   109.5600471 388.275200
   8901   8909   8912     1   107.2600461 396.643200
   8902   8903   8906     1   110.2200475 386.601600
   8902   8908   8914     1   107.2600461 396.643200
   8902   8901   8905     1   109.5600471 388.275200
   8903   8902   8904     1   109.5600471 388.275200
   8904   8902   8908     1   110.2600474 425.931200
   8905   8901   8909     1   110.2600474 425.931200
   8906   8903   8907     1   109.5800467 425.931200
   8906   8903   8919     1   109.5800467 425.931200
   8911   8917   8918     1   107.2600461 396.643200
   8915   8911   8917     1   110.2600474 425.931200
   8915   8911   8916     1   108.4600466 328.025600
   8916   8911   8917     1   110.2600474 425.931200
   8920   8921   8923     1   109.5600471 388.275200
   8920   8934   8938     1   109.5600471 388.275200
   8920   8934   8939     1   109.5600471 388.275200
   8921   8920   8922     1   109.5600471 388.275200
   8921   8924   8928     1   109.5600471 388.275200
   8921   8933   8936     1   107.2600461 396.643200
   8922   8920   8934     1   109.5600471 388.275200
   8922   8920   8942     1   109.7800468 425.094400
   8923   8921   8924     1   109.5600471 388.275200
   8923   8921   8933     1   110.2600474 425.931200
   8924   8925   8927     1   109.5600471 388.275200
   8924   8932   8935     1   107.2600461 396.643200
   8925   8924   8928     1   109.5600471 388.275200
   8925   8926   8929     1   110.2200475 386.601600
   8925   8931   8937     1   107.2600461 396.643200
   8926   8925   8927     1   109.5600471 388.275200
   8927   8925   8931     1   110.2600474 425.931200
   8928   8924   8932     1   110.2600474 425.931200
   8929   8926   8930     1   109.5800467 425.931200
   8929   8926   8942     1   109.5800467 425.931200
   8934   8940   8941     1   107.2600461 396.643200
   8938   8934   8940     1   110.2600474 425.931200
   8938   8934   8939     1   108.4600466 328.025600
   8939   8934   8940     1   110.2600474 425.931200
   8943   8944   8946     1   109.5600471 388.275200
   8943   8957   8961     1   109.5600471 388.275200
   8943   8957   8962     1   109.5600471 388.275200
   8944   8947   8951     1   109.5600471 388.275200
   8944   8956   8959     1   107.2600461 396.643200
   8944   8943   8945     1   109.5600471 388.275200
   8945   8943   8957     1   109.5600471 388.275200
   8945   8943   8965     1   109.7800468 425.094400
   8946   8944   8947     1   109.5600471 388.275200
   8946   8944   8956     1   110.2600474 425.931200
   8947   8948   8950     1   109.5600471 388.275200
   8947   8955   8958     1   107.2600461 396.643200
   8948   8949   8952     1   110.2200475 386.601600
   8948   8954   8960     1   107.2600461 396.643200
   8948   8947   8951     1   109.5600471 388.275200
   8949   8948   8950     1   109.5600471 388.275200
   8950   8948   8954     1   110.2600474 425.931200
   8951   8947   8955     1   110.2600474 425.931200
   8952   8949   8953     1   109.5800467 425.931200
   8952   8949   8965     1   109.5800467 425.931200
   8957   8963   8964     1   107.2600461 396.643200
   8961   8957   8963     1   110.2600474 425.931200
   8961   8957   8962     1   108.4600466 328.025600
   8962   8957   8963     1   110.2600474 425.931200
   8966   8967   8969     1   109.5600471 388.275200
   8966   8980   8984     1   109.5600471 388.275200
   8966   8980   8985     1   109.5600471 388.275200
   8967   8966   8968     1   109.5600471 388.275200
   8967   8970   8974     1   109.5600471 388.275200
   8967   8979   8982     1   107.2600461 396.643200
   8968   8966   8980     1   109.5600471 388.275200
   8968   8966   8988     1   109.7800468 425.094400
   8969   8967   8970     1   109.5600471 388.275200
   8969   8967   8979     1   110.2600474 425.931200
   8970   8971   8973     1   109.5600471 388.275200
   8970   8978   8981     1   107.2600461 396.643200
   8971   8970   8974     1   109.5600471 388.275200
   8971   8972   8975     1   110.2200475 386.601600
   8971   8977   8983     1   107.2600461 396.643200
   8972   8971   8973     1   109.5600471 388.275200
   8973   8971   8977     1   110.2600474 425.931200
   8974   8970   8978     1   110.2600474 425.931200
   8975   8972   8976     1   109.5800467 425.931200
   8975   8972   8988     1   109.5800467 425.931200
   8980   8986   8987     1   107.2600461 396.643200
   8984   8980   8986     1   110.2600474 425.931200
   8984   8980   8985     1   108.4600466 328.025600
   8985   8980   8986     1   110.2600474 425.931200
   8989   8990   8992     1   109.5600471 388.275200
   8989   9003   9007     1   109.5600471 388.275200
   8989   9003   9008     1   109.5600471 388.275200
   8990   8993   8997     1   109.5600471 388.275200
   8990   9002   9005     1   107.2600461 396.643200
   8990   8989   8991     1   109.5600471 388.275200
   8991   8989   9003     1   109.5600471 388.275200
   8991   8989   9011     1   109.7800468 425.094400
   8992   8990   8993     1   109.5600471 388.275200
   8992   8990   9002     1   110.2600474 425.931200
   8993   8994   8996     1   109.5600471 388.275200
   8993   9001   9004     1   107.2600461 396.643200
   8994   8995   8998     1   110.2200475 386.601600
   8994   9000   9006     1   107.2600461 396.643200
   8994   8993   8997     1   109.5600471 388.275200
   8995   8994   8996     1   109.5600471 388.275200
   8996   8994   9000     1   110.2600474 425.931200
   8997   8993   9001     1   110.2600474 425.931200
   8998   8995   8999     1   109.5800467 425.931200
   8998   8995   9011     1   109.5800467 425.931200
   9003   9009   9010     1   107.2600461 396.643200
   9007   9003   9009     1   110.2600474 425.931200
   9007   9003   9008     1   108.4600466 328.025600
   9008   9003   9009     1   110.2600474 425.931200
   9012   9013   9015     1   109.5600471 388.275200
   9012   9026   9030     1   109.5600471 388.275200
   9012   9026   9031     1   109.5600471 388.275200
   9013   9012   9014     1   109.5600471 388.275200
   9013   9016   9020     1   109.5600471 388.275200
   9013   9025   9028     1   107.2600461 396.643200
   9014   9012   9026     1   109.5600471 388.275200
   9014   9012   9034     1   109.7800468 425.094400
   9015   9013   9016     1   109.5600471 388.275200
   9015   9013   9025     1   110.2600474 425.931200
   9016   9017   9019     1   109.5600471 388.275200
   9016   9024   9027     1   107.2600461 396.643200
   9017   9016   9020     1   109.5600471 388.275200
   9017   9018   9021     1   110.2200475 386.601600
   9017   9023   9029     1   107.2600461 396.643200
   9018   9017   9019     1   109.5600471 388.275200
   9019   9017   9023     1   110.2600474 425.931200
   9020   9016   9024     1   110.2600474 425.931200
   9021   9018   9022     1   109.5800467 425.931200
   9021   9018   9034     1   109.5800467 425.931200
   9026   9032   9033     1   107.2600461 396.643200
   9030   9026   9032     1   110.2600474 425.931200
   9030   9026   9031     1   108.4600466 328.025600
   9031   9026   9032     1   110.2600474 425.931200
   9035   9036   9038     1   109.5600471 388.275200
   9035   9049   9053     1   109.5600471 388.275200
   9035   9049   9054     1   109.5600471 388.275200
   9036   9039   9043     1   109.5600471 388.275200
   9036   9048   9051     1   107.2600461 396.643200
   9036   9035   9037     1   109.5600471 388.275200
   9037   9035   9049     1   109.5600471 388.275200
   9037   9035   9057     1   109.7800468 425.094400
   9038   9036   9039     1   109.5600471 388.275200
   9038   9036   9048     1   110.2600474 425.931200
   9039   9040   9042     1   109.5600471 388.275200
   9039   9047   9050     1   107.2600461 396.643200
   9040   9041   9044     1   110.2200475 386.601600
   9040   9046   9052     1   107.2600461 396.643200
   9040   9039   9043     1   109.5600471 388.275200
   9041   9040   9042     1   109.5600471 388.275200
   9042   9040   9046     1   110.2600474 425.931200
   9043   9039   9047     1   110.2600474 425.931200
   9044   9041   9045     1   109.5800467 425.931200
   9044   9041   9057     1   109.5800467 425.931200
   9049   9055   9056     1   107.2600461 396.643200
   9053   9049   9055     1   110.2600474 425.931200
   9053   9049   9054     1   108.4600466 328.025600
   9054   9049   9055     1   110.2600474 425.931200
   9058   9059   9061     1   109.5600471 388.275200
   9058   9072   9076     1   109.5600471 388.275200
   9058   9072   9077     1   109.5600471 388.275200
   9059   9058   9060     1   109.5600471 388.275200
   9059   9062   9066     1   109.5600471 388.275200
   9059   9071   9074     1   107.2600461 396.643200
   9060   9058   9072     1   109.5600471 388.275200
   9060   9058   9080     1   109.7800468 425.094400
   9061   9059   9062     1   109.5600471 388.275200
   9061   9059   9071     1   110.2600474 425.931200
   9062   9063   9065     1   109.5600471 388.275200
   9062   9070   9073     1   107.2600461 396.643200
   9063   9062   9066     1   109.5600471 388.275200
   9063   9064   9067     1   110.2200475 386.601600
   9063   9069   9075     1   107.2600461 396.643200
   9064   9063   9065     1   109.5600471 388.275200
   9065   9063   9069     1   110.2600474 425.931200
   9066   9062   9070     1   110.2600474 425.931200
   9067   9064   9068     1   109.5800467 425.931200
   9067   9064   9080     1   109.5800467 425.931200
   9072   9078   9079     1   107.2600461 396.643200
   9076   9072   9078     1   110.2600474 425.931200
   9076   9072   9077     1   108.4600466 328.025600
   9077   9072   9078     1   110.2600474 425.931200
   9081   9082   9084     1   109.5600471 388.275200
   9081   9095   9099     1   109.5600471 388.275200
   9081   9095   9100     1   109.5600471 388.275200
   9082   9085   9089     1   109.5600471 388.275200
   9082   9094   9097     1   107.2600461 396.643200
   9082   9081   9083     1   109.5600471 388.275200
   9083   9081   9095     1   109.5600471 388.275200
   9083   9081   9103     1   109.7800468 425.094400
   9084   9082   9085     1   109.5600471 388.275200
   9084   9082   9094     1   110.2600474 425.931200
   9085   9086   9088     1   109.5600471 388.275200
   9085   9093   9096     1   107.2600461 396.643200
   9086   9087   9090     1   110.2200475 386.601600
   9086   9092   9098     1   107.2600461 396.643200
   9086   9085   9089     1   109.5600471 388.275200
   9087   9086   9088     1   109.5600471 388.275200
   9088   9086   9092     1   110.2600474 425.931200
   9089   9085   9093     1   110.2600474 425.931200
   9090   9087   9091     1   109.5800467 425.931200
   9090   9087   9103     1   109.5800467 425.931200
   9095   9101   9102     1   107.2600461 396.643200
   9099   9095   9101     1   110.2600474 425.931200
   9099   9095   9100     1   108.4600466 328.025600
   9100   9095   9101     1   110.2600474 425.931200
   9104   9105   9107     1   109.5600471 388.275200
   9104   9118   9122     1   109.5600471 388.275200
   9104   9118   9123     1   109.5600471 388.275200
   9105   9104   9106     1   109.5600471 388.275200
   9105   9108   9112     1   109.5600471 388.275200
   9105   9117   9120     1   107.2600461 396.643200
   9106   9104   9118     1   109.5600471 388.275200
   9106   9104   9126     1   109.7800468 425.094400
   9107   9105   9108     1   109.5600471 388.275200
   9107   9105   9117     1   110.2600474 425.931200
   9108   9109   9111     1   109.5600471 388.275200
   9108   9116   9119     1   107.2600461 396.643200
   9109   9108   9112     1   109.5600471 388.275200
   9109   9110   9113     1   110.2200475 386.601600
   9109   9115   9121     1   107.2600461 396.643200
   9110   9109   9111     1   109.5600471 388.275200
   9111   9109   9115     1   110.2600474 425.931200
   9112   9108   9116     1   110.2600474 425.931200
   9113   9110   9114     1   109.5800467 425.931200
   9113   9110   9126     1   109.5800467 425.931200
   9118   9124   9125     1   107.2600461 396.643200
   9122   9118   9124     1   110.2600474 425.931200
   9122   9118   9123     1   108.4600466 328.025600
   9123   9118   9124     1   110.2600474 425.931200
   9127   9128   9130     1   109.5600471 388.275200
   9127   9141   9145     1   109.5600471 388.275200
   9127   9141   9146     1   109.5600471 388.275200
   9128   9131   9135     1   109.5600471 388.275200
   9128   9140   9143     1   107.2600461 396.643200
   9128   9127   9129     1   109.5600471 388.275200
   9129   9127   9141     1   109.5600471 388.275200
   9129   9127   9149     1   109.7800468 425.094400
   9130   9128   9131     1   109.5600471 388.275200
   9130   9128   9140     1   110.2600474 425.931200
   9131   9132   9134     1   109.5600471 388.275200
   9131   9139   9142     1   107.2600461 396.643200
   9132   9133   9136     1   110.2200475 386.601600
   9132   9138   9144     1   107.2600461 396.643200
   9132   9131   9135     1   109.5600471 388.275200
   9133   9132   9134     1   109.5600471 388.275200
   9134   9132   9138     1   110.2600474 425.931200
   9135   9131   9139     1   110.2600474 425.931200
   9136   9133   9137     1   109.5800467 425.931200
   9136   9133   9149     1   109.5800467 425.931200
   9141   9147   9148     1   107.2600461 396.643200
   9145   9141   9147     1   110.2600474 425.931200
   9145   9141   9146     1   108.4600466 328.025600
   9146   9141   9147     1   110.2600474 425.931200
   9150   9151   9153     1   109.5600471 388.275200
   9150   9164   9168     1   109.5600471 388.275200
   9150   9164   9169     1   109.5600471 388.275200
   9151   9150   9152     1   109.5600471 388.275200
   9151   9154   9158     1   109.5600471 388.275200
   9151   9163   9166     1   107.2600461 396.643200
   9152   9150   9164     1   109.5600471 388.275200
   9152   9150   9172     1   109.7800468 425.094400
   9153   9151   9154     1   109.5600471 388.275200
   9153   9151   9163     1   110.2600474 425.931200
   9154   9155   9157     1   109.5600471 388.275200
   9154   9162   9165     1   107.2600461 396.643200
   9155   9154   9158     1   109.5600471 388.275200
   9155   9156   9159     1   110.2200475 386.601600
   9155   9161   9167     1   107.2600461 396.643200
   9156   9155   9157     1   109.5600471 388.275200
   9157   9155   9161     1   110.2600474 425.931200
   9158   9154   9162     1   110.2600474 425.931200
   9159   9156   9160     1   109.5800467 425.931200
   9159   9156   9172     1   109.5800467 425.931200
   9164   9170   9171     1   107.2600461 396.643200
   9168   9164   9170     1   110.2600474 425.931200
   9168   9164   9169     1   108.4600466 328.025600
   9169   9164   9170     1   110.2600474 425.931200
   9173   9174   9176     1   109.5600471 388.275200
   9173   9187   9191     1   109.5600471 388.275200
   9173   9187   9192     1   109.5600471 388.275200
   9174   9177   9181     1   109.5600471 388.275200
   9174   9186   9189     1   107.2600461 396.643200
   9174   9173   9175     1   109.5600471 388.275200
   9175   9173   9187     1   109.5600471 388.275200
   9175   9173   9195     1   109.7800468 425.094400
   9176   9174   9177     1   109.5600471 388.275200
   9176   9174   9186     1   110.2600474 425.931200
   9177   9178   9180     1   109.5600471 388.275200
   9177   9185   9188     1   107.2600461 396.643200
   9178   9179   9182     1   110.2200475 386.601600
   9178   9184   9190     1   107.2600461 396.643200
   9178   9177   9181     1   109.5600471 388.275200
   9179   9178   9180     1   109.5600471 388.275200
   9180   9178   9184     1   110.2600474 425.931200
   9181   9177   9185     1   110.2600474 425.931200
   9182   9179   9183     1   109.5800467 425.931200
   9182   9179   9195     1   109.5800467 425.931200
   9187   9193   9194     1   107.2600461 396.643200
   9191   9187   9193     1   110.2600474 425.931200
   9191   9187   9192     1   108.4600466 328.025600
   9192   9187   9193     1   110.2600474 425.931200
   9196   9197   9199     1   109.5600471 388.275200
   9196   9210   9214     1   109.5600471 388.275200
   9196   9210   9215     1   109.5600471 388.275200
   9197   9196   9198     1   109.5600471 388.275200
   9197   9200   9204     1   109.5600471 388.275200
   9197   9209   9212     1   107.2600461 396.643200
   9198   9196   9210     1   109.5600471 388.275200
   9198   9196   9218     1   109.7800468 425.094400
   9199   9197   9200     1   109.5600471 388.275200
   9199   9197   9209     1   110.2600474 425.931200
   9200   9201   9203     1   109.5600471 388.275200
   9200   9208   9211     1   107.2600461 396.643200
   9201   9200   9204     1   109.5600471 388.275200
   9201   9202   9205     1   110.2200475 386.601600
   9201   9207   9213     1   107.2600461 396.643200
   9202   9201   9203     1   109.5600471 388.275200
   9203   9201   9207     1   110.2600474 425.931200
   9204   9200   9208     1   110.2600474 425.931200
   9205   9202   9206     1   109.5800467 425.931200
   9205   9202   9218     1   109.5800467 425.931200
   9210   9216   9217     1   107.2600461 396.643200
   9214   9210   9216     1   110.2600474 425.931200
   9214   9210   9215     1   108.4600466 328.025600
   9215   9210   9216     1   110.2600474 425.931200
   9219   9220   9222     1   109.5600471 388.275200
   9219   9233   9237     1   109.5600471 388.275200
   9219   9233   9238     1   109.5600471 388.275200
   9220   9223   9227     1   109.5600471 388.275200
   9220   9232   9235     1   107.2600461 396.643200
   9220   9219   9221     1   109.5600471 388.275200
   9221   9219   9233     1   109.5600471 388.275200
   9221   9219   9241     1   109.7800468 425.094400
   9222   9220   9223     1   109.5600471 388.275200
   9222   9220   9232     1   110.2600474 425.931200
   9223   9224   9226     1   109.5600471 388.275200
   9223   9231   9234     1   107.2600461 396.643200
   9224   9225   9228     1   110.2200475 386.601600
   9224   9230   9236     1   107.2600461 396.643200
   9224   9223   9227     1   109.5600471 388.275200
   9225   9224   9226     1   109.5600471 388.275200
   9226   9224   9230     1   110.2600474 425.931200
   9227   9223   9231     1   110.2600474 425.931200
   9228   9225   9229     1   109.5800467 425.931200
   9228   9225   9241     1   109.5800467 425.931200
   9233   9239   9240     1   107.2600461 396.643200
   9237   9233   9239     1   110.2600474 425.931200
   9237   9233   9238     1   108.4600466 328.025600
   9238   9233   9239     1   110.2600474 425.931200
   9242   9243   9245     1   109.5600471 388.275200
   9242   9256   9260     1   109.5600471 388.275200
   9242   9256   9261     1   109.5600471 388.275200
   9243   9242   9244     1   109.5600471 388.275200
   9243   9246   9250     1   109.5600471 388.275200
   9243   9255   9258     1   107.2600461 396.643200
   9244   9242   9256     1   109.5600471 388.275200
   9244   9242   9264     1   109.7800468 425.094400
   9245   9243   9246     1   109.5600471 388.275200
   9245   9243   9255     1   110.2600474 425.931200
   9246   9247   9249     1   109.5600471 388.275200
   9246   9254   9257     1   107.2600461 396.643200
   9247   9246   9250     1   109.5600471 388.275200
   9247   9248   9251     1   110.2200475 386.601600
   9247   9253   9259     1   107.2600461 396.643200
   9248   9247   9249     1   109.5600471 388.275200
   9249   9247   9253     1   110.2600474 425.931200
   9250   9246   9254     1   110.2600474 425.931200
   9251   9248   9252     1   109.5800467 425.931200
   9251   9248   9264     1   109.5800467 425.931200
   9256   9262   9263     1   107.2600461 396.643200
   9260   9256   9262     1   110.2600474 425.931200
   9260   9256   9261     1   108.4600466 328.025600
   9261   9256   9262     1   110.2600474 425.931200
   9265   9266   9268     1   109.5600471 388.275200
   9265   9279   9283     1   109.5600471 388.275200
   9265   9279   9284     1   109.5600471 388.275200
   9266   9269   9273     1   109.5600471 388.275200
   9266   9278   9281     1   107.2600461 396.643200
   9266   9265   9267     1   109.5600471 388.275200
   9267   9265   9279     1   109.5600471 388.275200
   9267   9265   9287     1   109.7800468 425.094400
   9268   9266   9269     1   109.5600471 388.275200
   9268   9266   9278     1   110.2600474 425.931200
   9269   9270   9272     1   109.5600471 388.275200
   9269   9277   9280     1   107.2600461 396.643200
   9270   9271   9274     1   110.2200475 386.601600
   9270   9276   9282     1   107.2600461 396.643200
   9270   9269   9273     1   109.5600471 388.275200
   9271   9270   9272     1   109.5600471 388.275200
   9272   9270   9276     1   110.2600474 425.931200
   9273   9269   9277     1   110.2600474 425.931200
   9274   9271   9275     1   109.5800467 425.931200
   9274   9271   9287     1   109.5800467 425.931200
   9279   9285   9286     1   107.2600461 396.643200
   9283   9279   9285     1   110.2600474 425.931200
   9283   9279   9284     1   108.4600466 328.025600
   9284   9279   9285     1   110.2600474 425.931200
   9288   9289   9291     1   109.5600471 388.275200
   9288   9302   9306     1   109.5600471 388.275200
   9288   9302   9307     1   109.5600471 388.275200
   9289   9288   9290     1   109.5600471 388.275200
   9289   9292   9296     1   109.5600471 388.275200
   9289   9301   9304     1   107.2600461 396.643200
   9290   9288   9302     1   109.5600471 388.275200
   9290   9288   9310     1   109.7800468 425.094400
   9291   9289   9292     1   109.5600471 388.275200
   9291   9289   9301     1   110.2600474 425.931200
   9292   9293   9295     1   109.5600471 388.275200
   9292   9300   9303     1   107.2600461 396.643200
   9293   9292   9296     1   109.5600471 388.275200
   9293   9294   9297     1   110.2200475 386.601600
   9293   9299   9305     1   107.2600461 396.643200
   9294   9293   9295     1   109.5600471 388.275200
   9295   9293   9299     1   110.2600474 425.931200
   9296   9292   9300     1   110.2600474 425.931200
   9297   9294   9298     1   109.5800467 425.931200
   9297   9294   9310     1   109.5800467 425.931200
   9302   9308   9309     1   107.2600461 396.643200
   9306   9302   9308     1   110.2600474 425.931200
   9306   9302   9307     1   108.4600466 328.025600
   9307   9302   9308     1   110.2600474 425.931200
   9311   9312   9314     1   109.5600471 388.275200
   9311   9325   9329     1   109.5600471 388.275200
   9311   9325   9330     1   109.5600471 388.275200
   9312   9315   9319     1   109.5600471 388.275200
   9312   9324   9327     1   107.2600461 396.643200
   9312   9311   9313     1   109.5600471 388.275200
   9313   9311   9325     1   109.5600471 388.275200
   9313   9311   9333     1   109.7800468 425.094400
   9314   9312   9315     1   109.5600471 388.275200
   9314   9312   9324     1   110.2600474 425.931200
   9315   9316   9318     1   109.5600471 388.275200
   9315   9323   9326     1   107.2600461 396.643200
   9316   9317   9320     1   110.2200475 386.601600
   9316   9322   9328     1   107.2600461 396.643200
   9316   9315   9319     1   109.5600471 388.275200
   9317   9316   9318     1   109.5600471 388.275200
   9318   9316   9322     1   110.2600474 425.931200
   9319   9315   9323     1   110.2600474 425.931200
   9320   9317   9321     1   109.5800467 425.931200
   9320   9317   9333     1   109.5800467 425.931200
   9325   9331   9332     1   107.2600461 396.643200
   9329   9325   9331     1   110.2600474 425.931200
   9329   9325   9330     1   108.4600466 328.025600
   9330   9325   9331     1   110.2600474 425.931200
   9334   9335   9337     1   109.5600471 388.275200
   9334   9348   9352     1   109.5600471 388.275200
   9334   9348   9353     1   109.5600471 388.275200
   9335   9334   9336     1   109.5600471 388.275200
   9335   9338   9342     1   109.5600471 388.275200
   9335   9347   9350     1   107.2600461 396.643200
   9336   9334   9348     1   109.5600471 388.275200
   9336   9334   9356     1   109.7800468 425.094400
   9337   9335   9338     1   109.5600471 388.275200
   9337   9335   9347     1   110.2600474 425.931200
   9338   9339   9341     1   109.5600471 388.275200
   9338   9346   9349     1   107.2600461 396.643200
   9339   9338   9342     1   109.5600471 388.275200
   9339   9340   9343     1   110.2200475 386.601600
   9339   9345   9351     1   107.2600461 396.643200
   9340   9339   9341     1   109.5600471 388.275200
   9341   9339   9345     1   110.2600474 425.931200
   9342   9338   9346     1   110.2600474 425.931200
   9343   9340   9344     1   109.5800467 425.931200
   9343   9340   9356     1   109.5800467 425.931200
   9348   9354   9355     1   107.2600461 396.643200
   9352   9348   9354     1   110.2600474 425.931200
   9352   9348   9353     1   108.4600466 328.025600
   9353   9348   9354     1   110.2600474 425.931200
   9357   9358   9360     1   109.5600471 388.275200
   9357   9371   9375     1   109.5600471 388.275200
   9357   9371   9376     1   109.5600471 388.275200
   9358   9361   9365     1   109.5600471 388.275200
   9358   9370   9373     1   107.2600461 396.643200
   9358   9357   9359     1   109.5600471 388.275200
   9359   9357   9371     1   109.5600471 388.275200
   9359   9357   9379     1   109.7800468 425.094400
   9360   9358   9361     1   109.5600471 388.275200
   9360   9358   9370     1   110.2600474 425.931200
   9361   9362   9364     1   109.5600471 388.275200
   9361   9369   9372     1   107.2600461 396.643200
   9362   9363   9366     1   110.2200475 386.601600
   9362   9368   9374     1   107.2600461 396.643200
   9362   9361   9365     1   109.5600471 388.275200
   9363   9362   9364     1   109.5600471 388.275200
   9364   9362   9368     1   110.2600474 425.931200
   9365   9361   9369     1   110.2600474 425.931200
   9366   9363   9367     1   109.5800467 425.931200
   9366   9363   9379     1   109.5800467 425.931200
   9371   9377   9378     1   107.2600461 396.643200
   9375   9371   9377     1   110.2600474 425.931200
   9375   9371   9376     1   108.4600466 328.025600
   9376   9371   9377     1   110.2600474 425.931200
   9380   9381   9383     1   109.5600471 388.275200
   9380   9394   9398     1   109.5600471 388.275200
   9380   9394   9399     1   109.5600471 388.275200
   9381   9380   9382     1   109.5600471 388.275200
   9381   9384   9388     1   109.5600471 388.275200
   9381   9393   9396     1   107.2600461 396.643200
   9382   9380   9394     1   109.5600471 388.275200
   9382   9380   9402     1   109.7800468 425.094400
   9383   9381   9384     1   109.5600471 388.275200
   9383   9381   9393     1   110.2600474 425.931200
   9384   9385   9387     1   109.5600471 388.275200
   9384   9392   9395     1   107.2600461 396.643200
   9385   9384   9388     1   109.5600471 388.275200
   9385   9386   9389     1   110.2200475 386.601600
   9385   9391   9397     1   107.2600461 396.643200
   9386   9385   9387     1   109.5600471 388.275200
   9387   9385   9391     1   110.2600474 425.931200
   9388   9384   9392     1   110.2600474 425.931200
   9389   9386   9390     1   109.5800467 425.931200
   9389   9386   9402     1   109.5800467 425.931200
   9394   9400   9401     1   107.2600461 396.643200
   9398   9394   9400     1   110.2600474 425.931200
   9398   9394   9399     1   108.4600466 328.025600
   9399   9394   9400     1   110.2600474 425.931200
   9403   9404   9406     1   109.5600471 388.275200
   9403   9417   9421     1   109.5600471 388.275200
   9403   9417   9422     1   109.5600471 388.275200
   9404   9407   9411     1   109.5600471 388.275200
   9404   9416   9419     1   107.2600461 396.643200
   9404   9403   9405     1   109.5600471 388.275200
   9405   9403   9417     1   109.5600471 388.275200
   9405   9403   9425     1   109.7800468 425.094400
   9406   9404   9407     1   109.5600471 388.275200
   9406   9404   9416     1   110.2600474 425.931200
   9407   9408   9410     1   109.5600471 388.275200
   9407   9415   9418     1   107.2600461 396.643200
   9408   9409   9412     1   110.2200475 386.601600
   9408   9414   9420     1   107.2600461 396.643200
   9408   9407   9411     1   109.5600471 388.275200
   9409   9408   9410     1   109.5600471 388.275200
   9410   9408   9414     1   110.2600474 425.931200
   9411   9407   9415     1   110.2600474 425.931200
   9412   9409   9413     1   109.5800467 425.931200
   9412   9409   9425     1   109.5800467 425.931200
   9417   9423   9424     1   107.2600461 396.643200
   9421   9417   9423     1   110.2600474 425.931200
   9421   9417   9422     1   108.4600466 328.025600
   9422   9417   9423     1   110.2600474 425.931200
   9426   9427   9429     1   109.5600471 388.275200
   9426   9440   9444     1   109.5600471 388.275200
   9426   9440   9445     1   109.5600471 388.275200
   9427   9426   9428     1   109.5600471 388.275200
   9427   9430   9434     1   109.5600471 388.275200
   9427   9439   9442     1   107.2600461 396.643200
   9428   9426   9440     1   109.5600471 388.275200
   9428   9426   9448     1   109.7800468 425.094400
   9429   9427   9430     1   109.5600471 388.275200
   9429   9427   9439     1   110.2600474 425.931200
   9430   9431   9433     1   109.5600471 388.275200
   9430   9438   9441     1   107.2600461 396.643200
   9431   9430   9434     1   109.5600471 388.275200
   9431   9432   9435     1   110.2200475 386.601600
   9431   9437   9443     1   107.2600461 396.643200
   9432   9431   9433     1   109.5600471 388.275200
   9433   9431   9437     1   110.2600474 425.931200
   9434   9430   9438     1   110.2600474 425.931200
   9435   9432   9436     1   109.5800467 425.931200
   9435   9432   9448     1   109.5800467 425.931200
   9440   9446   9447     1   107.2600461 396.643200
   9444   9440   9446     1   110.2600474 425.931200
   9444   9440   9445     1   108.4600466 328.025600
   9445   9440   9446     1   110.2600474 425.931200
   9449   9450   9452     1   109.5600471 388.275200
   9449   9463   9467     1   109.5600471 388.275200
   9449   9463   9468     1   109.5600471 388.275200
   9450   9453   9457     1   109.5600471 388.275200
   9450   9462   9465     1   107.2600461 396.643200
   9450   9449   9451     1   109.5600471 388.275200
   9451   9449   9463     1   109.5600471 388.275200
   9451   9449   9471     1   109.7800468 425.094400
   9452   9450   9453     1   109.5600471 388.275200
   9452   9450   9462     1   110.2600474 425.931200
   9453   9454   9456     1   109.5600471 388.275200
   9453   9461   9464     1   107.2600461 396.643200
   9454   9455   9458     1   110.2200475 386.601600
   9454   9460   9466     1   107.2600461 396.643200
   9454   9453   9457     1   109.5600471 388.275200
   9455   9454   9456     1   109.5600471 388.275200
   9456   9454   9460     1   110.2600474 425.931200
   9457   9453   9461     1   110.2600474 425.931200
   9458   9455   9459     1   109.5800467 425.931200
   9458   9455   9471     1   109.5800467 425.931200
   9463   9469   9470     1   107.2600461 396.643200
   9467   9463   9469     1   110.2600474 425.931200
   9467   9463   9468     1   108.4600466 328.025600
   9468   9463   9469     1   110.2600474 425.931200
   9472   9473   9475     1   109.5600471 388.275200
   9472   9486   9490     1   109.5600471 388.275200
   9472   9486   9491     1   109.5600471 388.275200
   9473   9472   9474     1   109.5600471 388.275200
   9473   9476   9480     1   109.5600471 388.275200
   9473   9485   9488     1   107.2600461 396.643200
   9474   9472   9486     1   109.5600471 388.275200
   9474   9472   9494     1   109.7800468 425.094400
   9475   9473   9476     1   109.5600471 388.275200
   9475   9473   9485     1   110.2600474 425.931200
   9476   9477   9479     1   109.5600471 388.275200
   9476   9484   9487     1   107.2600461 396.643200
   9477   9476   9480     1   109.5600471 388.275200
   9477   9478   9481     1   110.2200475 386.601600
   9477   9483   9489     1   107.2600461 396.643200
   9478   9477   9479     1   109.5600471 388.275200
   9479   9477   9483     1   110.2600474 425.931200
   9480   9476   9484     1   110.2600474 425.931200
   9481   9478   9482     1   109.5800467 425.931200
   9481   9478   9494     1   109.5800467 425.931200
   9486   9492   9493     1   107.2600461 396.643200
   9490   9486   9492     1   110.2600474 425.931200
   9490   9486   9491     1   108.4600466 328.025600
   9491   9486   9492     1   110.2600474 425.931200
   9495   9496   9498     1   109.5600471 388.275200
   9495   9509   9513     1   109.5600471 388.275200
   9495   9509   9514     1   109.5600471 388.275200
   9496   9499   9503     1   109.5600471 388.275200
   9496   9508   9511     1   107.2600461 396.643200
   9496   9495   9497     1   109.5600471 388.275200
   9497   9495   9509     1   109.5600471 388.275200
   9497   9495   9517     1   109.7800468 425.094400
   9498   9496   9499     1   109.5600471 388.275200
   9498   9496   9508     1   110.2600474 425.931200
   9499   9500   9502     1   109.5600471 388.275200
   9499   9507   9510     1   107.2600461 396.643200
   9500   9501   9504     1   110.2200475 386.601600
   9500   9506   9512     1   107.2600461 396.643200
   9500   9499   9503     1   109.5600471 388.275200
   9501   9500   9502     1   109.5600471 388.275200
   9502   9500   9506     1   110.2600474 425.931200
   9503   9499   9507     1   110.2600474 425.931200
   9504   9501   9505     1   109.5800467 425.931200
   9504   9501   9517     1   109.5800467 425.931200
   9509   9515   9516     1   107.2600461 396.643200
   9513   9509   9515     1   110.2600474 425.931200
   9513   9509   9514     1   108.4600466 328.025600
   9514   9509   9515     1   110.2600474 425.931200
   9518   9519   9521     1   109.5600471 388.275200
   9518   9532   9536     1   109.5600471 388.275200
   9518   9532   9537     1   109.5600471 388.275200
   9519   9518   9520     1   109.5600471 388.275200
   9519   9522   9526     1   109.5600471 388.275200
   9519   9531   9534     1   107.2600461 396.643200
   9520   9518   9532     1   109.5600471 388.275200
   9520   9518   9540     1   109.7800468 425.094400
   9521   9519   9522     1   109.5600471 388.275200
   9521   9519   9531     1   110.2600474 425.931200
   9522   9523   9525     1   109.5600471 388.275200
   9522   9530   9533     1   107.2600461 396.643200
   9523   9522   9526     1   109.5600471 388.275200
   9523   9524   9527     1   110.2200475 386.601600
   9523   9529   9535     1   107.2600461 396.643200
   9524   9523   9525     1   109.5600471 388.275200
   9525   9523   9529     1   110.2600474 425.931200
   9526   9522   9530     1   110.2600474 425.931200
   9527   9524   9528     1   109.5800467 425.931200
   9527   9524   9540     1   109.5800467 425.931200
   9532   9538   9539     1   107.2600461 396.643200
   9536   9532   9538     1   110.2600474 425.931200
   9536   9532   9537     1   108.4600466 328.025600
   9537   9532   9538     1   110.2600474 425.931200
   9541   9542   9544     1   109.5600471 388.275200
   9541   9555   9559     1   109.5600471 388.275200
   9541   9555   9560     1   109.5600471 388.275200
   9542   9545   9549     1   109.5600471 388.275200
   9542   9554   9557     1   107.2600461 396.643200
   9542   9541   9543     1   109.5600471 388.275200
   9543   9541   9555     1   109.5600471 388.275200
   9543   9541   9563     1   109.7800468 425.094400
   9544   9542   9545     1   109.5600471 388.275200
   9544   9542   9554     1   110.2600474 425.931200
   9545   9546   9548     1   109.5600471 388.275200
   9545   9553   9556     1   107.2600461 396.643200
   9546   9547   9550     1   110.2200475 386.601600
   9546   9552   9558     1   107.2600461 396.643200
   9546   9545   9549     1   109.5600471 388.275200
   9547   9546   9548     1   109.5600471 388.275200
   9548   9546   9552     1   110.2600474 425.931200
   9549   9545   9553     1   110.2600474 425.931200
   9550   9547   9551     1   109.5800467 425.931200
   9550   9547   9563     1   109.5800467 425.931200
   9555   9561   9562     1   107.2600461 396.643200
   9559   9555   9561     1   110.2600474 425.931200
   9559   9555   9560     1   108.4600466 328.025600
   9560   9555   9561     1   110.2600474 425.931200
   9564   9565   9567     1   109.5600471 388.275200
   9564   9578   9582     1   109.5600471 388.275200
   9564   9578   9583     1   109.5600471 388.275200
   9565   9564   9566     1   109.5600471 388.275200
   9565   9568   9572     1   109.5600471 388.275200
   9565   9577   9580     1   107.2600461 396.643200
   9566   9564   9578     1   109.5600471 388.275200
   9566   9564   9586     1   109.7800468 425.094400
   9567   9565   9568     1   109.5600471 388.275200
   9567   9565   9577     1   110.2600474 425.931200
   9568   9569   9571     1   109.5600471 388.275200
   9568   9576   9579     1   107.2600461 396.643200
   9569   9568   9572     1   109.5600471 388.275200
   9569   9570   9573     1   110.2200475 386.601600
   9569   9575   9581     1   107.2600461 396.643200
   9570   9569   9571     1   109.5600471 388.275200
   9571   9569   9575     1   110.2600474 425.931200
   9572   9568   9576     1   110.2600474 425.931200
   9573   9570   9574     1   109.5800467 425.931200
   9573   9570   9586     1   109.5800467 425.931200
   9578   9584   9585     1   107.2600461 396.643200
   9582   9578   9584     1   110.2600474 425.931200
   9582   9578   9583     1   108.4600466 328.025600
   9583   9578   9584     1   110.2600474 425.931200
   9587   9588   9590     1   109.5600471 388.275200
   9587   9601   9605     1   109.5600471 388.275200
   9587   9601   9606     1   109.5600471 388.275200
   9588   9591   9595     1   109.5600471 388.275200
   9588   9600   9603     1   107.2600461 396.643200
   9588   9587   9589     1   109.5600471 388.275200
   9589   9587   9601     1   109.5600471 388.275200
   9589   9587   9609     1   109.7800468 425.094400
   9590   9588   9591     1   109.5600471 388.275200
   9590   9588   9600     1   110.2600474 425.931200
   9591   9592   9594     1   109.5600471 388.275200
   9591   9599   9602     1   107.2600461 396.643200
   9592   9593   9596     1   110.2200475 386.601600
   9592   9598   9604     1   107.2600461 396.643200
   9592   9591   9595     1   109.5600471 388.275200
   9593   9592   9594     1   109.5600471 388.275200
   9594   9592   9598     1   110.2600474 425.931200
   9595   9591   9599     1   110.2600474 425.931200
   9596   9593   9597     1   109.5800467 425.931200
   9596   9593   9609     1   109.5800467 425.931200
   9601   9607   9608     1   107.2600461 396.643200
   9605   9601   9607     1   110.2600474 425.931200
   9605   9601   9606     1   108.4600466 328.025600
   9606   9601   9607     1   110.2600474 425.931200
   9610   9611   9613     1   109.5600471 388.275200
   9610   9624   9628     1   109.5600471 388.275200
   9610   9624   9629     1   109.5600471 388.275200
   9611   9610   9612     1   109.5600471 388.275200
   9611   9614   9618     1   109.5600471 388.275200
   9611   9623   9626     1   107.2600461 396.643200
   9612   9610   9624     1   109.5600471 388.275200
   9612   9610   9632     1   109.7800468 425.094400
   9613   9611   9614     1   109.5600471 388.275200
   9613   9611   9623     1   110.2600474 425.931200
   9614   9615   9617     1   109.5600471 388.275200
   9614   9622   9625     1   107.2600461 396.643200
   9615   9614   9618     1   109.5600471 388.275200
   9615   9616   9619     1   110.2200475 386.601600
   9615   9621   9627     1   107.2600461 396.643200
   9616   9615   9617     1   109.5600471 388.275200
   9617   9615   9621     1   110.2600474 425.931200
   9618   9614   9622     1   110.2600474 425.931200
   9619   9616   9620     1   109.5800467 425.931200
   9619   9616   9632     1   109.5800467 425.931200
   9624   9630   9631     1   107.2600461 396.643200
   9628   9624   9630     1   110.2600474 425.931200
   9628   9624   9629     1   108.4600466 328.025600
   9629   9624   9630     1   110.2600474 425.931200
   9633   9634   9636     1   109.5600471 388.275200
   9633   9647   9651     1   109.5600471 388.275200
   9633   9647   9652     1   109.5600471 388.275200
   9634   9637   9641     1   109.5600471 388.275200
   9634   9646   9649     1   107.2600461 396.643200
   9634   9633   9635     1   109.5600471 388.275200
   9635   9633   9647     1   109.5600471 388.275200
   9635   9633   9655     1   109.7800468 425.094400
   9636   9634   9637     1   109.5600471 388.275200
   9636   9634   9646     1   110.2600474 425.931200
   9637   9638   9640     1   109.5600471 388.275200
   9637   9645   9648     1   107.2600461 396.643200
   9638   9639   9642     1   110.2200475 386.601600
   9638   9644   9650     1   107.2600461 396.643200
   9638   9637   9641     1   109.5600471 388.275200
   9639   9638   9640     1   109.5600471 388.275200
   9640   9638   9644     1   110.2600474 425.931200
   9641   9637   9645     1   110.2600474 425.931200
   9642   9639   9643     1   109.5800467 425.931200
   9642   9639   9655     1   109.5800467 425.931200
   9647   9653   9654     1   107.2600461 396.643200
   9651   9647   9653     1   110.2600474 425.931200
   9651   9647   9652     1   108.4600466 328.025600
   9652   9647   9653     1   110.2600474 425.931200
   9656   9657   9659     1   109.5600471 388.275200
   9656   9670   9674     1   109.5600471 388.275200
   9656   9670   9675     1   109.5600471 388.275200
   9657   9656   9658     1   109.5600471 388.275200
   9657   9660   9664     1   109.5600471 388.275200
   9657   9669   9672     1   107.2600461 396.643200
   9658   9656   9670     1   109.5600471 388.275200
   9658   9656   9678     1   109.7800468 425.094400
   9659   9657   9660     1   109.5600471 388.275200
   9659   9657   9669     1   110.2600474 425.931200
   9660   9661   9663     1   109.5600471 388.275200
   9660   9668   9671     1   107.2600461 396.643200
   9661   9660   9664     1   109.5600471 388.275200
   9661   9662   9665     1   110.2200475 386.601600
   9661   9667   9673     1   107.2600461 396.643200
   9662   9661   9663     1   109.5600471 388.275200
   9663   9661   9667     1   110.2600474 425.931200
   9664   9660   9668     1   110.2600474 425.931200
   9665   9662   9666     1   109.5800467 425.931200
   9665   9662   9678     1   109.5800467 425.931200
   9670   9676   9677     1   107.2600461 396.643200
   9674   9670   9676     1   110.2600474 425.931200
   9674   9670   9675     1   108.4600466 328.025600
   9675   9670   9676     1   110.2600474 425.931200
   9679   9680   9682     1   109.5600471 388.275200
   9679   9693   9697     1   109.5600471 388.275200
   9679   9693   9698     1   109.5600471 388.275200
   9680   9683   9687     1   109.5600471 388.275200
   9680   9692   9695     1   107.2600461 396.643200
   9680   9679   9681     1   109.5600471 388.275200
   9681   9679   9693     1   109.5600471 388.275200
   9681   9679   9701     1   109.7800468 425.094400
   9682   9680   9683     1   109.5600471 388.275200
   9682   9680   9692     1   110.2600474 425.931200
   9683   9684   9686     1   109.5600471 388.275200
   9683   9691   9694     1   107.2600461 396.643200
   9684   9685   9688     1   110.2200475 386.601600
   9684   9690   9696     1   107.2600461 396.643200
   9684   9683   9687     1   109.5600471 388.275200
   9685   9684   9686     1   109.5600471 388.275200
   9686   9684   9690     1   110.2600474 425.931200
   9687   9683   9691     1   110.2600474 425.931200
   9688   9685   9689     1   109.5800467 425.931200
   9688   9685   9701     1   109.5800467 425.931200
   9693   9699   9700     1   107.2600461 396.643200
   9697   9693   9699     1   110.2600474 425.931200
   9697   9693   9698     1   108.4600466 328.025600
   9698   9693   9699     1   110.2600474 425.931200
   9702   9703   9705     1   109.5600471 388.275200
   9702   9716   9720     1   109.5600471 388.275200
   9702   9716   9721     1   109.5600471 388.275200
   9703   9702   9704     1   109.5600471 388.275200
   9703   9706   9710     1   109.5600471 388.275200
   9703   9715   9718     1   107.2600461 396.643200
   9704   9702   9716     1   109.5600471 388.275200
   9704   9702   9724     1   109.7800468 425.094400
   9705   9703   9706     1   109.5600471 388.275200
   9705   9703   9715     1   110.2600474 425.931200
   9706   9707   9709     1   109.5600471 388.275200
   9706   9714   9717     1   107.2600461 396.643200
   9707   9706   9710     1   109.5600471 388.275200
   9707   9708   9711     1   110.2200475 386.601600
   9707   9713   9719     1   107.2600461 396.643200
   9708   9707   9709     1   109.5600471 388.275200
   9709   9707   9713     1   110.2600474 425.931200
   9710   9706   9714     1   110.2600474 425.931200
   9711   9708   9712     1   109.5800467 425.931200
   9711   9708   9724     1   109.5800467 425.931200
   9716   9722   9723     1   107.2600461 396.643200
   9720   9716   9722     1   110.2600474 425.931200
   9720   9716   9721     1   108.4600466 328.025600
   9721   9716   9722     1   110.2600474 425.931200
   9725   9726   9728     1   109.5600471 388.275200
   9725   9739   9743     1   109.5600471 388.275200
   9725   9739   9744     1   109.5600471 388.275200
   9726   9729   9733     1   109.5600471 388.275200
   9726   9738   9741     1   107.2600461 396.643200
   9726   9725   9727     1   109.5600471 388.275200
   9727   9725   9739     1   109.5600471 388.275200
   9727   9725   9747     1   109.7800468 425.094400
   9728   9726   9729     1   109.5600471 388.275200
   9728   9726   9738     1   110.2600474 425.931200
   9729   9730   9732     1   109.5600471 388.275200
   9729   9737   9740     1   107.2600461 396.643200
   9730   9731   9734     1   110.2200475 386.601600
   9730   9736   9742     1   107.2600461 396.643200
   9730   9729   9733     1   109.5600471 388.275200
   9731   9730   9732     1   109.5600471 388.275200
   9732   9730   9736     1   110.2600474 425.931200
   9733   9729   9737     1   110.2600474 425.931200
   9734   9731   9735     1   109.5800467 425.931200
   9734   9731   9747     1   109.5800467 425.931200
   9739   9745   9746     1   107.2600461 396.643200
   9743   9739   9745     1   110.2600474 425.931200
   9743   9739   9744     1   108.4600466 328.025600
   9744   9739   9745     1   110.2600474 425.931200
   9748   9749   9751     1   109.5600471 388.275200
   9748   9762   9766     1   109.5600471 388.275200
   9748   9762   9767     1   109.5600471 388.275200
   9749   9748   9750     1   109.5600471 388.275200
   9749   9752   9756     1   109.5600471 388.275200
   9749   9761   9764     1   107.2600461 396.643200
   9750   9748   9762     1   109.5600471 388.275200
   9750   9748   9770     1   109.7800468 425.094400
   9751   9749   9752     1   109.5600471 388.275200
   9751   9749   9761     1   110.2600474 425.931200
   9752   9753   9755     1   109.5600471 388.275200
   9752   9760   9763     1   107.2600461 396.643200
   9753   9752   9756     1   109.5600471 388.275200
   9753   9754   9757     1   110.2200475 386.601600
   9753   9759   9765     1   107.2600461 396.643200
   9754   9753   9755     1   109.5600471 388.275200
   9755   9753   9759     1   110.2600474 425.931200
   9756   9752   9760     1   110.2600474 425.931200
   9757   9754   9758     1   109.5800467 425.931200
   9757   9754   9770     1   109.5800467 425.931200
   9762   9768   9769     1   107.2600461 396.643200
   9766   9762   9768     1   110.2600474 425.931200
   9766   9762   9767     1   108.4600466 328.025600
   9767   9762   9768     1   110.2600474 425.931200
   9771   9772   9774     1   109.5600471 388.275200
   9771   9785   9789     1   109.5600471 388.275200
   9771   9785   9790     1   109.5600471 388.275200
   9772   9775   9779     1   109.5600471 388.275200
   9772   9784   9787     1   107.2600461 396.643200
   9772   9771   9773     1   109.5600471 388.275200
   9773   9771   9785     1   109.5600471 388.275200
   9773   9771   9793     1   109.7800468 425.094400
   9774   9772   9775     1   109.5600471 388.275200
   9774   9772   9784     1   110.2600474 425.931200
   9775   9776   9778     1   109.5600471 388.275200
   9775   9783   9786     1   107.2600461 396.643200
   9776   9777   9780     1   110.2200475 386.601600
   9776   9782   9788     1   107.2600461 396.643200
   9776   9775   9779     1   109.5600471 388.275200
   9777   9776   9778     1   109.5600471 388.275200
   9778   9776   9782     1   110.2600474 425.931200
   9779   9775   9783     1   110.2600474 425.931200
   9780   9777   9781     1   109.5800467 425.931200
   9780   9777   9793     1   109.5800467 425.931200
   9785   9791   9792     1   107.2600461 396.643200
   9789   9785   9791     1   110.2600474 425.931200
   9789   9785   9790     1   108.4600466 328.025600
   9790   9785   9791     1   110.2600474 425.931200
   9794   9795   9797     1   109.5600471 388.275200
   9794   9808   9812     1   109.5600471 388.275200
   9794   9808   9813     1   109.5600471 388.275200
   9795   9794   9796     1   109.5600471 388.275200
   9795   9798   9802     1   109.5600471 388.275200
   9795   9807   9810     1   107.2600461 396.643200
   9796   9794   9808     1   109.5600471 388.275200
   9796   9794   9816     1   109.7800468 425.094400
   9797   9795   9798     1   109.5600471 388.275200
   9797   9795   9807     1   110.2600474 425.931200
   9798   9799   9801     1   109.5600471 388.275200
   9798   9806   9809     1   107.2600461 396.643200
   9799   9798   9802     1   109.5600471 388.275200
   9799   9800   9803     1   110.2200475 386.601600
   9799   9805   9811     1   107.2600461 396.643200
   9800   9799   9801     1   109.5600471 388.275200
   9801   9799   9805     1   110.2600474 425.931200
   9802   9798   9806     1   110.2600474 425.931200
   9803   9800   9804     1   109.5800467 425.931200
   9803   9800   9816     1   109.5800467 425.931200
   9808   9814   9815     1   107.2600461 396.643200
   9812   9808   9814     1   110.2600474 425.931200
   9812   9808   9813     1   108.4600466 328.025600
   9813   9808   9814     1   110.2600474 425.931200
   9817   9818   9820     1   109.5600471 388.275200
   9817   9831   9835     1   109.5600471 388.275200
   9817   9831   9836     1   109.5600471 388.275200
   9818   9821   9825     1   109.5600471 388.275200
   9818   9830   9833     1   107.2600461 396.643200
   9818   9817   9819     1   109.5600471 388.275200
   9819   9817   9831     1   109.5600471 388.275200
   9819   9817   9839     1   109.7800468 425.094400
   9820   9818   9821     1   109.5600471 388.275200
   9820   9818   9830     1   110.2600474 425.931200
   9821   9822   9824     1   109.5600471 388.275200
   9821   9829   9832     1   107.2600461 396.643200
   9822   9823   9826     1   110.2200475 386.601600
   9822   9828   9834     1   107.2600461 396.643200
   9822   9821   9825     1   109.5600471 388.275200
   9823   9822   9824     1   109.5600471 388.275200
   9824   9822   9828     1   110.2600474 425.931200
   9825   9821   9829     1   110.2600474 425.931200
   9826   9823   9827     1   109.5800467 425.931200
   9826   9823   9839     1   109.5800467 425.931200
   9831   9837   9838     1   107.2600461 396.643200
   9835   9831   9837     1   110.2600474 425.931200
   9835   9831   9836     1   108.4600466 328.025600
   9836   9831   9837     1   110.2600474 425.931200
   9840   9841   9843     1   109.5600471 388.275200
   9840   9854   9858     1   109.5600471 388.275200
   9840   9854   9859     1   109.5600471 388.275200
   9841   9840   9842     1   109.5600471 388.275200
   9841   9844   9848     1   109.5600471 388.275200
   9841   9853   9856     1   107.2600461 396.643200
   9842   9840   9854     1   109.5600471 388.275200
   9842   9840   9862     1   109.7800468 425.094400
   9843   9841   9844     1   109.5600471 388.275200
   9843   9841   9853     1   110.2600474 425.931200
   9844   9845   9847     1   109.5600471 388.275200
   9844   9852   9855     1   107.2600461 396.643200
   9845   9844   9848     1   109.5600471 388.275200
   9845   9846   9849     1   110.2200475 386.601600
   9845   9851   9857     1   107.2600461 396.643200
   9846   9845   9847     1   109.5600471 388.275200
   9847   9845   9851     1   110.2600474 425.931200
   9848   9844   9852     1   110.2600474 425.931200
   9849   9846   9850     1   109.5800467 425.931200
   9849   9846   9862     1   109.5800467 425.931200
   9854   9860   9861     1   107.2600461 396.643200
   9858   9854   9860     1   110.2600474 425.931200
   9858   9854   9859     1   108.4600466 328.025600
   9859   9854   9860     1   110.2600474 425.931200
   9863   9864   9866     1   109.5600471 388.275200
   9863   9877   9881     1   109.5600471 388.275200
   9863   9877   9882     1   109.5600471 388.275200
   9864   9867   9871     1   109.5600471 388.275200
   9864   9876   9879     1   107.2600461 396.643200
   9864   9863   9865     1   109.5600471 388.275200
   9865   9863   9877     1   109.5600471 388.275200
   9865   9863   9885     1   109.7800468 425.094400
   9866   9864   9867     1   109.5600471 388.275200
   9866   9864   9876     1   110.2600474 425.931200
   9867   9868   9870     1   109.5600471 388.275200
   9867   9875   9878     1   107.2600461 396.643200
   9868   9869   9872     1   110.2200475 386.601600
   9868   9874   9880     1   107.2600461 396.643200
   9868   9867   9871     1   109.5600471 388.275200
   9869   9868   9870     1   109.5600471 388.275200
   9870   9868   9874     1   110.2600474 425.931200
   9871   9867   9875     1   110.2600474 425.931200
   9872   9869   9873     1   109.5800467 425.931200
   9872   9869   9885     1   109.5800467 425.931200
   9877   9883   9884     1   107.2600461 396.643200
   9881   9877   9883     1   110.2600474 425.931200
   9881   9877   9882     1   108.4600466 328.025600
   9882   9877   9883     1   110.2600474 425.931200
   9886   9887   9889     1   109.5600471 388.275200
   9886   9900   9904     1   109.5600471 388.275200
   9886   9900   9905     1   109.5600471 388.275200
   9887   9886   9888     1   109.5600471 388.275200
   9887   9890   9894     1   109.5600471 388.275200
   9887   9899   9902     1   107.2600461 396.643200
   9888   9886   9900     1   109.5600471 388.275200
   9888   9886   9908     1   109.7800468 425.094400
   9889   9887   9890     1   109.5600471 388.275200
   9889   9887   9899     1   110.2600474 425.931200
   9890   9891   9893     1   109.5600471 388.275200
   9890   9898   9901     1   107.2600461 396.643200
   9891   9890   9894     1   109.5600471 388.275200
   9891   9892   9895     1   110.2200475 386.601600
   9891   9897   9903     1   107.2600461 396.643200
   9892   9891   9893     1   109.5600471 388.275200
   9893   9891   9897     1   110.2600474 425.931200
   9894   9890   9898     1   110.2600474 425.931200
   9895   9892   9896     1   109.5800467 425.931200
   9895   9892   9908     1   109.5800467 425.931200
   9900   9906   9907     1   107.2600461 396.643200
   9904   9900   9906     1   110.2600474 425.931200
   9904   9900   9905     1   108.4600466 328.025600
   9905   9900   9906     1   110.2600474 425.931200
   9909   9910   9912     1   109.5600471 388.275200
   9909   9923   9927     1   109.5600471 388.275200
   9909   9923   9928     1   109.5600471 388.275200
   9910   9913   9917     1   109.5600471 388.275200
   9910   9922   9925     1   107.2600461 396.643200
   9910   9909   9911     1   109.5600471 388.275200
   9911   9909   9923     1   109.5600471 388.275200
   9911   9909   9931     1   109.7800468 425.094400
   9912   9910   9913     1   109.5600471 388.275200
   9912   9910   9922     1   110.2600474 425.931200
   9913   9914   9916     1   109.5600471 388.275200
   9913   9921   9924     1   107.2600461 396.643200
   9914   9915   9918     1   110.2200475 386.601600
   9914   9920   9926     1   107.2600461 396.643200
   9914   9913   9917     1   109.5600471 388.275200
   9915   9914   9916     1   109.5600471 388.275200
   9916   9914   9920     1   110.2600474 425.931200
   9917   9913   9921     1   110.2600474 425.931200
   9918   9915   9919     1   109.5800467 425.931200
   9918   9915   9931     1   109.5800467 425.931200
   9923   9929   9930     1   107.2600461 396.643200
   9927   9923   9929     1   110.2600474 425.931200
   9927   9923   9928     1   108.4600466 328.025600
   9928   9923   9929     1   110.2600474 425.931200
   9932   9933   9935     1   109.5600471 388.275200
   9932   9946   9950     1   109.5600471 388.275200
   9932   9946   9951     1   109.5600471 388.275200
   9933   9932   9934     1   109.5600471 388.275200
   9933   9936   9940     1   109.5600471 388.275200
   9933   9945   9948     1   107.2600461 396.643200
   9934   9932   9946     1   109.5600471 388.275200
   9934   9932   9954     1   109.7800468 425.094400
   9935   9933   9936     1   109.5600471 388.275200
   9935   9933   9945     1   110.2600474 425.931200
   9936   9937   9939     1   109.5600471 388.275200
   9936   9944   9947     1   107.2600461 396.643200
   9937   9936   9940     1   109.5600471 388.275200
   9937   9938   9941     1   110.2200475 386.601600
   9937   9943   9949     1   107.2600461 396.643200
   9938   9937   9939     1   109.5600471 388.275200
   9939   9937   9943     1   110.2600474 425.931200
   9940   9936   9944     1   110.2600474 425.931200
   9941   9938   9942     1   109.5800467 425.931200
   9941   9938   9954     1   109.5800467 425.931200
   9946   9952   9953     1   107.2600461 396.643200
   9950   9946   9952     1   110.2600474 425.931200
   9950   9946   9951     1   108.4600466 328.025600
   9951   9946   9952     1   110.2600474 425.931200
   9955   9956   9958     1   109.5600471 388.275200
   9955   9969   9973     1   109.5600471 388.275200
   9955   9969   9974     1   109.5600471 388.275200
   9956   9959   9963     1   109.5600471 388.275200
   9956   9968   9971     1   107.2600461 396.643200
   9956   9955   9957     1   109.5600471 388.275200
   9957   9955   9969     1   109.5600471 388.275200
   9957   9955   9977     1   109.7800468 425.094400
   9958   9956   9959     1   109.5600471 388.275200
   9958   9956   9968     1   110.2600474 425.931200
   9959   9960   9962     1   109.5600471 388.275200
   9959   9967   9970     1   107.2600461 396.643200
   9960   9961   9964     1   110.2200475 386.601600
   9960   9966   9972     1   107.2600461 396.643200
   9960   9959   9963     1   109.5600471 388.275200
   9961   9960   9962     1   109.5600471 388.275200
   9962   9960   9966     1   110.2600474 425.931200
   9963   9959   9967     1   110.2600474 425.931200
   9964   9961   9965     1   109.5800467 425.931200
   9964   9961   9977     1   109.5800467 425.931200
   9969   9975   9976     1   107.2600461 396.643200
   9973   9969   9975     1   110.2600474 425.931200
   9973   9969   9974     1   108.4600466 328.025600
   9974   9969   9975     1   110.2600474 425.931200
   9978   9979   9981     1   109.5600471 388.275200
   9978   9992   9996     1   109.5600471 388.275200
   9978   9992   9997     1   109.5600471 388.275200
   9979   9978   9980     1   109.5600471 388.275200
   9979   9982   9986     1   109.5600471 388.275200
   9979   9991   9994     1   107.2600461 396.643200
   9980   9978   9992     1   109.5600471 388.275200
   9980   9978  10000     1   109.7800468 425.094400
   9981   9979   9982     1   109.5600471 388.275200
   9981   9979   9991     1   110.2600474 425.931200
   9982   9983   9985     1   109.5600471 388.275200
   9982   9990   9993     1   107.2600461 396.643200
   9983   9982   9986     1   109.5600471 388.275200
   9983   9984   9987     1   110.2200475 386.601600
   9983   9989   9995     1   107.2600461 396.643200
   9984   9983   9985     1   109.5600471 388.275200
   9985   9983   9989     1   110.2600474 425.931200
   9986   9982   9990     1   110.2600474 425.931200
   9987   9984   9988     1   109.5800467 425.931200
   9987   9984  10000     1   109.5800467 425.931200
   9992   9998   9999     1   107.2600461 396.643200
   9996   9992   9998     1   110.2600474 425.931200
   9996   9992   9997     1   108.4600466 328.025600
   9997   9992   9998     1   110.2600474 425.931200
  10001  10002  10004     1   109.5600471 388.275200
  10001  10015  10019     1   109.5600471 388.275200
  10001  10015  10020     1   109.5600471 388.275200
  10002  10005  10009     1   109.5600471 388.275200
  10002  10014  10017     1   107.2600461 396.643200
  10002  10001  10003     1   109.5600471 388.275200
  10003  10001  10015     1   109.5600471 388.275200
  10003  10001  10023     1   109.7800468 425.094400
  10004  10002  10005     1   109.5600471 388.275200
  10004  10002  10014     1   110.2600474 425.931200
  10005  10006  10008     1   109.5600471 388.275200
  10005  10013  10016     1   107.2600461 396.643200
  10006  10007  10010     1   110.2200475 386.601600
  10006  10012  10018     1   107.2600461 396.643200
  10006  10005  10009     1   109.5600471 388.275200
  10007  10006  10008     1   109.5600471 388.275200
  10008  10006  10012     1   110.2600474 425.931200
  10009  10005  10013     1   110.2600474 425.931200
  10010  10007  10011     1   109.5800467 425.931200
  10010  10007  10023     1   109.5800467 425.931200
  10015  10021  10022     1   107.2600461 396.643200
  10019  10015  10021     1   110.2600474 425.931200
  10019  10015  10020     1   108.4600466 328.025600
  10020  10015  10021     1   110.2600474 425.931200
  10024  10025  10027     1   109.5600471 388.275200
  10024  10038  10042     1   109.5600471 388.275200
  10024  10038  10043     1   109.5600471 388.275200
  10025  10024  10026     1   109.5600471 388.275200
  10025  10028  10032     1   109.5600471 388.275200
  10025  10037  10040     1   107.2600461 396.643200
  10026  10024  10038     1   109.5600471 388.275200
  10026  10024  10046     1   109.7800468 425.094400
  10027  10025  10028     1   109.5600471 388.275200
  10027  10025  10037     1   110.2600474 425.931200
  10028  10029  10031     1   109.5600471 388.275200
  10028  10036  10039     1   107.2600461 396.643200
  10029  10028  10032     1   109.5600471 388.275200
  10029  10030  10033     1   110.2200475 386.601600
  10029  10035  10041     1   107.2600461 396.643200
  10030  10029  10031     1   109.5600471 388.275200
  10031  10029  10035     1   110.2600474 425.931200
  10032  10028  10036     1   110.2600474 425.931200
  10033  10030  10034     1   109.5800467 425.931200
  10033  10030  10046     1   109.5800467 425.931200
  10038  10044  10045     1   107.2600461 396.643200
  10042  10038  10044     1   110.2600474 425.931200
  10042  10038  10043     1   108.4600466 328.025600
  10043  10038  10044     1   110.2600474 425.931200
  10047  10048  10050     1   109.5600471 388.275200
  10047  10061  10065     1   109.5600471 388.275200
  10047  10061  10066     1   109.5600471 388.275200
  10048  10051  10055     1   109.5600471 388.275200
  10048  10060  10063     1   107.2600461 396.643200
  10048  10047  10049     1   109.5600471 388.275200
  10049  10047  10061     1   109.5600471 388.275200
  10049  10047  10069     1   109.7800468 425.094400
  10050  10048  10051     1   109.5600471 388.275200
  10050  10048  10060     1   110.2600474 425.931200
  10051  10052  10054     1   109.5600471 388.275200
  10051  10059  10062     1   107.2600461 396.643200
  10052  10053  10056     1   110.2200475 386.601600
  10052  10058  10064     1   107.2600461 396.643200
  10052  10051  10055     1   109.5600471 388.275200
  10053  10052  10054     1   109.5600471 388.275200
  10054  10052  10058     1   110.2600474 425.931200
  10055  10051  10059     1   110.2600474 425.931200
  10056  10053  10057     1   109.5800467 425.931200
  10056  10053  10069     1   109.5800467 425.931200
  10061  10067  10068     1   107.2600461 396.643200
  10065  10061  10067     1   110.2600474 425.931200
  10065  10061  10066     1   108.4600466 328.025600
  10066  10061  10067     1   110.2600474 425.931200
  10070  10071  10073     1   109.5600471 388.275200
  10070  10084  10088     1   109.5600471 388.275200
  10070  10084  10089     1   109.5600471 388.275200
  10071  10070  10072     1   109.5600471 388.275200
  10071  10074  10078     1   109.5600471 388.275200
  10071  10083  10086     1   107.2600461 396.643200
  10072  10070  10084     1   109.5600471 388.275200
  10072  10070  10092     1   109.7800468 425.094400
  10073  10071  10074     1   109.5600471 388.275200
  10073  10071  10083     1   110.2600474 425.931200
  10074  10075  10077     1   109.5600471 388.275200
  10074  10082  10085     1   107.2600461 396.643200
  10075  10074  10078     1   109.5600471 388.275200
  10075  10076  10079     1   110.2200475 386.601600
  10075  10081  10087     1   107.2600461 396.643200
  10076  10075  10077     1   109.5600471 388.275200
  10077  10075  10081     1   110.2600474 425.931200
  10078  10074  10082     1   110.2600474 425.931200
  10079  10076  10080     1   109.5800467 425.931200
  10079  10076  10092     1   109.5800467 425.931200
  10084  10090  10091     1   107.2600461 396.643200
  10088  10084  10090     1   110.2600474 425.931200
  10088  10084  10089     1   108.4600466 328.025600
  10089  10084  10090     1   110.2600474 425.931200
  10093  10094  10096     1   109.5600471 388.275200
  10093  10107  10111     1   109.5600471 388.275200
  10093  10107  10112     1   109.5600471 388.275200
  10094  10097  10101     1   109.5600471 388.275200
  10094  10106  10109     1   107.2600461 396.643200
  10094  10093  10095     1   109.5600471 388.275200
  10095  10093  10107     1   109.5600471 388.275200
  10095  10093  10115     1   109.7800468 425.094400
  10096  10094  10097     1   109.5600471 388.275200
  10096  10094  10106     1   110.2600474 425.931200
  10097  10098  10100     1   109.5600471 388.275200
  10097  10105  10108     1   107.2600461 396.643200
  10098  10099  10102     1   110.2200475 386.601600
  10098  10104  10110     1   107.2600461 396.643200
  10098  10097  10101     1   109.5600471 388.275200
  10099  10098  10100     1   109.5600471 388.275200
  10100  10098  10104     1   110.2600474 425.931200
  10101  10097  10105     1   110.2600474 425.931200
  10102  10099  10103     1   109.5800467 425.931200
  10102  10099  10115     1   109.5800467 425.931200
  10107  10113  10114     1   107.2600461 396.643200
  10111  10107  10113     1   110.2600474 425.931200
  10111  10107  10112     1   108.4600466 328.025600
  10112  10107  10113     1   110.2600474 425.931200

[ dihedrals ]
;    ai     aj     ak     al funct         c0         c1         c2         c3         c4         c5
      1      2     14     26     1  0.0000000  0.6508444  3
      1      5     17     20     1  0.0000000  0.6508444  3
      1      8     11     23     1  0.0000000  0.6508444  3
      2      1      5     17     1  0.0000000  0.6508444  3
      2      1      8     11     1  0.0000000  0.6508444  3
      2     14     26    118     1  0.0000000  0.6508444  3
      5      1      2     14     1  0.0000000  0.6508444  3
      5      1      8     11     1  0.0000000  0.6508444  3
      5     17     20     58     1  0.0000000  0.6508444  3
      8      1      2     14     1  0.0000000  0.6508444  3
      8      1      5     17     1  0.0000000  0.6508444  3
      8     11     23     88     1  0.0000000  0.6508444  3
     11     23     88     79     1  180.0000771  0.4184000  2
     11     23     88     79     1  0.0000000  1.6024720  3
     14     26    118    109     1  180.0000771  0.4184000  2
     14     26    118    109     1  0.0000000  1.6024720  3
     17     20     58     49     1  180.0000771  0.4184000  2
     17     20     58     49     1  0.0000000  1.6024720  3
     20     58     49     40     1  180.0000771  0.4184000  2
     20     58     49     40     1  0.0000000  1.6024720  3
     23     88     79     70     1  180.0000771  0.4184000  2
     23     88     79     70     1  0.0000000  1.6024720  3
     26    118    109    100     1  180.0000771  0.4184000  2
     26    118    109    100     1  0.0000000  1.6024720  3
     30     31     43     55     1  0.0000000  0.6508444  3
     30     34     46     52     1  0.0000000  0.6508444  3
     30     37     40     49     1  0.0000000  0.6508444  3
     31     30     34     46     1  0.0000000  0.6508444  3
     31     30     37     40     1  0.0000000  0.6508444  3
     31     43     55    178     1  0.0000000  0.6508444  3
     34     30     31     43     1  0.0000000  0.6508444  3
     34     30     37     40     1  0.0000000  0.6508444  3
     34     46     52    148     1  0.0000000  0.6508444  3
     37     30     31     43     1  0.0000000  0.6508444  3
     37     30     34     46     1  0.0000000  0.6508444  3
     37     40     49     58     1  0.0000000  0.6508444  3
     43     55    178    169     1  180.0000771  0.4184000  2
     43     55    178    169     1  0.0000000  1.6024720  3
     46     52    148    139     1  180.0000771  0.4184000  2
     46     52    148    139     1  0.0000000  1.6024720  3
     52    148    139    130     1  180.0000771  0.4184000  2
     52    148    139    130     1  0.0000000  1.6024720  3
     55    178    169    160     1  180.0000771  0.4184000  2
     55    178    169    160     1  0.0000000  1.6024720  3
     60     61     73     85     1  0.0000000  0.6508444  3
     60     64     76     82     1  0.0000000  0.6508444  3
     60     67     70     79     1  0.0000000  0.6508444  3
     61     60     64     76     1  0.0000000  0.6508444  3
     61     60     67     70     1  0.0000000  0.6508444  3
     61     73     85    238     1  0.0000000  0.6508444  3
     64     60     61     73     1  0.0000000  0.6508444  3
     64     60     67     70     1  0.0000000  0.6508444  3
     64     76     82    208     1  0.0000000  0.6508444  3
     67     60     61     73     1  0.0000000  0.6508444  3
     67     60     64     76     1  0.0000000  0.6508444  3
     67     70     79     88     1  0.0000000  0.6508444  3
     73     85    238    229     1  180.0000771  0.4184000  2
     73     85    238    229     1  0.0000000  1.6024720  3
     76     82    208    199     1  180.0000771  0.4184000  2
     76     82    208    199     1  0.0000000  1.6024720  3
     82    208    199    190     1  180.0000771  0.4184000  2
     82    208    199    190     1  0.0000000  1.6024720  3
     85    238    229    220     1  180.0000771  0.4184000  2
     85    238    229    220     1  0.0000000  1.6024720  3
     90     91    103    115     1  0.0000000  0.6508444  3
     90     94    106    112     1  0.0000000  0.6508444  3
     90     97    100    109     1  0.0000000  0.6508444  3
     91     90     94    106     1  0.0000000  0.6508444  3
     91     90     97    100     1  0.0000000  0.6508444  3
     91    103    115    298     1  0.0000000  0.6508444  3
     94     90     91    103     1  0.0000000  0.6508444  3
     94     90     97    100     1  0.0000000  0.6508444  3
     94    106    112    268     1  0.0000000  0.6508444  3
     97     90     91    103     1  0.0000000  0.6508444  3
     97     90     94    106     1  0.0000000  0.6508444  3
     97    100    109    118     1  0.0000000  0.6508444  3
    103    115    298    289     1  180.0000771  0.4184000  2
    103    115    298    289     1  0.0000000  1.6024720  3
    106    112    268    259     1  180.0000771  0.4184000  2
    106    112    268    259     1  0.0000000  1.6024720  3
    112    268    259    250     1  180.0000771  0.4184000  2
    112    268    259    250     1  0.0000000  1.6024720  3
    115    298    289    280     1  180.0000771  0.4184000  2
    115    298    289    280     1  0.0000000  1.6024720  3
    120    121    133    145     1  0.0000000  0.6508444  3
    120    124    136    142     1  0.0000000  0.6508444  3
    120    127    130    139     1  0.0000000  0.6508444  3
    121    120    124    136     1  0.0000000  0.6508444  3
    121    120    127    130     1  0.0000000  0.6508444  3
    121    133    145    358     1  0.0000000  0.6508444  3
    124    120    121    133     1  0.0000000  0.6508444  3
    124    120    127    130     1  0.0000000  0.6508444  3
    124    136    142    328     1  0.0000000  0.6508444  3
    127    120    121    133     1  0.0000000  0.6508444  3
    127    120    124    136     1  0.0000000  0.6508444  3
    127    130    139    148     1  0.0000000  0.6508444  3
    133    145    358    349     1  180.0000771  0.4184000  2
    133    145    358    349     1  0.0000000  1.6024720  3
    136    142    328    319     1  180.0000771  0.4184000  2
    136    142    328    319     1  0.0000000  1.6024720  3
    142    328    319    310     1  180.0000771  0.4184000  2
    142    328    319    310     1  0.0000000  1.6024720  3
    145    358    349    340     1  180.0000771  0.4184000  2
    145    358    349    340     1  0.0000000  1.6024720  3
    150    151    163    175     1  0.0000000  0.6508444  3
    150    154    166    172     1  0.0000000  0.6508444  3
    150    157    160    169     1  0.0000000  0.6508444  3
    151    150    154    166     1  0.0000000  0.6508444  3
    151    150    157    160     1  0.0000000  0.6508444  3
    151    163    175    418     1  0.0000000  0.6508444  3
    154    150    151    163     1  0.0000000  0.6508444  3
    154    150    157    160     1  0.0000000  0.6508444  3
    154    166    172    388     1  0.0000000  0.6508444  3
    157    150    151    163     1  0.0000000  0.6508444  3
    157    150    154    166     1  0.0000000  0.6508444  3
    157    160    169    178     1  0.0000000  0.6508444  3
    163    175    418    409     1  180.0000771  0.4184000  2
    163    175    418    409     1  0.0000000  1.6024720  3
    166    172    388    379     1  180.0000771  0.4184000  2
    166    172    388    379     1  0.0000000  1.6024720  3
    172    388    379    370     1  180.0000771  0.4184000  2
    172    388    379    370     1  0.0000000  1.6024720  3
    175    418    409    400     1  180.0000771  0.4184000  2
    175    418    409    400     1  0.0000000  1.6024720  3
    180    181    193    205     1  0.0000000  0.6508444  3
    180    184    196    202     1  0.0000000  0.6508444  3
    180    187    190    199     1  0.0000000  0.6508444  3
    181    180    184    196     1  0.0000000  0.6508444  3
    181    180    187    190     1  0.0000000  0.6508444  3
    181    193    205    478     1  0.0000000  0.6508444  3
    184    180    181    193     1  0.0000000  0.6508444  3
    184    180    187    190     1  0.0000000  0.6508444  3
    184    196    202    448     1  0.0000000  0.6508444  3
    187    180    181    193     1  0.0000000  0.6508444  3
    187    180    184    196     1  0.0000000  0.6508444  3
    187    190    199    208     1  0.0000000  0.6508444  3
    193    205    478    469     1  180.0000771  0.4184000  2
    193    205    478    469     1  0.0000000  1.6024720  3
    196    202    448    439     1  180.0000771  0.4184000  2
    196    202    448    439     1  0.0000000  1.6024720  3
    202    448    439    430     1  180.0000771  0.4184000  2
    202    448    439    430     1  0.0000000  1.6024720  3
    205    478    469    460     1  180.0000771  0.4184000  2
    205    478    469    460     1  0.0000000  1.6024720  3
    210    211    223    235     1  0.0000000  0.6508444  3
    210    214    226    232     1  0.0000000  0.6508444  3
    210    217    220    229     1  0.0000000  0.6508444  3
    211    210    214    226     1  0.0000000  0.6508444  3
    211    210    217    220     1  0.0000000  0.6508444  3
    211    223    235    538     1  0.0000000  0.6508444  3
    214    210    211    223     1  0.0000000  0.6508444  3
    214    210    217    220     1  0.0000000  0.6508444  3
    214    226    232    508     1  0.0000000  0.6508444  3
    217    210    211    223     1  0.0000000  0.6508444  3
    217    210    214    226     1  0.0000000  0.6508444  3
    217    220    229    238     1  0.0000000  0.6508444  3
    223    235    538    529     1  180.0000771  0.4184000  2
    223    235    538    529     1  0.0000000  1.6024720  3
    226    232    508    499     1  180.0000771  0.4184000  2
    226    232    508    499     1  0.0000000  1.6024720  3
    232    508    499    490     1  180.0000771  0.4184000  2
    232    508    499    490     1  0.0000000  1.6024720  3
    235    538    529    520     1  180.0000771  0.4184000  2
    235    538    529    520     1  0.0000000  1.6024720  3
    240    241    253    265     1  0.0000000  0.6508444  3
    240    244    256    262     1  0.0000000  0.6508444  3
    240    247    250    259     1  0.0000000  0.6508444  3
    241    240    244    256     1  0.0000000  0.6508444  3
    241    240    247    250     1  0.0000000  0.6508444  3
    241    253    265    598     1  0.0000000  0.6508444  3
    244    240    241    253     1  0.0000000  0.6508444  3
    244    240    247    250     1  0.0000000  0.6508444  3
    244    256    262    568     1  0.0000000  0.6508444  3
    247    240    241    253     1  0.0000000  0.6508444  3
    247    240    244    256     1  0.0000000  0.6508444  3
    247    250    259    268     1  0.0000000  0.6508444  3
    253    265    598    589     1  180.0000771  0.4184000  2
    253    265    598    589     1  0.0000000  1.6024720  3
    256    262    568    559     1  180.0000771  0.4184000  2
    256    262    568    559     1  0.0000000  1.6024720  3
    262    568    559    550     1  180.0000771  0.4184000  2
    262    568    559    550     1  0.0000000  1.6024720  3
    265    598    589    580     1  180.0000771  0.4184000  2
    265    598    589    580     1  0.0000000  1.6024720  3
    270    271    283    295     1  0.0000000  0.6508444  3
    270    274    286    292     1  0.0000000  0.6508444  3
    270    277    280    289     1  0.0000000  0.6508444  3
    271    270    274    286     1  0.0000000  0.6508444  3
    271    270    277    280     1  0.0000000  0.6508444  3
    271    283    295    658     1  0.0000000  0.6508444  3
    274    270    271    283     1  0.0000000  0.6508444  3
    274    270    277    280     1  0.0000000  0.6508444  3
    274    286    292    628     1  0.0000000  0.6508444  3
    277    270    271    283     1  0.0000000  0.6508444  3
    277    270    274    286     1  0.0000000  0.6508444  3
    277    280    289    298     1  0.0000000  0.6508444  3
    283    295    658    649     1  180.0000771  0.4184000  2
    283    295    658    649     1  0.0000000  1.6024720  3
    286    292    628    619     1  180.0000771  0.4184000  2
    286    292    628    619     1  0.0000000  1.6024720  3
    292    628    619    610     1  180.0000771  0.4184000  2
    292    628    619    610     1  0.0000000  1.6024720  3
    295    658    649    640     1  180.0000771  0.4184000  2
    295    658    649    640     1  0.0000000  1.6024720  3
    300    301    313    325     1  0.0000000  0.6508444  3
    300    304    316    322     1  0.0000000  0.6508444  3
    300    307    310    319     1  0.0000000  0.6508444  3
    301    300    304    316     1  0.0000000  0.6508444  3
    301    300    307    310     1  0.0000000  0.6508444  3
    301    313    325    718     1  0.0000000  0.6508444  3
    304    300    301    313     1  0.0000000  0.6508444  3
    304    300    307    310     1  0.0000000  0.6508444  3
    304    316    322    688     1  0.0000000  0.6508444  3
    307    300    301    313     1  0.0000000  0.6508444  3
    307    300    304    316     1  0.0000000  0.6508444  3
    307    310    319    328     1  0.0000000  0.6508444  3
    313    325    718    709     1  180.0000771  0.4184000  2
    313    325    718    709     1  0.0000000  1.6024720  3
    316    322    688    679     1  180.0000771  0.4184000  2
    316    322    688    679     1  0.0000000  1.6024720  3
    322    688    679    670     1  180.0000771  0.4184000  2
    322    688    679    670     1  0.0000000  1.6024720  3
    325    718    709    700     1  180.0000771  0.4184000  2
    325    718    709    700     1  0.0000000  1.6024720  3
    330    331    343    355     1  0.0000000  0.6508444  3
    330    334    346    352     1  0.0000000  0.6508444  3
    330    337    340    349     1  0.0000000  0.6508444  3
    331    330    334    346     1  0.0000000  0.6508444  3
    331    330    337    340     1  0.0000000  0.6508444  3
    331    343    355    778     1  0.0000000  0.6508444  3
    334    330    331    343     1  0.0000000  0.6508444  3
    334    330    337    340     1  0.0000000  0.6508444  3
    334    346    352    748     1  0.0000000  0.6508444  3
    337    330    331    343     1  0.0000000  0.6508444  3
    337    330    334    346     1  0.0000000  0.6508444  3
    337    340    349    358     1  0.0000000  0.6508444  3
    343    355    778    769     1  180.0000771  0.4184000  2
    343    355    778    769     1  0.0000000  1.6024720  3
    346    352    748    739     1  180.0000771  0.4184000  2
    346    352    748    739     1  0.0000000  1.6024720  3
    352    748    739    730     1  180.0000771  0.4184000  2
    352    748    739    730     1  0.0000000  1.6024720  3
    355    778    769    760     1  180.0000771  0.4184000  2
    355    778    769    760     1  0.0000000  1.6024720  3
    360    361    373    385     1  0.0000000  0.6508444  3
    360    364    376    382     1  0.0000000  0.6508444  3
    360    367    370    379     1  0.0000000  0.6508444  3
    361    360    364    376     1  0.0000000  0.6508444  3
    361    360    367    370     1  0.0000000  0.6508444  3
    361    373    385    838     1  0.0000000  0.6508444  3
    364    360    361    373     1  0.0000000  0.6508444  3
    364    360    367    370     1  0.0000000  0.6508444  3
    364    376    382    808     1  0.0000000  0.6508444  3
    367    360    361    373     1  0.0000000  0.6508444  3
    367    360    364    376     1  0.0000000  0.6508444  3
    367    370    379    388     1  0.0000000  0.6508444  3
    373    385    838    829     1  180.0000771  0.4184000  2
    373    385    838    829     1  0.0000000  1.6024720  3
    376    382    808    799     1  180.0000771  0.4184000  2
    376    382    808    799     1  0.0000000  1.6024720  3
    382    808    799    790     1  180.0000771  0.4184000  2
    382    808    799    790     1  0.0000000  1.6024720  3
    385    838    829    820     1  180.0000771  0.4184000  2
    385    838    829    820     1  0.0000000  1.6024720  3
    390    391    403    415     1  0.0000000  0.6508444  3
    390    394    406    412     1  0.0000000  0.6508444  3
    390    397    400    409     1  0.0000000  0.6508444  3
    391    390    394    406     1  0.0000000  0.6508444  3
    391    390    397    400     1  0.0000000  0.6508444  3
    391    403    415    898     1  0.0000000  0.6508444  3
    394    390    391    403     1  0.0000000  0.6508444  3
    394    390    397    400     1  0.0000000  0.6508444  3
    394    406    412    868     1  0.0000000  0.6508444  3
    397    390    391    403     1  0.0000000  0.6508444  3
    397    390    394    406     1  0.0000000  0.6508444  3
    397    400    409    418     1  0.0000000  0.6508444  3
    403    415    898    889     1  180.0000771  0.4184000  2
    403    415    898    889     1  0.0000000  1.6024720  3
    406    412    868    859     1  180.0000771  0.4184000  2
    406    412    868    859     1  0.0000000  1.6024720  3
    412    868    859    850     1  180.0000771  0.4184000  2
    412    868    859    850     1  0.0000000  1.6024720  3
    415    898    889    880     1  180.0000771  0.4184000  2
    415    898    889    880     1  0.0000000  1.6024720  3
    420    421    433    445     1  0.0000000  0.6508444  3
    420    424    436    442     1  0.0000000  0.6508444  3
    420    427    430    439     1  0.0000000  0.6508444  3
    421    420    424    436     1  0.0000000  0.6508444  3
    421    420    427    430     1  0.0000000  0.6508444  3
    421    433    445    958     1  0.0000000  0.6508444  3
    424    420    421    433     1  0.0000000  0.6508444  3
    424    420    427    430     1  0.0000000  0.6508444  3
    424    436    442    928     1  0.0000000  0.6508444  3
    427    420    421    433     1  0.0000000  0.6508444  3
    427    420    424    436     1  0.0000000  0.6508444  3
    427    430    439    448     1  0.0000000  0.6508444  3
    433    445    958    949     1  180.0000771  0.4184000  2
    433    445    958    949     1  0.0000000  1.6024720  3
    436    442    928    919     1  180.0000771  0.4184000  2
    436    442    928    919     1  0.0000000  1.6024720  3
    442    928    919    910     1  180.0000771  0.4184000  2
    442    928    919    910     1  0.0000000  1.6024720  3
    445    958    949    940     1  180.0000771  0.4184000  2
    445    958    949    940     1  0.0000000  1.6024720  3
    450    451    463    475     1  0.0000000  0.6508444  3
    450    454    466    472     1  0.0000000  0.6508444  3
    450    457    460    469     1  0.0000000  0.6508444  3
    451    450    454    466     1  0.0000000  0.6508444  3
    451    450    457    460     1  0.0000000  0.6508444  3
    451    463    475   1018     1  0.0000000  0.6508444  3
    454    450    451    463     1  0.0000000  0.6508444  3
    454    450    457    460     1  0.0000000  0.6508444  3
    454    466    472    988     1  0.0000000  0.6508444  3
    457    450    451    463     1  0.0000000  0.6508444  3
    457    450    454    466     1  0.0000000  0.6508444  3
    457    460    469    478     1  0.0000000  0.6508444  3
    463    475   1018   1009     1  180.0000771  0.4184000  2
    463    475   1018   1009     1  0.0000000  1.6024720  3
    466    472    988    979     1  180.0000771  0.4184000  2
    466    472    988    979     1  0.0000000  1.6024720  3
    472    988    979    970     1  180.0000771  0.4184000  2
    472    988    979    970     1  0.0000000  1.6024720  3
    475   1018   1009   1000     1  180.0000771  0.4184000  2
    475   1018   1009   1000     1  0.0000000  1.6024720  3
    480    481    493    505     1  0.0000000  0.6508444  3
    480    484    496    502     1  0.0000000  0.6508444  3
    480    487    490    499     1  0.0000000  0.6508444  3
    481    480    484    496     1  0.0000000  0.6508444  3
    481    480    487    490     1  0.0000000  0.6508444  3
    481    493    505   1078     1  0.0000000  0.6508444  3
    484    480    481    493     1  0.0000000  0.6508444  3
    484    480    487    490     1  0.0000000  0.6508444  3
    484    496    502   1048     1  0.0000000  0.6508444  3
    487    480    481    493     1  0.0000000  0.6508444  3
    487    480    484    496     1  0.0000000  0.6508444  3
    487    490    499    508     1  0.0000000  0.6508444  3
    493    505   1078   1069     1  180.0000771  0.4184000  2
    493    505   1078   1069     1  0.0000000  1.6024720  3
    496    502   1048   1039     1  180.0000771  0.4184000  2
    496    502   1048   1039     1  0.0000000  1.6024720  3
    502   1048   1039   1030     1  180.0000771  0.4184000  2
    502   1048   1039   1030     1  0.0000000  1.6024720  3
    505   1078   1069   1060     1  180.0000771  0.4184000  2
    505   1078   1069   1060     1  0.0000000  1.6024720  3
    510    511    523    535     1  0.0000000  0.6508444  3
    510    514    526    532     1  0.0000000  0.6508444  3
    510    517    520    529     1  0.0000000  0.6508444  3
    511    510    514    526     1  0.0000000  0.6508444  3
    511    510    517    520     1  0.0000000  0.6508444  3
    511    523    535   1138     1  0.0000000  0.6508444  3
    514    510    511    523     1  0.0000000  0.6508444  3
    514    510    517    520     1  0.0000000  0.6508444  3
    514    526    532   1108     1  0.0000000  0.6508444  3
    517    510    511    523     1  0.0000000  0.6508444  3
    517    510    514    526     1  0.0000000  0.6508444  3
    517    520    529    538     1  0.0000000  0.6508444  3
    523    535   1138   1129     1  180.0000771  0.4184000  2
    523    535   1138   1129     1  0.0000000  1.6024720  3
    526    532   1108   1099     1  180.0000771  0.4184000  2
    526    532   1108   1099     1  0.0000000  1.6024720  3
    532   1108   1099   1090     1  180.0000771  0.4184000  2
    532   1108   1099   1090     1  0.0000000  1.6024720  3
    535   1138   1129   1120     1  180.0000771  0.4184000  2
    535   1138   1129   1120     1  0.0000000  1.6024720  3
    540    541    553    565     1  0.0000000  0.6508444  3
    540    544    556    562     1  0.0000000  0.6508444  3
    540    547    550    559     1  0.0000000  0.6508444  3
    541    540    544    556     1  0.0000000  0.6508444  3
    541    540    547    550     1  0.0000000  0.6508444  3
    541    553    565   1198     1  0.0000000  0.6508444  3
    544    540    541    553     1  0.0000000  0.6508444  3
    544    540    547    550     1  0.0000000  0.6508444  3
    544    556    562   1168     1  0.0000000  0.6508444  3
    547    540    541    553     1  0.0000000  0.6508444  3
    547    540    544    556     1  0.0000000  0.6508444  3
    547    550    559    568     1  0.0000000  0.6508444  3
    553    565   1198   1189     1  180.0000771  0.4184000  2
    553    565   1198   1189     1  0.0000000  1.6024720  3
    556    562   1168   1159     1  180.0000771  0.4184000  2
    556    562   1168   1159     1  0.0000000  1.6024720  3
    562   1168   1159   1150     1  180.0000771  0.4184000  2
    562   1168   1159   1150     1  0.0000000  1.6024720  3
    565   1198   1189   1180     1  180.0000771  0.4184000  2
    565   1198   1189   1180     1  0.0000000  1.6024720  3
    570    571    583    595     1  0.0000000  0.6508444  3
    570    574    586    592     1  0.0000000  0.6508444  3
    570    577    580    589     1  0.0000000  0.6508444  3
    571    570    574    586     1  0.0000000  0.6508444  3
    571    570    577    580     1  0.0000000  0.6508444  3
    571    583    595   1258     1  0.0000000  0.6508444  3
    574    570    571    583     1  0.0000000  0.6508444  3
    574    570    577    580     1  0.0000000  0.6508444  3
    574    586    592   1228     1  0.0000000  0.6508444  3
    577    570    571    583     1  0.0000000  0.6508444  3
    577    570    574    586     1  0.0000000  0.6508444  3
    577    580    589    598     1  0.0000000  0.6508444  3
    583    595   1258   1249     1  180.0000771  0.4184000  2
    583    595   1258   1249     1  0.0000000  1.6024720  3
    586    592   1228   1219     1  180.0000771  0.4184000  2
    586    592   1228   1219     1  0.0000000  1.6024720  3
    592   1228   1219   1210     1  180.0000771  0.4184000  2
    592   1228   1219   1210     1  0.0000000  1.6024720  3
    595   1258   1249   1240     1  180.0000771  0.4184000  2
    595   1258   1249   1240     1  0.0000000  1.6024720  3
    600    601    613    625     1  0.0000000  0.6508444  3
    600    604    616    622     1  0.0000000  0.6508444  3
    600    607    610    619     1  0.0000000  0.6508444  3
    601    600    604    616     1  0.0000000  0.6508444  3
    601    600    607    610     1  0.0000000  0.6508444  3
    601    613    625   1318     1  0.0000000  0.6508444  3
    604    600    601    613     1  0.0000000  0.6508444  3
    604    600    607    610     1  0.0000000  0.6508444  3
    604    616    622   1288     1  0.0000000  0.6508444  3
    607    600    601    613     1  0.0000000  0.6508444  3
    607    600    604    616     1  0.0000000  0.6508444  3
    607    610    619    628     1  0.0000000  0.6508444  3
    613    625   1318   1309     1  180.0000771  0.4184000  2
    613    625   1318   1309     1  0.0000000  1.6024720  3
    616    622   1288   1279     1  180.0000771  0.4184000  2
    616    622   1288   1279     1  0.0000000  1.6024720  3
    622   1288   1279   1270     1  180.0000771  0.4184000  2
    622   1288   1279   1270     1  0.0000000  1.6024720  3
    625   1318   1309   1300     1  180.0000771  0.4184000  2
    625   1318   1309   1300     1  0.0000000  1.6024720  3
    630    631    643    655     1  0.0000000  0.6508444  3
    630    634    646    652     1  0.0000000  0.6508444  3
    630    637    640    649     1  0.0000000  0.6508444  3
    631    630    634    646     1  0.0000000  0.6508444  3
    631    630    637    640     1  0.0000000  0.6508444  3
    631    643    655   1378     1  0.0000000  0.6508444  3
    634    630    631    643     1  0.0000000  0.6508444  3
    634    630    637    640     1  0.0000000  0.6508444  3
    634    646    652   1348     1  0.0000000  0.6508444  3
    637    630    631    643     1  0.0000000  0.6508444  3
    637    630    634    646     1  0.0000000  0.6508444  3
    637    640    649    658     1  0.0000000  0.6508444  3
    643    655   1378   1369     1  180.0000771  0.4184000  2
    643    655   1378   1369     1  0.0000000  1.6024720  3
    646    652   1348   1339     1  180.0000771  0.4184000  2
    646    652   1348   1339     1  0.0000000  1.6024720  3
    652   1348   1339   1330     1  180.0000771  0.4184000  2
    652   1348   1339   1330     1  0.0000000  1.6024720  3
    655   1378   1369   1360     1  180.0000771  0.4184000  2
    655   1378   1369   1360     1  0.0000000  1.6024720  3
    660    661    673    685     1  0.0000000  0.6508444  3
    660    664    676    682     1  0.0000000  0.6508444  3
    660    667    670    679     1  0.0000000  0.6508444  3
    661    660    664    676     1  0.0000000  0.6508444  3
    661    660    667    670     1  0.0000000  0.6508444  3
    661    673    685   1438     1  0.0000000  0.6508444  3
    664    660    661    673     1  0.0000000  0.6508444  3
    664    660    667    670     1  0.0000000  0.6508444  3
    664    676    682   1408     1  0.0000000  0.6508444  3
    667    660    661    673     1  0.0000000  0.6508444  3
    667    660    664    676     1  0.0000000  0.6508444  3
    667    670    679    688     1  0.0000000  0.6508444  3
    673    685   1438   1429     1  180.0000771  0.4184000  2
    673    685   1438   1429     1  0.0000000  1.6024720  3
    676    682   1408   1399     1  180.0000771  0.4184000  2
    676    682   1408   1399     1  0.0000000  1.6024720  3
    682   1408   1399   1390     1  180.0000771  0.4184000  2
    682   1408   1399   1390     1  0.0000000  1.6024720  3
    685   1438   1429   1420     1  180.0000771  0.4184000  2
    685   1438   1429   1420     1  0.0000000  1.6024720  3
    690    691    703    715     1  0.0000000  0.6508444  3
    690    694    706    712     1  0.0000000  0.6508444  3
    690    697    700    709     1  0.0000000  0.6508444  3
    691    690    694    706     1  0.0000000  0.6508444  3
    691    690    697    700     1  0.0000000  0.6508444  3
    691    703    715   1498     1  0.0000000  0.6508444  3
    694    690    691    703     1  0.0000000  0.6508444  3
    694    690    697    700     1  0.0000000  0.6508444  3
    694    706    712   1468     1  0.0000000  0.6508444  3
    697    690    691    703     1  0.0000000  0.6508444  3
    697    690    694    706     1  0.0000000  0.6508444  3
    697    700    709    718     1  0.0000000  0.6508444  3
    703    715   1498   1489     1  180.0000771  0.4184000  2
    703    715   1498   1489     1  0.0000000  1.6024720  3
    706    712   1468   1459     1  180.0000771  0.4184000  2
    706    712   1468   1459     1  0.0000000  1.6024720  3
    712   1468   1459   1450     1  180.0000771  0.4184000  2
    712   1468   1459   1450     1  0.0000000  1.6024720  3
    715   1498   1489   1480     1  180.0000771  0.4184000  2
    715   1498   1489   1480     1  0.0000000  1.6024720  3
    720    721    733    745     1  0.0000000  0.6508444  3
    720    724    736    742     1  0.0000000  0.6508444  3
    720    727    730    739     1  0.0000000  0.6508444  3
    721    720    724    736     1  0.0000000  0.6508444  3
    721    720    727    730     1  0.0000000  0.6508444  3
    721    733    745   1558     1  0.0000000  0.6508444  3
    724    720    721    733     1  0.0000000  0.6508444  3
    724    720    727    730     1  0.0000000  0.6508444  3
    724    736    742   1528     1  0.0000000  0.6508444  3
    727    720    721    733     1  0.0000000  0.6508444  3
    727    720    724    736     1  0.0000000  0.6508444  3
    727    730    739    748     1  0.0000000  0.6508444  3
    733    745   1558   1549     1  180.0000771  0.4184000  2
    733    745   1558   1549     1  0.0000000  1.6024720  3
    736    742   1528   1519     1  180.0000771  0.4184000  2
    736    742   1528   1519     1  0.0000000  1.6024720  3
    742   1528   1519   1510     1  180.0000771  0.4184000  2
    742   1528   1519   1510     1  0.0000000  1.6024720  3
    745   1558   1549   1540     1  180.0000771  0.4184000  2
    745   1558   1549   1540     1  0.0000000  1.6024720  3
    750    751    763    775     1  0.0000000  0.6508444  3
    750    754    766    772     1  0.0000000  0.6508444  3
    750    757    760    769     1  0.0000000  0.6508444  3
    751    750    754    766     1  0.0000000  0.6508444  3
    751    750    757    760     1  0.0000000  0.6508444  3
    751    763    775   1618     1  0.0000000  0.6508444  3
    754    750    751    763     1  0.0000000  0.6508444  3
    754    750    757    760     1  0.0000000  0.6508444  3
    754    766    772   1588     1  0.0000000  0.6508444  3
    757    750    751    763     1  0.0000000  0.6508444  3
    757    750    754    766     1  0.0000000  0.6508444  3
    757    760    769    778     1  0.0000000  0.6508444  3
    763    775   1618   1609     1  180.0000771  0.4184000  2
    763    775   1618   1609     1  0.0000000  1.6024720  3
    766    772   1588   1579     1  180.0000771  0.4184000  2
    766    772   1588   1579     1  0.0000000  1.6024720  3
    772   1588   1579   1570     1  180.0000771  0.4184000  2
    772   1588   1579   1570     1  0.0000000  1.6024720  3
    775   1618   1609   1600     1  180.0000771  0.4184000  2
    775   1618   1609   1600     1  0.0000000  1.6024720  3
    780    781    793    805     1  0.0000000  0.6508444  3
    780    784    796    802     1  0.0000000  0.6508444  3
    780    787    790    799     1  0.0000000  0.6508444  3
    781    780    784    796     1  0.0000000  0.6508444  3
    781    780    787    790     1  0.0000000  0.6508444  3
    781    793    805   1678     1  0.0000000  0.6508444  3
    784    780    781    793     1  0.0000000  0.6508444  3
    784    780    787    790     1  0.0000000  0.6508444  3
    784    796    802   1648     1  0.0000000  0.6508444  3
    787    780    781    793     1  0.0000000  0.6508444  3
    787    780    784    796     1  0.0000000  0.6508444  3
    787    790    799    808     1  0.0000000  0.6508444  3
    793    805   1678   1669     1  180.0000771  0.4184000  2
    793    805   1678   1669     1  0.0000000  1.6024720  3
    796    802   1648   1639     1  180.0000771  0.4184000  2
    796    802   1648   1639     1  0.0000000  1.6024720  3
    802   1648   1639   1630     1  180.0000771  0.4184000  2
    802   1648   1639   1630     1  0.0000000  1.6024720  3
    805   1678   1669   1660     1  180.0000771  0.4184000  2
    805   1678   1669   1660     1  0.0000000  1.6024720  3
    810    811    823    835     1  0.0000000  0.6508444  3
    810    814    826    832     1  0.0000000  0.6508444  3
    810    817    820    829     1  0.0000000  0.6508444  3
    811    810    814    826     1  0.0000000  0.6508444  3
    811    810    817    820     1  0.0000000  0.6508444  3
    811    823    835   1738     1  0.0000000  0.6508444  3
    814    810    811    823     1  0.0000000  0.6508444  3
    814    810    817    820     1  0.0000000  0.6508444  3
    814    826    832   1708     1  0.0000000  0.6508444  3
    817    810    811    823     1  0.0000000  0.6508444  3
    817    810    814    826     1  0.0000000  0.6508444  3
    817    820    829    838     1  0.0000000  0.6508444  3
    823    835   1738   1729     1  180.0000771  0.4184000  2
    823    835   1738   1729     1  0.0000000  1.6024720  3
    826    832   1708   1699     1  180.0000771  0.4184000  2
    826    832   1708   1699     1  0.0000000  1.6024720  3
    832   1708   1699   1690     1  180.0000771  0.4184000  2
    832   1708   1699   1690     1  0.0000000  1.6024720  3
    835   1738   1729   1720     1  180.0000771  0.4184000  2
    835   1738   1729   1720     1  0.0000000  1.6024720  3
    840    841    853    865     1  0.0000000  0.6508444  3
    840    844    856    862     1  0.0000000  0.6508444  3
    840    847    850    859     1  0.0000000  0.6508444  3
    841    840    844    856     1  0.0000000  0.6508444  3
    841    840    847    850     1  0.0000000  0.6508444  3
    841    853    865   1798     1  0.0000000  0.6508444  3
    844    840    841    853     1  0.0000000  0.6508444  3
    844    840    847    850     1  0.0000000  0.6508444  3
    844    856    862   1768     1  0.0000000  0.6508444  3
    847    840    841    853     1  0.0000000  0.6508444  3
    847    840    844    856     1  0.0000000  0.6508444  3
    847    850    859    868     1  0.0000000  0.6508444  3
    853    865   1798   1789     1  180.0000771  0.4184000  2
    853    865   1798   1789     1  0.0000000  1.6024720  3
    856    862   1768   1759     1  180.0000771  0.4184000  2
    856    862   1768   1759     1  0.0000000  1.6024720  3
    862   1768   1759   1750     1  180.0000771  0.4184000  2
    862   1768   1759   1750     1  0.0000000  1.6024720  3
    865   1798   1789   1780     1  180.0000771  0.4184000  2
    865   1798   1789   1780     1  0.0000000  1.6024720  3
    870    871    883    895     1  0.0000000  0.6508444  3
    870    874    886    892     1  0.0000000  0.6508444  3
    870    877    880    889     1  0.0000000  0.6508444  3
    871    870    874    886     1  0.0000000  0.6508444  3
    871    870    877    880     1  0.0000000  0.6508444  3
    871    883    895   1858     1  0.0000000  0.6508444  3
    874    870    871    883     1  0.0000000  0.6508444  3
    874    870    877    880     1  0.0000000  0.6508444  3
    874    886    892   1828     1  0.0000000  0.6508444  3
    877    870    871    883     1  0.0000000  0.6508444  3
    877    870    874    886     1  0.0000000  0.6508444  3
    877    880    889    898     1  0.0000000  0.6508444  3
    883    895   1858   1849     1  180.0000771  0.4184000  2
    883    895   1858   1849     1  0.0000000  1.6024720  3
    886    892   1828   1819     1  180.0000771  0.4184000  2
    886    892   1828   1819     1  0.0000000  1.6024720  3
    892   1828   1819   1810     1  180.0000771  0.4184000  2
    892   1828   1819   1810     1  0.0000000  1.6024720  3
    895   1858   1849   1840     1  180.0000771  0.4184000  2
    895   1858   1849   1840     1  0.0000000  1.6024720  3
    900    901    913    925     1  0.0000000  0.6508444  3
    900    904    916    922     1  0.0000000  0.6508444  3
    900    907    910    919     1  0.0000000  0.6508444  3
    901    900    904    916     1  0.0000000  0.6508444  3
    901    900    907    910     1  0.0000000  0.6508444  3
    901    913    925   1918     1  0.0000000  0.6508444  3
    904    900    901    913     1  0.0000000  0.6508444  3
    904    900    907    910     1  0.0000000  0.6508444  3
    904    916    922   1888     1  0.0000000  0.6508444  3
    907    900    901    913     1  0.0000000  0.6508444  3
    907    900    904    916     1  0.0000000  0.6508444  3
    907    910    919    928     1  0.0000000  0.6508444  3
    913    925   1918   1909     1  180.0000771  0.4184000  2
    913    925   1918   1909     1  0.0000000  1.6024720  3
    916    922   1888   1879     1  180.0000771  0.4184000  2
    916    922   1888   1879     1  0.0000000  1.6024720  3
    922   1888   1879   1870     1  180.0000771  0.4184000  2
    922   1888   1879   1870     1  0.0000000  1.6024720  3
    925   1918   1909   1900     1  180.0000771  0.4184000  2
    925   1918   1909   1900     1  0.0000000  1.6024720  3
    930    931    943    955     1  0.0000000  0.6508444  3
    930    934    946    952     1  0.0000000  0.6508444  3
    930    937    940    949     1  0.0000000  0.6508444  3
    931    930    934    946     1  0.0000000  0.6508444  3
    931    930    937    940     1  0.0000000  0.6508444  3
    931    943    955   1978     1  0.0000000  0.6508444  3
    934    930    931    943     1  0.0000000  0.6508444  3
    934    930    937    940     1  0.0000000  0.6508444  3
    934    946    952   1948     1  0.0000000  0.6508444  3
    937    930    931    943     1  0.0000000  0.6508444  3
    937    930    934    946     1  0.0000000  0.6508444  3
    937    940    949    958     1  0.0000000  0.6508444  3
    943    955   1978   1969     1  180.0000771  0.4184000  2
    943    955   1978   1969     1  0.0000000  1.6024720  3
    946    952   1948   1939     1  180.0000771  0.4184000  2
    946    952   1948   1939     1  0.0000000  1.6024720  3
    952   1948   1939   1930     1  180.0000771  0.4184000  2
    952   1948   1939   1930     1  0.0000000  1.6024720  3
    955   1978   1969   1960     1  180.0000771  0.4184000  2
    955   1978   1969   1960     1  0.0000000  1.6024720  3
    960    961    973    985     1  0.0000000  0.6508444  3
    960    964    976    982     1  0.0000000  0.6508444  3
    960    967    970    979     1  0.0000000  0.6508444  3
    961    960    964    976     1  0.0000000  0.6508444  3
    961    960    967    970     1  0.0000000  0.6508444  3
    961    973    985   2038     1  0.0000000  0.6508444  3
    964    960    961    973     1  0.0000000  0.6508444  3
    964    960    967    970     1  0.0000000  0.6508444  3
    964    976    982   2008     1  0.0000000  0.6508444  3
    967    960    961    973     1  0.0000000  0.6508444  3
    967    960    964    976     1  0.0000000  0.6508444  3
    967    970    979    988     1  0.0000000  0.6508444  3
    973    985   2038   2029     1  180.0000771  0.4184000  2
    973    985   2038   2029     1  0.0000000  1.6024720  3
    976    982   2008   1999     1  180.0000771  0.4184000  2
    976    982   2008   1999     1  0.0000000  1.6024720  3
    982   2008   1999   1990     1  180.0000771  0.4184000  2
    982   2008   1999   1990     1  0.0000000  1.6024720  3
    985   2038   2029   2020     1  180.0000771  0.4184000  2
    985   2038   2029   2020     1  0.0000000  1.6024720  3
    990    991   1003   1015     1  0.0000000  0.6508444  3
    990    994   1006   1012     1  0.0000000  0.6508444  3
    990    997   1000   1009     1  0.0000000  0.6508444  3
    991    990    994   1006     1  0.0000000  0.6508444  3
    991    990    997   1000     1  0.0000000  0.6508444  3
    991   1003   1015   2098     1  0.0000000  0.6508444  3
    994    990    991   1003     1  0.0000000  0.6508444  3
    994    990    997   1000     1  0.0000000  0.6508444  3
    994   1006   1012   2068     1  0.0000000  0.6508444  3
    997    990    991   1003     1  0.0000000  0.6508444  3
    997    990    994   1006     1  0.0000000  0.6508444  3
    997   1000   1009   1018     1  0.0000000  0.6508444  3
   1003   1015   2098   2089     1  180.0000771  0.4184000  2
   1003   1015   2098   2089     1  0.0000000  1.6024720  3
   1006   1012   2068   2059     1  180.0000771  0.4184000  2
   1006   1012   2068   2059     1  0.0000000  1.6024720  3
   1012   2068   2059   2050     1  180.0000771  0.4184000  2
   1012   2068   2059   2050     1  0.0000000  1.6024720  3
   1015   2098   2089   2080     1  180.0000771  0.4184000  2
   1015   2098   2089   2080     1  0.0000000  1.6024720  3
   1020   1021   1033   1045     1  0.0000000  0.6508444  3
   1020   1024   1036   1042     1  0.0000000  0.6508444  3
   1020   1027   1030   1039     1  0.0000000  0.6508444  3
   1021   1020   1024   1036     1  0.0000000  0.6508444  3
   1021   1020   1027   1030     1  0.0000000  0.6508444  3
   1021   1033   1045   2158     1  0.0000000  0.6508444  3
   1024   1020   1021   1033     1  0.0000000  0.6508444  3
   1024   1020   1027   1030     1  0.0000000  0.6508444  3
   1024   1036   1042   2128     1  0.0000000  0.6508444  3
   1027   1020   1021   1033     1  0.0000000  0.6508444  3
   1027   1020   1024   1036     1  0.0000000  0.6508444  3
   1027   1030   1039   1048     1  0.0000000  0.6508444  3
   1033   1045   2158   2149     1  180.0000771  0.4184000  2
   1033   1045   2158   2149     1  0.0000000  1.6024720  3
   1036   1042   2128   2119     1  180.0000771  0.4184000  2
   1036   1042   2128   2119     1  0.0000000  1.6024720  3
   1042   2128   2119   2110     1  180.0000771  0.4184000  2
   1042   2128   2119   2110     1  0.0000000  1.6024720  3
   1045   2158   2149   2140     1  180.0000771  0.4184000  2
   1045   2158   2149   2140     1  0.0000000  1.6024720  3
   1050   1051   1063   1075     1  0.0000000  0.6508444  3
   1050   1054   1066   1072     1  0.0000000  0.6508444  3
   1050   1057   1060   1069     1  0.0000000  0.6508444  3
   1051   1050   1054   1066     1  0.0000000  0.6508444  3
   1051   1050   1057   1060     1  0.0000000  0.6508444  3
   1051   1063   1075   2218     1  0.0000000  0.6508444  3
   1054   1050   1051   1063     1  0.0000000  0.6508444  3
   1054   1050   1057   1060     1  0.0000000  0.6508444  3
   1054   1066   1072   2188     1  0.0000000  0.6508444  3
   1057   1050   1051   1063     1  0.0000000  0.6508444  3
   1057   1050   1054   1066     1  0.0000000  0.6508444  3
   1057   1060   1069   1078     1  0.0000000  0.6508444  3
   1063   1075   2218   2209     1  180.0000771  0.4184000  2
   1063   1075   2218   2209     1  0.0000000  1.6024720  3
   1066   1072   2188   2179     1  180.0000771  0.4184000  2
   1066   1072   2188   2179     1  0.0000000  1.6024720  3
   1072   2188   2179   2170     1  180.0000771  0.4184000  2
   1072   2188   2179   2170     1  0.0000000  1.6024720  3
   1075   2218   2209   2200     1  180.0000771  0.4184000  2
   1075   2218   2209   2200     1  0.0000000  1.6024720  3
   1080   1081   1093   1105     1  0.0000000  0.6508444  3
   1080   1084   1096   1102     1  0.0000000  0.6508444  3
   1080   1087   1090   1099     1  0.0000000  0.6508444  3
   1081   1080   1084   1096     1  0.0000000  0.6508444  3
   1081   1080   1087   1090     1  0.0000000  0.6508444  3
   1081   1093   1105   2278     1  0.0000000  0.6508444  3
   1084   1080   1081   1093     1  0.0000000  0.6508444  3
   1084   1080   1087   1090     1  0.0000000  0.6508444  3
   1084   1096   1102   2248     1  0.0000000  0.6508444  3
   1087   1080   1081   1093     1  0.0000000  0.6508444  3
   1087   1080   1084   1096     1  0.0000000  0.6508444  3
   1087   1090   1099   1108     1  0.0000000  0.6508444  3
   1093   1105   2278   2269     1  180.0000771  0.4184000  2
   1093   1105   2278   2269     1  0.0000000  1.6024720  3
   1096   1102   2248   2239     1  180.0000771  0.4184000  2
   1096   1102   2248   2239     1  0.0000000  1.6024720  3
   1102   2248   2239   2230     1  180.0000771  0.4184000  2
   1102   2248   2239   2230     1  0.0000000  1.6024720  3
   1105   2278   2269   2260     1  180.0000771  0.4184000  2
   1105   2278   2269   2260     1  0.0000000  1.6024720  3
   1110   1111   1123   1135     1  0.0000000  0.6508444  3
   1110   1114   1126   1132     1  0.0000000  0.6508444  3
   1110   1117   1120   1129     1  0.0000000  0.6508444  3
   1111   1110   1114   1126     1  0.0000000  0.6508444  3
   1111   1110   1117   1120     1  0.0000000  0.6508444  3
   1111   1123   1135   2338     1  0.0000000  0.6508444  3
   1114   1110   1111   1123     1  0.0000000  0.6508444  3
   1114   1110   1117   1120     1  0.0000000  0.6508444  3
   1114   1126   1132   2308     1  0.0000000  0.6508444  3
   1117   1110   1111   1123     1  0.0000000  0.6508444  3
   1117   1110   1114   1126     1  0.0000000  0.6508444  3
   1117   1120   1129   1138     1  0.0000000  0.6508444  3
   1123   1135   2338   2329     1  180.0000771  0.4184000  2
   1123   1135   2338   2329     1  0.0000000  1.6024720  3
   1126   1132   2308   2299     1  180.0000771  0.4184000  2
   1126   1132   2308   2299     1  0.0000000  1.6024720  3
   1132   2308   2299   2290     1  180.0000771  0.4184000  2
   1132   2308   2299   2290     1  0.0000000  1.6024720  3
   1135   2338   2329   2320     1  180.0000771  0.4184000  2
   1135   2338   2329   2320     1  0.0000000  1.6024720  3
   1140   1141   1153   1165     1  0.0000000  0.6508444  3
   1140   1144   1156   1162     1  0.0000000  0.6508444  3
   1140   1147   1150   1159     1  0.0000000  0.6508444  3
   1141   1140   1144   1156     1  0.0000000  0.6508444  3
   1141   1140   1147   1150     1  0.0000000  0.6508444  3
   1141   1153   1165   2398     1  0.0000000  0.6508444  3
   1144   1140   1141   1153     1  0.0000000  0.6508444  3
   1144   1140   1147   1150     1  0.0000000  0.6508444  3
   1144   1156   1162   2368     1  0.0000000  0.6508444  3
   1147   1140   1141   1153     1  0.0000000  0.6508444  3
   1147   1140   1144   1156     1  0.0000000  0.6508444  3
   1147   1150   1159   1168     1  0.0000000  0.6508444  3
   1153   1165   2398   2389     1  180.0000771  0.4184000  2
   1153   1165   2398   2389     1  0.0000000  1.6024720  3
   1156   1162   2368   2359     1  180.0000771  0.4184000  2
   1156   1162   2368   2359     1  0.0000000  1.6024720  3
   1162   2368   2359   2350     1  180.0000771  0.4184000  2
   1162   2368   2359   2350     1  0.0000000  1.6024720  3
   1165   2398   2389   2380     1  180.0000771  0.4184000  2
   1165   2398   2389   2380     1  0.0000000  1.6024720  3
   1170   1171   1183   1195     1  0.0000000  0.6508444  3
   1170   1174   1186   1192     1  0.0000000  0.6508444  3
   1170   1177   1180   1189     1  0.0000000  0.6508444  3
   1171   1170   1174   1186     1  0.0000000  0.6508444  3
   1171   1170   1177   1180     1  0.0000000  0.6508444  3
   1171   1183   1195   2458     1  0.0000000  0.6508444  3
   1174   1170   1171   1183     1  0.0000000  0.6508444  3
   1174   1170   1177   1180     1  0.0000000  0.6508444  3
   1174   1186   1192   2428     1  0.0000000  0.6508444  3
   1177   1170   1171   1183     1  0.0000000  0.6508444  3
   1177   1170   1174   1186     1  0.0000000  0.6508444  3
   1177   1180   1189   1198     1  0.0000000  0.6508444  3
   1183   1195   2458   2449     1  180.0000771  0.4184000  2
   1183   1195   2458   2449     1  0.0000000  1.6024720  3
   1186   1192   2428   2419     1  180.0000771  0.4184000  2
   1186   1192   2428   2419     1  0.0000000  1.6024720  3
   1192   2428   2419   2410     1  180.0000771  0.4184000  2
   1192   2428   2419   2410     1  0.0000000  1.6024720  3
   1195   2458   2449   2440     1  180.0000771  0.4184000  2
   1195   2458   2449   2440     1  0.0000000  1.6024720  3
   1200   1201   1213   1225     1  0.0000000  0.6508444  3
   1200   1204   1216   1222     1  0.0000000  0.6508444  3
   1200   1207   1210   1219     1  0.0000000  0.6508444  3
   1201   1200   1204   1216     1  0.0000000  0.6508444  3
   1201   1200   1207   1210     1  0.0000000  0.6508444  3
   1201   1213   1225   2518     1  0.0000000  0.6508444  3
   1204   1200   1201   1213     1  0.0000000  0.6508444  3
   1204   1200   1207   1210     1  0.0000000  0.6508444  3
   1204   1216   1222   2488     1  0.0000000  0.6508444  3
   1207   1200   1201   1213     1  0.0000000  0.6508444  3
   1207   1200   1204   1216     1  0.0000000  0.6508444  3
   1207   1210   1219   1228     1  0.0000000  0.6508444  3
   1213   1225   2518   2509     1  180.0000771  0.4184000  2
   1213   1225   2518   2509     1  0.0000000  1.6024720  3
   1216   1222   2488   2479     1  180.0000771  0.4184000  2
   1216   1222   2488   2479     1  0.0000000  1.6024720  3
   1222   2488   2479   2470     1  180.0000771  0.4184000  2
   1222   2488   2479   2470     1  0.0000000  1.6024720  3
   1225   2518   2509   2500     1  180.0000771  0.4184000  2
   1225   2518   2509   2500     1  0.0000000  1.6024720  3
   1230   1231   1243   1255     1  0.0000000  0.6508444  3
   1230   1234   1246   1252     1  0.0000000  0.6508444  3
   1230   1237   1240   1249     1  0.0000000  0.6508444  3
   1231   1230   1234   1246     1  0.0000000  0.6508444  3
   1231   1230   1237   1240     1  0.0000000  0.6508444  3
   1231   1243   1255   2578     1  0.0000000  0.6508444  3
   1234   1230   1231   1243     1  0.0000000  0.6508444  3
   1234   1230   1237   1240     1  0.0000000  0.6508444  3
   1234   1246   1252   2548     1  0.0000000  0.6508444  3
   1237   1230   1231   1243     1  0.0000000  0.6508444  3
   1237   1230   1234   1246     1  0.0000000  0.6508444  3
   1237   1240   1249   1258     1  0.0000000  0.6508444  3
   1243   1255   2578   2569     1  180.0000771  0.4184000  2
   1243   1255   2578   2569     1  0.0000000  1.6024720  3
   1246   1252   2548   2539     1  180.0000771  0.4184000  2
   1246   1252   2548   2539     1  0.0000000  1.6024720  3
   1252   2548   2539   2530     1  180.0000771  0.4184000  2
   1252   2548   2539   2530     1  0.0000000  1.6024720  3
   1255   2578   2569   2560     1  180.0000771  0.4184000  2
   1255   2578   2569   2560     1  0.0000000  1.6024720  3
   1260   1261   1273   1285     1  0.0000000  0.6508444  3
   1260   1264   1276   1282     1  0.0000000  0.6508444  3
   1260   1267   1270   1279     1  0.0000000  0.6508444  3
   1261   1260   1264   1276     1  0.0000000  0.6508444  3
   1261   1260   1267   1270     1  0.0000000  0.6508444  3
   1261   1273   1285   2638     1  0.0000000  0.6508444  3
   1264   1260   1261   1273     1  0.0000000  0.6508444  3
   1264   1260   1267   1270     1  0.0000000  0.6508444  3
   1264   1276   1282   2608     1  0.0000000  0.6508444  3
   1267   1260   1261   1273     1  0.0000000  0.6508444  3
   1267   1260   1264   1276     1  0.0000000  0.6508444  3
   1267   1270   1279   1288     1  0.0000000  0.6508444  3
   1273   1285   2638   2629     1  180.0000771  0.4184000  2
   1273   1285   2638   2629     1  0.0000000  1.6024720  3
   1276   1282   2608   2599     1  180.0000771  0.4184000  2
   1276   1282   2608   2599     1  0.0000000  1.6024720  3
   1282   2608   2599   2590     1  180.0000771  0.4184000  2
   1282   2608   2599   2590     1  0.0000000  1.6024720  3
   1285   2638   2629   2620     1  180.0000771  0.4184000  2
   1285   2638   2629   2620     1  0.0000000  1.6024720  3
   1290   1291   1303   1315     1  0.0000000  0.6508444  3
   1290   1294   1306   1312     1  0.0000000  0.6508444  3
   1290   1297   1300   1309     1  0.0000000  0.6508444  3
   1291   1290   1294   1306     1  0.0000000  0.6508444  3
   1291   1290   1297   1300     1  0.0000000  0.6508444  3
   1291   1303   1315   2698     1  0.0000000  0.6508444  3
   1294   1290   1291   1303     1  0.0000000  0.6508444  3
   1294   1290   1297   1300     1  0.0000000  0.6508444  3
   1294   1306   1312   2668     1  0.0000000  0.6508444  3
   1297   1290   1291   1303     1  0.0000000  0.6508444  3
   1297   1290   1294   1306     1  0.0000000  0.6508444  3
   1297   1300   1309   1318     1  0.0000000  0.6508444  3
   1303   1315   2698   2689     1  180.0000771  0.4184000  2
   1303   1315   2698   2689     1  0.0000000  1.6024720  3
   1306   1312   2668   2659     1  180.0000771  0.4184000  2
   1306   1312   2668   2659     1  0.0000000  1.6024720  3
   1312   2668   2659   2650     1  180.0000771  0.4184000  2
   1312   2668   2659   2650     1  0.0000000  1.6024720  3
   1315   2698   2689   2680     1  180.0000771  0.4184000  2
   1315   2698   2689   2680     1  0.0000000  1.6024720  3
   1320   1321   1333   1345     1  0.0000000  0.6508444  3
   1320   1324   1336   1342     1  0.0000000  0.6508444  3
   1320   1327   1330   1339     1  0.0000000  0.6508444  3
   1321   1320   1324   1336     1  0.0000000  0.6508444  3
   1321   1320   1327   1330     1  0.0000000  0.6508444  3
   1321   1333   1345   2758     1  0.0000000  0.6508444  3
   1324   1320   1321   1333     1  0.0000000  0.6508444  3
   1324   1320   1327   1330     1  0.0000000  0.6508444  3
   1324   1336   1342   2728     1  0.0000000  0.6508444  3
   1327   1320   1321   1333     1  0.0000000  0.6508444  3
   1327   1320   1324   1336     1  0.0000000  0.6508444  3
   1327   1330   1339   1348     1  0.0000000  0.6508444  3
   1333   1345   2758   2749     1  180.0000771  0.4184000  2
   1333   1345   2758   2749     1  0.0000000  1.6024720  3
   1336   1342   2728   2719     1  180.0000771  0.4184000  2
   1336   1342   2728   2719     1  0.0000000  1.6024720  3
   1342   2728   2719   2710     1  180.0000771  0.4184000  2
   1342   2728   2719   2710     1  0.0000000  1.6024720  3
   1345   2758   2749   2740     1  180.0000771  0.4184000  2
   1345   2758   2749   2740     1  0.0000000  1.6024720  3
   1350   1351   1363   1375     1  0.0000000  0.6508444  3
   1350   1354   1366   1372     1  0.0000000  0.6508444  3
   1350   1357   1360   1369     1  0.0000000  0.6508444  3
   1351   1350   1354   1366     1  0.0000000  0.6508444  3
   1351   1350   1357   1360     1  0.0000000  0.6508444  3
   1351   1363   1375   2818     1  0.0000000  0.6508444  3
   1354   1350   1351   1363     1  0.0000000  0.6508444  3
   1354   1350   1357   1360     1  0.0000000  0.6508444  3
   1354   1366   1372   2788     1  0.0000000  0.6508444  3
   1357   1350   1351   1363     1  0.0000000  0.6508444  3
   1357   1350   1354   1366     1  0.0000000  0.6508444  3
   1357   1360   1369   1378     1  0.0000000  0.6508444  3
   1363   1375   2818   2809     1  180.0000771  0.4184000  2
   1363   1375   2818   2809     1  0.0000000  1.6024720  3
   1366   1372   2788   2779     1  180.0000771  0.4184000  2
   1366   1372   2788   2779     1  0.0000000  1.6024720  3
   1372   2788   2779   2770     1  180.0000771  0.4184000  2
   1372   2788   2779   2770     1  0.0000000  1.6024720  3
   1375   2818   2809   2800     1  180.0000771  0.4184000  2
   1375   2818   2809   2800     1  0.0000000  1.6024720  3
   1380   1381   1393   1405     1  0.0000000  0.6508444  3
   1380   1384   1396   1402     1  0.0000000  0.6508444  3
   1380   1387   1390   1399     1  0.0000000  0.6508444  3
   1381   1380   1384   1396     1  0.0000000  0.6508444  3
   1381   1380   1387   1390     1  0.0000000  0.6508444  3
   1381   1393   1405   2878     1  0.0000000  0.6508444  3
   1384   1380   1381   1393     1  0.0000000  0.6508444  3
   1384   1380   1387   1390     1  0.0000000  0.6508444  3
   1384   1396   1402   2848     1  0.0000000  0.6508444  3
   1387   1380   1381   1393     1  0.0000000  0.6508444  3
   1387   1380   1384   1396     1  0.0000000  0.6508444  3
   1387   1390   1399   1408     1  0.0000000  0.6508444  3
   1393   1405   2878   2869     1  180.0000771  0.4184000  2
   1393   1405   2878   2869     1  0.0000000  1.6024720  3
   1396   1402   2848   2839     1  180.0000771  0.4184000  2
   1396   1402   2848   2839     1  0.0000000  1.6024720  3
   1402   2848   2839   2830     1  180.0000771  0.4184000  2
   1402   2848   2839   2830     1  0.0000000  1.6024720  3
   1405   2878   2869   2860     1  180.0000771  0.4184000  2
   1405   2878   2869   2860     1  0.0000000  1.6024720  3
   1410   1411   1423   1435     1  0.0000000  0.6508444  3
   1410   1414   1426   1432     1  0.0000000  0.6508444  3
   1410   1417   1420   1429     1  0.0000000  0.6508444  3
   1411   1410   1414   1426     1  0.0000000  0.6508444  3
   1411   1410   1417   1420     1  0.0000000  0.6508444  3
   1411   1423   1435   2938     1  0.0000000  0.6508444  3
   1414   1410   1411   1423     1  0.0000000  0.6508444  3
   1414   1410   1417   1420     1  0.0000000  0.6508444  3
   1414   1426   1432   2908     1  0.0000000  0.6508444  3
   1417   1410   1411   1423     1  0.0000000  0.6508444  3
   1417   1410   1414   1426     1  0.0000000  0.6508444  3
   1417   1420   1429   1438     1  0.0000000  0.6508444  3
   1423   1435   2938   2929     1  180.0000771  0.4184000  2
   1423   1435   2938   2929     1  0.0000000  1.6024720  3
   1426   1432   2908   2899     1  180.0000771  0.4184000  2
   1426   1432   2908   2899     1  0.0000000  1.6024720  3
   1432   2908   2899   2890     1  180.0000771  0.4184000  2
   1432   2908   2899   2890     1  0.0000000  1.6024720  3
   1435   2938   2929   2920     1  180.0000771  0.4184000  2
   1435   2938   2929   2920     1  0.0000000  1.6024720  3
   1440   1441   1453   1465     1  0.0000000  0.6508444  3
   1440   1444   1456   1462     1  0.0000000  0.6508444  3
   1440   1447   1450   1459     1  0.0000000  0.6508444  3
   1441   1440   1444   1456     1  0.0000000  0.6508444  3
   1441   1440   1447   1450     1  0.0000000  0.6508444  3
   1441   1453   1465   2998     1  0.0000000  0.6508444  3
   1444   1440   1441   1453     1  0.0000000  0.6508444  3
   1444   1440   1447   1450     1  0.0000000  0.6508444  3
   1444   1456   1462   2968     1  0.0000000  0.6508444  3
   1447   1440   1441   1453     1  0.0000000  0.6508444  3
   1447   1440   1444   1456     1  0.0000000  0.6508444  3
   1447   1450   1459   1468     1  0.0000000  0.6508444  3
   1453   1465   2998   2989     1  180.0000771  0.4184000  2
   1453   1465   2998   2989     1  0.0000000  1.6024720  3
   1456   1462   2968   2959     1  180.0000771  0.4184000  2
   1456   1462   2968   2959     1  0.0000000  1.6024720  3
   1462   2968   2959   2950     1  180.0000771  0.4184000  2
   1462   2968   2959   2950     1  0.0000000  1.6024720  3
   1465   2998   2989   2980     1  180.0000771  0.4184000  2
   1465   2998   2989   2980     1  0.0000000  1.6024720  3
   1470   1471   1483   1495     1  0.0000000  0.6508444  3
   1470   1474   1486   1492     1  0.0000000  0.6508444  3
   1470   1477   1480   1489     1  0.0000000  0.6508444  3
   1471   1470   1474   1486     1  0.0000000  0.6508444  3
   1471   1470   1477   1480     1  0.0000000  0.6508444  3
   1471   1483   1495   3058     1  0.0000000  0.6508444  3
   1474   1470   1471   1483     1  0.0000000  0.6508444  3
   1474   1470   1477   1480     1  0.0000000  0.6508444  3
   1474   1486   1492   3028     1  0.0000000  0.6508444  3
   1477   1470   1471   1483     1  0.0000000  0.6508444  3
   1477   1470   1474   1486     1  0.0000000  0.6508444  3
   1477   1480   1489   1498     1  0.0000000  0.6508444  3
   1483   1495   3058   3049     1  180.0000771  0.4184000  2
   1483   1495   3058   3049     1  0.0000000  1.6024720  3
   1486   1492   3028   3019     1  180.0000771  0.4184000  2
   1486   1492   3028   3019     1  0.0000000  1.6024720  3
   1492   3028   3019   3010     1  180.0000771  0.4184000  2
   1492   3028   3019   3010     1  0.0000000  1.6024720  3
   1495   3058   3049   3040     1  180.0000771  0.4184000  2
   1495   3058   3049   3040     1  0.0000000  1.6024720  3
   1500   1501   1513   1525     1  0.0000000  0.6508444  3
   1500   1504   1516   1522     1  0.0000000  0.6508444  3
   1500   1507   1510   1519     1  0.0000000  0.6508444  3
   1501   1500   1504   1516     1  0.0000000  0.6508444  3
   1501   1500   1507   1510     1  0.0000000  0.6508444  3
   1501   1513   1525   3118     1  0.0000000  0.6508444  3
   1504   1500   1501   1513     1  0.0000000  0.6508444  3
   1504   1500   1507   1510     1  0.0000000  0.6508444  3
   1504   1516   1522   3088     1  0.0000000  0.6508444  3
   1507   1500   1501   1513     1  0.0000000  0.6508444  3
   1507   1500   1504   1516     1  0.0000000  0.6508444  3
   1507   1510   1519   1528     1  0.0000000  0.6508444  3
   1513   1525   3118   3109     1  180.0000771  0.4184000  2
   1513   1525   3118   3109     1  0.0000000  1.6024720  3
   1516   1522   3088   3079     1  180.0000771  0.4184000  2
   1516   1522   3088   3079     1  0.0000000  1.6024720  3
   1522   3088   3079   3070     1  180.0000771  0.4184000  2
   1522   3088   3079   3070     1  0.0000000  1.6024720  3
   1525   3118   3109   3100     1  180.0000771  0.4184000  2
   1525   3118   3109   3100     1  0.0000000  1.6024720  3
   1530   1531   1543   1555     1  0.0000000  0.6508444  3
   1530   1534   1546   1552     1  0.0000000  0.6508444  3
   1530   1537   1540   1549     1  0.0000000  0.6508444  3
   1531   1530   1534   1546     1  0.0000000  0.6508444  3
   1531   1530   1537   1540     1  0.0000000  0.6508444  3
   1531   1543   1555   3178     1  0.0000000  0.6508444  3
   1534   1530   1531   1543     1  0.0000000  0.6508444  3
   1534   1530   1537   1540     1  0.0000000  0.6508444  3
   1534   1546   1552   3148     1  0.0000000  0.6508444  3
   1537   1530   1531   1543     1  0.0000000  0.6508444  3
   1537   1530   1534   1546     1  0.0000000  0.6508444  3
   1537   1540   1549   1558     1  0.0000000  0.6508444  3
   1543   1555   3178   3169     1  180.0000771  0.4184000  2
   1543   1555   3178   3169     1  0.0000000  1.6024720  3
   1546   1552   3148   3139     1  180.0000771  0.4184000  2
   1546   1552   3148   3139     1  0.0000000  1.6024720  3
   1552   3148   3139   3130     1  180.0000771  0.4184000  2
   1552   3148   3139   3130     1  0.0000000  1.6024720  3
   1555   3178   3169   3160     1  180.0000771  0.4184000  2
   1555   3178   3169   3160     1  0.0000000  1.6024720  3
   1560   1561   1573   1585     1  0.0000000  0.6508444  3
   1560   1564   1576   1582     1  0.0000000  0.6508444  3
   1560   1567   1570   1579     1  0.0000000  0.6508444  3
   1561   1560   1564   1576     1  0.0000000  0.6508444  3
   1561   1560   1567   1570     1  0.0000000  0.6508444  3
   1561   1573   1585   3238     1  0.0000000  0.6508444  3
   1564   1560   1561   1573     1  0.0000000  0.6508444  3
   1564   1560   1567   1570     1  0.0000000  0.6508444  3
   1564   1576   1582   3208     1  0.0000000  0.6508444  3
   1567   1560   1561   1573     1  0.0000000  0.6508444  3
   1567   1560   1564   1576     1  0.0000000  0.6508444  3
   1567   1570   1579   1588     1  0.0000000  0.6508444  3
   1573   1585   3238   3229     1  180.0000771  0.4184000  2
   1573   1585   3238   3229     1  0.0000000  1.6024720  3
   1576   1582   3208   3199     1  180.0000771  0.4184000  2
   1576   1582   3208   3199     1  0.0000000  1.6024720  3
   1582   3208   3199   3190     1  180.0000771  0.4184000  2
   1582   3208   3199   3190     1  0.0000000  1.6024720  3
   1585   3238   3229   3220     1  180.0000771  0.4184000  2
   1585   3238   3229   3220     1  0.0000000  1.6024720  3
   1590   1591   1603   1615     1  0.0000000  0.6508444  3
   1590   1594   1606   1612     1  0.0000000  0.6508444  3
   1590   1597   1600   1609     1  0.0000000  0.6508444  3
   1591   1590   1594   1606     1  0.0000000  0.6508444  3
   1591   1590   1597   1600     1  0.0000000  0.6508444  3
   1591   1603   1615   3298     1  0.0000000  0.6508444  3
   1594   1590   1591   1603     1  0.0000000  0.6508444  3
   1594   1590   1597   1600     1  0.0000000  0.6508444  3
   1594   1606   1612   3268     1  0.0000000  0.6508444  3
   1597   1590   1591   1603     1  0.0000000  0.6508444  3
   1597   1590   1594   1606     1  0.0000000  0.6508444  3
   1597   1600   1609   1618     1  0.0000000  0.6508444  3
   1603   1615   3298   3289     1  180.0000771  0.4184000  2
   1603   1615   3298   3289     1  0.0000000  1.6024720  3
   1606   1612   3268   3259     1  180.0000771  0.4184000  2
   1606   1612   3268   3259     1  0.0000000  1.6024720  3
   1612   3268   3259   3250     1  180.0000771  0.4184000  2
   1612   3268   3259   3250     1  0.0000000  1.6024720  3
   1615   3298   3289   3280     1  180.0000771  0.4184000  2
   1615   3298   3289   3280     1  0.0000000  1.6024720  3
   1620   1621   1633   1645     1  0.0000000  0.6508444  3
   1620   1624   1636   1642     1  0.0000000  0.6508444  3
   1620   1627   1630   1639     1  0.0000000  0.6508444  3
   1621   1620   1624   1636     1  0.0000000  0.6508444  3
   1621   1620   1627   1630     1  0.0000000  0.6508444  3
   1621   1633   1645   3358     1  0.0000000  0.6508444  3
   1624   1620   1621   1633     1  0.0000000  0.6508444  3
   1624   1620   1627   1630     1  0.0000000  0.6508444  3
   1624   1636   1642   3328     1  0.0000000  0.6508444  3
   1627   1620   1621   1633     1  0.0000000  0.6508444  3
   1627   1620   1624   1636     1  0.0000000  0.6508444  3
   1627   1630   1639   1648     1  0.0000000  0.6508444  3
   1633   1645   3358   3349     1  180.0000771  0.4184000  2
   1633   1645   3358   3349     1  0.0000000  1.6024720  3
   1636   1642   3328   3319     1  180.0000771  0.4184000  2
   1636   1642   3328   3319     1  0.0000000  1.6024720  3
   1642   3328   3319   3310     1  180.0000771  0.4184000  2
   1642   3328   3319   3310     1  0.0000000  1.6024720  3
   1645   3358   3349   3340     1  180.0000771  0.4184000  2
   1645   3358   3349   3340     1  0.0000000  1.6024720  3
   1650   1651   1663   1675     1  0.0000000  0.6508444  3
   1650   1654   1666   1672     1  0.0000000  0.6508444  3
   1650   1657   1660   1669     1  0.0000000  0.6508444  3
   1651   1650   1654   1666     1  0.0000000  0.6508444  3
   1651   1650   1657   1660     1  0.0000000  0.6508444  3
   1651   1663   1675   3418     1  0.0000000  0.6508444  3
   1654   1650   1651   1663     1  0.0000000  0.6508444  3
   1654   1650   1657   1660     1  0.0000000  0.6508444  3
   1654   1666   1672   3388     1  0.0000000  0.6508444  3
   1657   1650   1651   1663     1  0.0000000  0.6508444  3
   1657   1650   1654   1666     1  0.0000000  0.6508444  3
   1657   1660   1669   1678     1  0.0000000  0.6508444  3
   1663   1675   3418   3409     1  180.0000771  0.4184000  2
   1663   1675   3418   3409     1  0.0000000  1.6024720  3
   1666   1672   3388   3379     1  180.0000771  0.4184000  2
   1666   1672   3388   3379     1  0.0000000  1.6024720  3
   1672   3388   3379   3370     1  180.0000771  0.4184000  2
   1672   3388   3379   3370     1  0.0000000  1.6024720  3
   1675   3418   3409   3400     1  180.0000771  0.4184000  2
   1675   3418   3409   3400     1  0.0000000  1.6024720  3
   1680   1681   1693   1705     1  0.0000000  0.6508444  3
   1680   1684   1696   1702     1  0.0000000  0.6508444  3
   1680   1687   1690   1699     1  0.0000000  0.6508444  3
   1681   1680   1684   1696     1  0.0000000  0.6508444  3
   1681   1680   1687   1690     1  0.0000000  0.6508444  3
   1681   1693   1705   3478     1  0.0000000  0.6508444  3
   1684   1680   1681   1693     1  0.0000000  0.6508444  3
   1684   1680   1687   1690     1  0.0000000  0.6508444  3
   1684   1696   1702   3448     1  0.0000000  0.6508444  3
   1687   1680   1681   1693     1  0.0000000  0.6508444  3
   1687   1680   1684   1696     1  0.0000000  0.6508444  3
   1687   1690   1699   1708     1  0.0000000  0.6508444  3
   1693   1705   3478   3469     1  180.0000771  0.4184000  2
   1693   1705   3478   3469     1  0.0000000  1.6024720  3
   1696   1702   3448   3439     1  180.0000771  0.4184000  2
   1696   1702   3448   3439     1  0.0000000  1.6024720  3
   1702   3448   3439   3430     1  180.0000771  0.4184000  2
   1702   3448   3439   3430     1  0.0000000  1.6024720  3
   1705   3478   3469   3460     1  180.0000771  0.4184000  2
   1705   3478   3469   3460     1  0.0000000  1.6024720  3
   1710   1711   1723   1735     1  0.0000000  0.6508444  3
   1710   1714   1726   1732     1  0.0000000  0.6508444  3
   1710   1717   1720   1729     1  0.0000000  0.6508444  3
   1711   1710   1714   1726     1  0.0000000  0.6508444  3
   1711   1710   1717   1720     1  0.0000000  0.6508444  3
   1711   1723   1735   3538     1  0.0000000  0.6508444  3
   1714   1710   1711   1723     1  0.0000000  0.6508444  3
   1714   1710   1717   1720     1  0.0000000  0.6508444  3
   1714   1726   1732   3508     1  0.0000000  0.6508444  3
   1717   1710   1711   1723     1  0.0000000  0.6508444  3
   1717   1710   1714   1726     1  0.0000000  0.6508444  3
   1717   1720   1729   1738     1  0.0000000  0.6508444  3
   1723   1735   3538   3529     1  180.0000771  0.4184000  2
   1723   1735   3538   3529     1  0.0000000  1.6024720  3
   1726   1732   3508   3499     1  180.0000771  0.4184000  2
   1726   1732   3508   3499     1  0.0000000  1.6024720  3
   1732   3508   3499   3490     1  180.0000771  0.4184000  2
   1732   3508   3499   3490     1  0.0000000  1.6024720  3
   1735   3538   3529   3520     1  180.0000771  0.4184000  2
   1735   3538   3529   3520     1  0.0000000  1.6024720  3
   1740   1741   1753   1765     1  0.0000000  0.6508444  3
   1740   1744   1756   1762     1  0.0000000  0.6508444  3
   1740   1747   1750   1759     1  0.0000000  0.6508444  3
   1741   1740   1744   1756     1  0.0000000  0.6508444  3
   1741   1740   1747   1750     1  0.0000000  0.6508444  3
   1741   1753   1765   3598     1  0.0000000  0.6508444  3
   1744   1740   1741   1753     1  0.0000000  0.6508444  3
   1744   1740   1747   1750     1  0.0000000  0.6508444  3
   1744   1756   1762   3568     1  0.0000000  0.6508444  3
   1747   1740   1741   1753     1  0.0000000  0.6508444  3
   1747   1740   1744   1756     1  0.0000000  0.6508444  3
   1747   1750   1759   1768     1  0.0000000  0.6508444  3
   1753   1765   3598   3589     1  180.0000771  0.4184000  2
   1753   1765   3598   3589     1  0.0000000  1.6024720  3
   1756   1762   3568   3559     1  180.0000771  0.4184000  2
   1756   1762   3568   3559     1  0.0000000  1.6024720  3
   1762   3568   3559   3550     1  180.0000771  0.4184000  2
   1762   3568   3559   3550     1  0.0000000  1.6024720  3
   1765   3598   3589   3580     1  180.0000771  0.4184000  2
   1765   3598   3589   3580     1  0.0000000  1.6024720  3
   1770   1771   1783   1795     1  0.0000000  0.6508444  3
   1770   1774   1786   1792     1  0.0000000  0.6508444  3
   1770   1777   1780   1789     1  0.0000000  0.6508444  3
   1771   1770   1774   1786     1  0.0000000  0.6508444  3
   1771   1770   1777   1780     1  0.0000000  0.6508444  3
   1771   1783   1795   3658     1  0.0000000  0.6508444  3
   1774   1770   1771   1783     1  0.0000000  0.6508444  3
   1774   1770   1777   1780     1  0.0000000  0.6508444  3
   1774   1786   1792   3628     1  0.0000000  0.6508444  3
   1777   1770   1771   1783     1  0.0000000  0.6508444  3
   1777   1770   1774   1786     1  0.0000000  0.6508444  3
   1777   1780   1789   1798     1  0.0000000  0.6508444  3
   1783   1795   3658   3649     1  180.0000771  0.4184000  2
   1783   1795   3658   3649     1  0.0000000  1.6024720  3
   1786   1792   3628   3619     1  180.0000771  0.4184000  2
   1786   1792   3628   3619     1  0.0000000  1.6024720  3
   1792   3628   3619   3610     1  180.0000771  0.4184000  2
   1792   3628   3619   3610     1  0.0000000  1.6024720  3
   1795   3658   3649   3640     1  180.0000771  0.4184000  2
   1795   3658   3649   3640     1  0.0000000  1.6024720  3
   1800   1801   1813   1825     1  0.0000000  0.6508444  3
   1800   1804   1816   1822     1  0.0000000  0.6508444  3
   1800   1807   1810   1819     1  0.0000000  0.6508444  3
   1801   1800   1804   1816     1  0.0000000  0.6508444  3
   1801   1800   1807   1810     1  0.0000000  0.6508444  3
   1801   1813   1825   3718     1  0.0000000  0.6508444  3
   1804   1800   1801   1813     1  0.0000000  0.6508444  3
   1804   1800   1807   1810     1  0.0000000  0.6508444  3
   1804   1816   1822   3688     1  0.0000000  0.6508444  3
   1807   1800   1801   1813     1  0.0000000  0.6508444  3
   1807   1800   1804   1816     1  0.0000000  0.6508444  3
   1807   1810   1819   1828     1  0.0000000  0.6508444  3
   1813   1825   3718   3709     1  180.0000771  0.4184000  2
   1813   1825   3718   3709     1  0.0000000  1.6024720  3
   1816   1822   3688   3679     1  180.0000771  0.4184000  2
   1816   1822   3688   3679     1  0.0000000  1.6024720  3
   1822   3688   3679   3670     1  180.0000771  0.4184000  2
   1822   3688   3679   3670     1  0.0000000  1.6024720  3
   1825   3718   3709   3700     1  180.0000771  0.4184000  2
   1825   3718   3709   3700     1  0.0000000  1.6024720  3
   1830   1831   1843   1855     1  0.0000000  0.6508444  3
   1830   1834   1846   1852     1  0.0000000  0.6508444  3
   1830   1837   1840   1849     1  0.0000000  0.6508444  3
   1831   1830   1834   1846     1  0.0000000  0.6508444  3
   1831   1830   1837   1840     1  0.0000000  0.6508444  3
   1831   1843   1855   3778     1  0.0000000  0.6508444  3
   1834   1830   1831   1843     1  0.0000000  0.6508444  3
   1834   1830   1837   1840     1  0.0000000  0.6508444  3
   1834   1846   1852   3748     1  0.0000000  0.6508444  3
   1837   1830   1831   1843     1  0.0000000  0.6508444  3
   1837   1830   1834   1846     1  0.0000000  0.6508444  3
   1837   1840   1849   1858     1  0.0000000  0.6508444  3
   1843   1855   3778   3769     1  180.0000771  0.4184000  2
   1843   1855   3778   3769     1  0.0000000  1.6024720  3
   1846   1852   3748   3739     1  180.0000771  0.4184000  2
   1846   1852   3748   3739     1  0.0000000  1.6024720  3
   1852   3748   3739   3730     1  180.0000771  0.4184000  2
   1852   3748   3739   3730     1  0.0000000  1.6024720  3
   1855   3778   3769   3760     1  180.0000771  0.4184000  2
   1855   3778   3769   3760     1  0.0000000  1.6024720  3
   1860   1861   1873   1885     1  0.0000000  0.6508444  3
   1860   1864   1876   1882     1  0.0000000  0.6508444  3
   1860   1867   1870   1879     1  0.0000000  0.6508444  3
   1861   1860   1864   1876     1  0.0000000  0.6508444  3
   1861   1860   1867   1870     1  0.0000000  0.6508444  3
   1861   1873   1885   3838     1  0.0000000  0.6508444  3
   1864   1860   1861   1873     1  0.0000000  0.6508444  3
   1864   1860   1867   1870     1  0.0000000  0.6508444  3
   1864   1876   1882   3808     1  0.0000000  0.6508444  3
   1867   1860   1861   1873     1  0.0000000  0.6508444  3
   1867   1860   1864   1876     1  0.0000000  0.6508444  3
   1867   1870   1879   1888     1  0.0000000  0.6508444  3
   1873   1885   3838   3829     1  180.0000771  0.4184000  2
   1873   1885   3838   3829     1  0.0000000  1.6024720  3
   1876   1882   3808   3799     1  180.0000771  0.4184000  2
   1876   1882   3808   3799     1  0.0000000  1.6024720  3
   1882   3808   3799   3790     1  180.0000771  0.4184000  2
   1882   3808   3799   3790     1  0.0000000  1.6024720  3
   1885   3838   3829   3820     1  180.0000771  0.4184000  2
   1885   3838   3829   3820     1  0.0000000  1.6024720  3
   1890   1891   1903   1915     1  0.0000000  0.6508444  3
   1890   1894   1906   1912     1  0.0000000  0.6508444  3
   1890   1897   1900   1909     1  0.0000000  0.6508444  3
   1891   1890   1894   1906     1  0.0000000  0.6508444  3
   1891   1890   1897   1900     1  0.0000000  0.6508444  3
   1891   1903   1915   3898     1  0.0000000  0.6508444  3
   1894   1890   1891   1903     1  0.0000000  0.6508444  3
   1894   1890   1897   1900     1  0.0000000  0.6508444  3
   1894   1906   1912   3868     1  0.0000000  0.6508444  3
   1897   1890   1891   1903     1  0.0000000  0.6508444  3
   1897   1890   1894   1906     1  0.0000000  0.6508444  3
   1897   1900   1909   1918     1  0.0000000  0.6508444  3
   1903   1915   3898   3889     1  180.0000771  0.4184000  2
   1903   1915   3898   3889     1  0.0000000  1.6024720  3
   1906   1912   3868   3859     1  180.0000771  0.4184000  2
   1906   1912   3868   3859     1  0.0000000  1.6024720  3
   1912   3868   3859   3850     1  180.0000771  0.4184000  2
   1912   3868   3859   3850     1  0.0000000  1.6024720  3
   1915   3898   3889   3880     1  180.0000771  0.4184000  2
   1915   3898   3889   3880     1  0.0000000  1.6024720  3
   1920   1921   1933   1945     1  0.0000000  0.6508444  3
   1920   1924   1936   1942     1  0.0000000  0.6508444  3
   1920   1927   1930   1939     1  0.0000000  0.6508444  3
   1921   1920   1924   1936     1  0.0000000  0.6508444  3
   1921   1920   1927   1930     1  0.0000000  0.6508444  3
   1921   1933   1945   3958     1  0.0000000  0.6508444  3
   1924   1920   1921   1933     1  0.0000000  0.6508444  3
   1924   1920   1927   1930     1  0.0000000  0.6508444  3
   1924   1936   1942   3928     1  0.0000000  0.6508444  3
   1927   1920   1921   1933     1  0.0000000  0.6508444  3
   1927   1920   1924   1936     1  0.0000000  0.6508444  3
   1927   1930   1939   1948     1  0.0000000  0.6508444  3
   1933   1945   3958   3949     1  180.0000771  0.4184000  2
   1933   1945   3958   3949     1  0.0000000  1.6024720  3
   1936   1942   3928   3919     1  180.0000771  0.4184000  2
   1936   1942   3928   3919     1  0.0000000  1.6024720  3
   1942   3928   3919   3910     1  180.0000771  0.4184000  2
   1942   3928   3919   3910     1  0.0000000  1.6024720  3
   1945   3958   3949   3940     1  180.0000771  0.4184000  2
   1945   3958   3949   3940     1  0.0000000  1.6024720  3
   1950   1951   1963   1975     1  0.0000000  0.6508444  3
   1950   1954   1966   1972     1  0.0000000  0.6508444  3
   1950   1957   1960   1969     1  0.0000000  0.6508444  3
   1951   1950   1954   1966     1  0.0000000  0.6508444  3
   1951   1950   1957   1960     1  0.0000000  0.6508444  3
   1951   1963   1975   4018     1  0.0000000  0.6508444  3
   1954   1950   1951   1963     1  0.0000000  0.6508444  3
   1954   1950   1957   1960     1  0.0000000  0.6508444  3
   1954   1966   1972   3988     1  0.0000000  0.6508444  3
   1957   1950   1951   1963     1  0.0000000  0.6508444  3
   1957   1950   1954   1966     1  0.0000000  0.6508444  3
   1957   1960   1969   1978     1  0.0000000  0.6508444  3
   1963   1975   4018   4009     1  180.0000771  0.4184000  2
   1963   1975   4018   4009     1  0.0000000  1.6024720  3
   1966   1972   3988   3979     1  180.0000771  0.4184000  2
   1966   1972   3988   3979     1  0.0000000  1.6024720  3
   1972   3988   3979   3970     1  180.0000771  0.4184000  2
   1972   3988   3979   3970     1  0.0000000  1.6024720  3
   1975   4018   4009   4000     1  180.0000771  0.4184000  2
   1975   4018   4009   4000     1  0.0000000  1.6024720  3
   1980   1981   1993   2005     1  0.0000000  0.6508444  3
   1980   1984   1996   2002     1  0.0000000  0.6508444  3
   1980   1987   1990   1999     1  0.0000000  0.6508444  3
   1981   1980   1984   1996     1  0.0000000  0.6508444  3
   1981   1980   1987   1990     1  0.0000000  0.6508444  3
   1981   1993   2005   4078     1  0.0000000  0.6508444  3
   1984   1980   1981   1993     1  0.0000000  0.6508444  3
   1984   1980   1987   1990     1  0.0000000  0.6508444  3
   1984   1996   2002   4048     1  0.0000000  0.6508444  3
   1987   1980   1981   1993     1  0.0000000  0.6508444  3
   1987   1980   1984   1996     1  0.0000000  0.6508444  3
   1987   1990   1999   2008     1  0.0000000  0.6508444  3
   1993   2005   4078   4069     1  180.0000771  0.4184000  2
   1993   2005   4078   4069     1  0.0000000  1.6024720  3
   1996   2002   4048   4039     1  180.0000771  0.4184000  2
   1996   2002   4048   4039     1  0.0000000  1.6024720  3
   2002   4048   4039   4030     1  180.0000771  0.4184000  2
   2002   4048   4039   4030     1  0.0000000  1.6024720  3
   2005   4078   4069   4060     1  180.0000771  0.4184000  2
   2005   4078   4069   4060     1  0.0000000  1.6024720  3
   2010   2011   2023   2035     1  0.0000000  0.6508444  3
   2010   2014   2026   2032     1  0.0000000  0.6508444  3
   2010   2017   2020   2029     1  0.0000000  0.6508444  3
   2011   2010   2014   2026     1  0.0000000  0.6508444  3
   2011   2010   2017   2020     1  0.0000000  0.6508444  3
   2011   2023   2035   4138     1  0.0000000  0.6508444  3
   2014   2010   2011   2023     1  0.0000000  0.6508444  3
   2014   2010   2017   2020     1  0.0000000  0.6508444  3
   2014   2026   2032   4108     1  0.0000000  0.6508444  3
   2017   2010   2011   2023     1  0.0000000  0.6508444  3
   2017   2010   2014   2026     1  0.0000000  0.6508444  3
   2017   2020   2029   2038     1  0.0000000  0.6508444  3
   2023   2035   4138   4129     1  180.0000771  0.4184000  2
   2023   2035   4138   4129     1  0.0000000  1.6024720  3
   2026   2032   4108   4099     1  180.0000771  0.4184000  2
   2026   2032   4108   4099     1  0.0000000  1.6024720  3
   2032   4108   4099   4090     1  180.0000771  0.4184000  2
   2032   4108   4099   4090     1  0.0000000  1.6024720  3
   2035   4138   4129   4120     1  180.0000771  0.4184000  2
   2035   4138   4129   4120     1  0.0000000  1.6024720  3
   2040   2041   2053   2065     1  0.0000000  0.6508444  3
   2040   2044   2056   2062     1  0.0000000  0.6508444  3
   2040   2047   2050   2059     1  0.0000000  0.6508444  3
   2041   2040   2044   2056     1  0.0000000  0.6508444  3
   2041   2040   2047   2050     1  0.0000000  0.6508444  3
   2041   2053   2065   4198     1  0.0000000  0.6508444  3
   2044   2040   2041   2053     1  0.0000000  0.6508444  3
   2044   2040   2047   2050     1  0.0000000  0.6508444  3
   2044   2056   2062   4168     1  0.0000000  0.6508444  3
   2047   2040   2041   2053     1  0.0000000  0.6508444  3
   2047   2040   2044   2056     1  0.0000000  0.6508444  3
   2047   2050   2059   2068     1  0.0000000  0.6508444  3
   2053   2065   4198   4189     1  180.0000771  0.4184000  2
   2053   2065   4198   4189     1  0.0000000  1.6024720  3
   2056   2062   4168   4159     1  180.0000771  0.4184000  2
   2056   2062   4168   4159     1  0.0000000  1.6024720  3
   2062   4168   4159   4150     1  180.0000771  0.4184000  2
   2062   4168   4159   4150     1  0.0000000  1.6024720  3
   2065   4198   4189   4180     1  180.0000771  0.4184000  2
   2065   4198   4189   4180     1  0.0000000  1.6024720  3
   2070   2071   2083   2095     1  0.0000000  0.6508444  3
   2070   2074   2086   2092     1  0.0000000  0.6508444  3
   2070   2077   2080   2089     1  0.0000000  0.6508444  3
   2071   2070   2074   2086     1  0.0000000  0.6508444  3
   2071   2070   2077   2080     1  0.0000000  0.6508444  3
   2071   2083   2095   4258     1  0.0000000  0.6508444  3
   2074   2070   2071   2083     1  0.0000000  0.6508444  3
   2074   2070   2077   2080     1  0.0000000  0.6508444  3
   2074   2086   2092   4228     1  0.0000000  0.6508444  3
   2077   2070   2071   2083     1  0.0000000  0.6508444  3
   2077   2070   2074   2086     1  0.0000000  0.6508444  3
   2077   2080   2089   2098     1  0.0000000  0.6508444  3
   2083   2095   4258   4249     1  180.0000771  0.4184000  2
   2083   2095   4258   4249     1  0.0000000  1.6024720  3
   2086   2092   4228   4219     1  180.0000771  0.4184000  2
   2086   2092   4228   4219     1  0.0000000  1.6024720  3
   2092   4228   4219   4210     1  180.0000771  0.4184000  2
   2092   4228   4219   4210     1  0.0000000  1.6024720  3
   2095   4258   4249   4240     1  180.0000771  0.4184000  2
   2095   4258   4249   4240     1  0.0000000  1.6024720  3
   2100   2101   2113   2125     1  0.0000000  0.6508444  3
   2100   2104   2116   2122     1  0.0000000  0.6508444  3
   2100   2107   2110   2119     1  0.0000000  0.6508444  3
   2101   2100   2104   2116     1  0.0000000  0.6508444  3
   2101   2100   2107   2110     1  0.0000000  0.6508444  3
   2101   2113   2125   4318     1  0.0000000  0.6508444  3
   2104   2100   2101   2113     1  0.0000000  0.6508444  3
   2104   2100   2107   2110     1  0.0000000  0.6508444  3
   2104   2116   2122   4288     1  0.0000000  0.6508444  3
   2107   2100   2101   2113     1  0.0000000  0.6508444  3
   2107   2100   2104   2116     1  0.0000000  0.6508444  3
   2107   2110   2119   2128     1  0.0000000  0.6508444  3
   2113   2125   4318   4309     1  180.0000771  0.4184000  2
   2113   2125   4318   4309     1  0.0000000  1.6024720  3
   2116   2122   4288   4279     1  180.0000771  0.4184000  2
   2116   2122   4288   4279     1  0.0000000  1.6024720  3
   2122   4288   4279   4270     1  180.0000771  0.4184000  2
   2122   4288   4279   4270     1  0.0000000  1.6024720  3
   2125   4318   4309   4300     1  180.0000771  0.4184000  2
   2125   4318   4309   4300     1  0.0000000  1.6024720  3
   2130   2131   2143   2155     1  0.0000000  0.6508444  3
   2130   2134   2146   2152     1  0.0000000  0.6508444  3
   2130   2137   2140   2149     1  0.0000000  0.6508444  3
   2131   2130   2134   2146     1  0.0000000  0.6508444  3
   2131   2130   2137   2140     1  0.0000000  0.6508444  3
   2131   2143   2155   4378     1  0.0000000  0.6508444  3
   2134   2130   2131   2143     1  0.0000000  0.6508444  3
   2134   2130   2137   2140     1  0.0000000  0.6508444  3
   2134   2146   2152   4348     1  0.0000000  0.6508444  3
   2137   2130   2131   2143     1  0.0000000  0.6508444  3
   2137   2130   2134   2146     1  0.0000000  0.6508444  3
   2137   2140   2149   2158     1  0.0000000  0.6508444  3
   2143   2155   4378   4369     1  180.0000771  0.4184000  2
   2143   2155   4378   4369     1  0.0000000  1.6024720  3
   2146   2152   4348   4339     1  180.0000771  0.4184000  2
   2146   2152   4348   4339     1  0.0000000  1.6024720  3
   2152   4348   4339   4330     1  180.0000771  0.4184000  2
   2152   4348   4339   4330     1  0.0000000  1.6024720  3
   2155   4378   4369   4360     1  180.0000771  0.4184000  2
   2155   4378   4369   4360     1  0.0000000  1.6024720  3
   2160   2161   2173   2185     1  0.0000000  0.6508444  3
   2160   2164   2176   2182     1  0.0000000  0.6508444  3
   2160   2167   2170   2179     1  0.0000000  0.6508444  3
   2161   2160   2164   2176     1  0.0000000  0.6508444  3
   2161   2160   2167   2170     1  0.0000000  0.6508444  3
   2161   2173   2185   4438     1  0.0000000  0.6508444  3
   2164   2160   2161   2173     1  0.0000000  0.6508444  3
   2164   2160   2167   2170     1  0.0000000  0.6508444  3
   2164   2176   2182   4408     1  0.0000000  0.6508444  3
   2167   2160   2161   2173     1  0.0000000  0.6508444  3
   2167   2160   2164   2176     1  0.0000000  0.6508444  3
   2167   2170   2179   2188     1  0.0000000  0.6508444  3
   2173   2185   4438   4429     1  180.0000771  0.4184000  2
   2173   2185   4438   4429     1  0.0000000  1.6024720  3
   2176   2182   4408   4399     1  180.0000771  0.4184000  2
   2176   2182   4408   4399     1  0.0000000  1.6024720  3
   2182   4408   4399   4390     1  180.0000771  0.4184000  2
   2182   4408   4399   4390     1  0.0000000  1.6024720  3
   2185   4438   4429   4420     1  180.0000771  0.4184000  2
   2185   4438   4429   4420     1  0.0000000  1.6024720  3
   2190   2191   2203   2215     1  0.0000000  0.6508444  3
   2190   2194   2206   2212     1  0.0000000  0.6508444  3
   2190   2197   2200   2209     1  0.0000000  0.6508444  3
   2191   2190   2194   2206     1  0.0000000  0.6508444  3
   2191   2190   2197   2200     1  0.0000000  0.6508444  3
   2191   2203   2215   4498     1  0.0000000  0.6508444  3
   2194   2190   2191   2203     1  0.0000000  0.6508444  3
   2194   2190   2197   2200     1  0.0000000  0.6508444  3
   2194   2206   2212   4468     1  0.0000000  0.6508444  3
   2197   2190   2191   2203     1  0.0000000  0.6508444  3
   2197   2190   2194   2206     1  0.0000000  0.6508444  3
   2197   2200   2209   2218     1  0.0000000  0.6508444  3
   2203   2215   4498   4489     1  180.0000771  0.4184000  2
   2203   2215   4498   4489     1  0.0000000  1.6024720  3
   2206   2212   4468   4459     1  180.0000771  0.4184000  2
   2206   2212   4468   4459     1  0.0000000  1.6024720  3
   2212   4468   4459   4450     1  180.0000771  0.4184000  2
   2212   4468   4459   4450     1  0.0000000  1.6024720  3
   2215   4498   4489   4480     1  180.0000771  0.4184000  2
   2215   4498   4489   4480     1  0.0000000  1.6024720  3
   2220   2221   2233   2245     1  0.0000000  0.6508444  3
   2220   2224   2236   2242     1  0.0000000  0.6508444  3
   2220   2227   2230   2239     1  0.0000000  0.6508444  3
   2221   2220   2224   2236     1  0.0000000  0.6508444  3
   2221   2220   2227   2230     1  0.0000000  0.6508444  3
   2221   2233   2245   4558     1  0.0000000  0.6508444  3
   2224   2220   2221   2233     1  0.0000000  0.6508444  3
   2224   2220   2227   2230     1  0.0000000  0.6508444  3
   2224   2236   2242   4528     1  0.0000000  0.6508444  3
   2227   2220   2221   2233     1  0.0000000  0.6508444  3
   2227   2220   2224   2236     1  0.0000000  0.6508444  3
   2227   2230   2239   2248     1  0.0000000  0.6508444  3
   2233   2245   4558   4549     1  180.0000771  0.4184000  2
   2233   2245   4558   4549     1  0.0000000  1.6024720  3
   2236   2242   4528   4519     1  180.0000771  0.4184000  2
   2236   2242   4528   4519     1  0.0000000  1.6024720  3
   2242   4528   4519   4510     1  180.0000771  0.4184000  2
   2242   4528   4519   4510     1  0.0000000  1.6024720  3
   2245   4558   4549   4540     1  180.0000771  0.4184000  2
   2245   4558   4549   4540     1  0.0000000  1.6024720  3
   2250   2251   2263   2275     1  0.0000000  0.6508444  3
   2250   2254   2266   2272     1  0.0000000  0.6508444  3
   2250   2257   2260   2269     1  0.0000000  0.6508444  3
   2251   2250   2254   2266     1  0.0000000  0.6508444  3
   2251   2250   2257   2260     1  0.0000000  0.6508444  3
   2251   2263   2275   4618     1  0.0000000  0.6508444  3
   2254   2250   2251   2263     1  0.0000000  0.6508444  3
   2254   2250   2257   2260     1  0.0000000  0.6508444  3
   2254   2266   2272   4588     1  0.0000000  0.6508444  3
   2257   2250   2251   2263     1  0.0000000  0.6508444  3
   2257   2250   2254   2266     1  0.0000000  0.6508444  3
   2257   2260   2269   2278     1  0.0000000  0.6508444  3
   2263   2275   4618   4609     1  180.0000771  0.4184000  2
   2263   2275   4618   4609     1  0.0000000  1.6024720  3
   2266   2272   4588   4579     1  180.0000771  0.4184000  2
   2266   2272   4588   4579     1  0.0000000  1.6024720  3
   2272   4588   4579   4570     1  180.0000771  0.4184000  2
   2272   4588   4579   4570     1  0.0000000  1.6024720  3
   2275   4618   4609   4600     1  180.0000771  0.4184000  2
   2275   4618   4609   4600     1  0.0000000  1.6024720  3
   2280   2281   2293   2305     1  0.0000000  0.6508444  3
   2280   2284   2296   2302     1  0.0000000  0.6508444  3
   2280   2287   2290   2299     1  0.0000000  0.6508444  3
   2281   2280   2284   2296     1  0.0000000  0.6508444  3
   2281   2280   2287   2290     1  0.0000000  0.6508444  3
   2281   2293   2305   4678     1  0.0000000  0.6508444  3
   2284   2280   2281   2293     1  0.0000000  0.6508444  3
   2284   2280   2287   2290     1  0.0000000  0.6508444  3
   2284   2296   2302   4648     1  0.0000000  0.6508444  3
   2287   2280   2281   2293     1  0.0000000  0.6508444  3
   2287   2280   2284   2296     1  0.0000000  0.6508444  3
   2287   2290   2299   2308     1  0.0000000  0.6508444  3
   2293   2305   4678   4669     1  180.0000771  0.4184000  2
   2293   2305   4678   4669     1  0.0000000  1.6024720  3
   2296   2302   4648   4639     1  180.0000771  0.4184000  2
   2296   2302   4648   4639     1  0.0000000  1.6024720  3
   2302   4648   4639   4630     1  180.0000771  0.4184000  2
   2302   4648   4639   4630     1  0.0000000  1.6024720  3
   2305   4678   4669   4660     1  180.0000771  0.4184000  2
   2305   4678   4669   4660     1  0.0000000  1.6024720  3
   2310   2311   2323   2335     1  0.0000000  0.6508444  3
   2310   2314   2326   2332     1  0.0000000  0.6508444  3
   2310   2317   2320   2329     1  0.0000000  0.6508444  3
   2311   2310   2314   2326     1  0.0000000  0.6508444  3
   2311   2310   2317   2320     1  0.0000000  0.6508444  3
   2311   2323   2335   4738     1  0.0000000  0.6508444  3
   2314   2310   2311   2323     1  0.0000000  0.6508444  3
   2314   2310   2317   2320     1  0.0000000  0.6508444  3
   2314   2326   2332   4708     1  0.0000000  0.6508444  3
   2317   2310   2311   2323     1  0.0000000  0.6508444  3
   2317   2310   2314   2326     1  0.0000000  0.6508444  3
   2317   2320   2329   2338     1  0.0000000  0.6508444  3
   2323   2335   4738   4729     1  180.0000771  0.4184000  2
   2323   2335   4738   4729     1  0.0000000  1.6024720  3
   2326   2332   4708   4699     1  180.0000771  0.4184000  2
   2326   2332   4708   4699     1  0.0000000  1.6024720  3
   2332   4708   4699   4690     1  180.0000771  0.4184000  2
   2332   4708   4699   4690     1  0.0000000  1.6024720  3
   2335   4738   4729   4720     1  180.0000771  0.4184000  2
   2335   4738   4729   4720     1  0.0000000  1.6024720  3
   2340   2341   2353   2365     1  0.0000000  0.6508444  3
   2340   2344   2356   2362     1  0.0000000  0.6508444  3
   2340   2347   2350   2359     1  0.0000000  0.6508444  3
   2341   2340   2344   2356     1  0.0000000  0.6508444  3
   2341   2340   2347   2350     1  0.0000000  0.6508444  3
   2341   2353   2365   4798     1  0.0000000  0.6508444  3
   2344   2340   2341   2353     1  0.0000000  0.6508444  3
   2344   2340   2347   2350     1  0.0000000  0.6508444  3
   2344   2356   2362   4768     1  0.0000000  0.6508444  3
   2347   2340   2341   2353     1  0.0000000  0.6508444  3
   2347   2340   2344   2356     1  0.0000000  0.6508444  3
   2347   2350   2359   2368     1  0.0000000  0.6508444  3
   2353   2365   4798   4789     1  180.0000771  0.4184000  2
   2353   2365   4798   4789     1  0.0000000  1.6024720  3
   2356   2362   4768   4759     1  180.0000771  0.4184000  2
   2356   2362   4768   4759     1  0.0000000  1.6024720  3
   2362   4768   4759   4750     1  180.0000771  0.4184000  2
   2362   4768   4759   4750     1  0.0000000  1.6024720  3
   2365   4798   4789   4780     1  180.0000771  0.4184000  2
   2365   4798   4789   4780     1  0.0000000  1.6024720  3
   2370   2371   2383   2395     1  0.0000000  0.6508444  3
   2370   2374   2386   2392     1  0.0000000  0.6508444  3
   2370   2377   2380   2389     1  0.0000000  0.6508444  3
   2371   2370   2374   2386     1  0.0000000  0.6508444  3
   2371   2370   2377   2380     1  0.0000000  0.6508444  3
   2371   2383   2395   4858     1  0.0000000  0.6508444  3
   2374   2370   2371   2383     1  0.0000000  0.6508444  3
   2374   2370   2377   2380     1  0.0000000  0.6508444  3
   2374   2386   2392   4828     1  0.0000000  0.6508444  3
   2377   2370   2371   2383     1  0.0000000  0.6508444  3
   2377   2370   2374   2386     1  0.0000000  0.6508444  3
   2377   2380   2389   2398     1  0.0000000  0.6508444  3
   2383   2395   4858   4849     1  180.0000771  0.4184000  2
   2383   2395   4858   4849     1  0.0000000  1.6024720  3
   2386   2392   4828   4819     1  180.0000771  0.4184000  2
   2386   2392   4828   4819     1  0.0000000  1.6024720  3
   2392   4828   4819   4810     1  180.0000771  0.4184000  2
   2392   4828   4819   4810     1  0.0000000  1.6024720  3
   2395   4858   4849   4840     1  180.0000771  0.4184000  2
   2395   4858   4849   4840     1  0.0000000  1.6024720  3
   2400   2401   2413   2425     1  0.0000000  0.6508444  3
   2400   2404   2416   2422     1  0.0000000  0.6508444  3
   2400   2407   2410   2419     1  0.0000000  0.6508444  3
   2401   2400   2404   2416     1  0.0000000  0.6508444  3
   2401   2400   2407   2410     1  0.0000000  0.6508444  3
   2401   2413   2425   4918     1  0.0000000  0.6508444  3
   2404   2400   2401   2413     1  0.0000000  0.6508444  3
   2404   2400   2407   2410     1  0.0000000  0.6508444  3
   2404   2416   2422   4888     1  0.0000000  0.6508444  3
   2407   2400   2401   2413     1  0.0000000  0.6508444  3
   2407   2400   2404   2416     1  0.0000000  0.6508444  3
   2407   2410   2419   2428     1  0.0000000  0.6508444  3
   2413   2425   4918   4909     1  180.0000771  0.4184000  2
   2413   2425   4918   4909     1  0.0000000  1.6024720  3
   2416   2422   4888   4879     1  180.0000771  0.4184000  2
   2416   2422   4888   4879     1  0.0000000  1.6024720  3
   2422   4888   4879   4870     1  180.0000771  0.4184000  2
   2422   4888   4879   4870     1  0.0000000  1.6024720  3
   2425   4918   4909   4900     1  180.0000771  0.4184000  2
   2425   4918   4909   4900     1  0.0000000  1.6024720  3
   2430   2431   2443   2455     1  0.0000000  0.6508444  3
   2430   2434   2446   2452     1  0.0000000  0.6508444  3
   2430   2437   2440   2449     1  0.0000000  0.6508444  3
   2431   2430   2434   2446     1  0.0000000  0.6508444  3
   2431   2430   2437   2440     1  0.0000000  0.6508444  3
   2431   2443   2455   4978     1  0.0000000  0.6508444  3
   2434   2430   2431   2443     1  0.0000000  0.6508444  3
   2434   2430   2437   2440     1  0.0000000  0.6508444  3
   2434   2446   2452   4948     1  0.0000000  0.6508444  3
   2437   2430   2431   2443     1  0.0000000  0.6508444  3
   2437   2430   2434   2446     1  0.0000000  0.6508444  3
   2437   2440   2449   2458     1  0.0000000  0.6508444  3
   2443   2455   4978   4969     1  180.0000771  0.4184000  2
   2443   2455   4978   4969     1  0.0000000  1.6024720  3
   2446   2452   4948   4939     1  180.0000771  0.4184000  2
   2446   2452   4948   4939     1  0.0000000  1.6024720  3
   2452   4948   4939   4930     1  180.0000771  0.4184000  2
   2452   4948   4939   4930     1  0.0000000  1.6024720  3
   2455   4978   4969   4960     1  180.0000771  0.4184000  2
   2455   4978   4969   4960     1  0.0000000  1.6024720  3
   2460   2461   2473   2485     1  0.0000000  0.6508444  3
   2460   2464   2476   2482     1  0.0000000  0.6508444  3
   2460   2467   2470   2479     1  0.0000000  0.6508444  3
   2461   2460   2464   2476     1  0.0000000  0.6508444  3
   2461   2460   2467   2470     1  0.0000000  0.6508444  3
   2461   2473   2485   5038     1  0.0000000  0.6508444  3
   2464   2460   2461   2473     1  0.0000000  0.6508444  3
   2464   2460   2467   2470     1  0.0000000  0.6508444  3
   2464   2476   2482   5008     1  0.0000000  0.6508444  3
   2467   2460   2461   2473     1  0.0000000  0.6508444  3
   2467   2460   2464   2476     1  0.0000000  0.6508444  3
   2467   2470   2479   2488     1  0.0000000  0.6508444  3
   2473   2485   5038   5029     1  180.0000771  0.4184000  2
   2473   2485   5038   5029     1  0.0000000  1.6024720  3
   2476   2482   5008   4999     1  180.0000771  0.4184000  2
   2476   2482   5008   4999     1  0.0000000  1.6024720  3
   2482   5008   4999   4990     1  180.0000771  0.4184000  2
   2482   5008   4999   4990     1  0.0000000  1.6024720  3
   2485   5038   5029   5020     1  180.0000771  0.4184000  2
   2485   5038   5029   5020     1  0.0000000  1.6024720  3
   2490   2491   2503   2515     1  0.0000000  0.6508444  3
   2490   2494   2506   2512     1  0.0000000  0.6508444  3
   2490   2497   2500   2509     1  0.0000000  0.6508444  3
   2491   2490   2494   2506     1  0.0000000  0.6508444  3
   2491   2490   2497   2500     1  0.0000000  0.6508444  3
   2491   2503   2515   5098     1  0.0000000  0.6508444  3
   2494   2490   2491   2503     1  0.0000000  0.6508444  3
   2494   2490   2497   2500     1  0.0000000  0.6508444  3
   2494   2506   2512   5068     1  0.0000000  0.6508444  3
   2497   2490   2491   2503     1  0.0000000  0.6508444  3
   2497   2490   2494   2506     1  0.0000000  0.6508444  3
   2497   2500   2509   2518     1  0.0000000  0.6508444  3
   2503   2515   5098   5089     1  180.0000771  0.4184000  2
   2503   2515   5098   5089     1  0.0000000  1.6024720  3
   2506   2512   5068   5059     1  180.0000771  0.4184000  2
   2506   2512   5068   5059     1  0.0000000  1.6024720  3
   2512   5068   5059   5050     1  180.0000771  0.4184000  2
   2512   5068   5059   5050     1  0.0000000  1.6024720  3
   2515   5098   5089   5080     1  180.0000771  0.4184000  2
   2515   5098   5089   5080     1  0.0000000  1.6024720  3
   2520   2521   2533   2545     1  0.0000000  0.6508444  3
   2520   2524   2536   2542     1  0.0000000  0.6508444  3
   2520   2527   2530   2539     1  0.0000000  0.6508444  3
   2521   2520   2524   2536     1  0.0000000  0.6508444  3
   2521   2520   2527   2530     1  0.0000000  0.6508444  3
   2521   2533   2545   5158     1  0.0000000  0.6508444  3
   2524   2520   2521   2533     1  0.0000000  0.6508444  3
   2524   2520   2527   2530     1  0.0000000  0.6508444  3
   2524   2536   2542   5128     1  0.0000000  0.6508444  3
   2527   2520   2521   2533     1  0.0000000  0.6508444  3
   2527   2520   2524   2536     1  0.0000000  0.6508444  3
   2527   2530   2539   2548     1  0.0000000  0.6508444  3
   2533   2545   5158   5149     1  180.0000771  0.4184000  2
   2533   2545   5158   5149     1  0.0000000  1.6024720  3
   2536   2542   5128   5119     1  180.0000771  0.4184000  2
   2536   2542   5128   5119     1  0.0000000  1.6024720  3
   2542   5128   5119   5110     1  180.0000771  0.4184000  2
   2542   5128   5119   5110     1  0.0000000  1.6024720  3
   2545   5158   5149   5140     1  180.0000771  0.4184000  2
   2545   5158   5149   5140     1  0.0000000  1.6024720  3
   2550   2551   2563   2575     1  0.0000000  0.6508444  3
   2550   2554   2566   2572     1  0.0000000  0.6508444  3
   2550   2557   2560   2569     1  0.0000000  0.6508444  3
   2551   2550   2554   2566     1  0.0000000  0.6508444  3
   2551   2550   2557   2560     1  0.0000000  0.6508444  3
   2551   2563   2575   5218     1  0.0000000  0.6508444  3
   2554   2550   2551   2563     1  0.0000000  0.6508444  3
   2554   2550   2557   2560     1  0.0000000  0.6508444  3
   2554   2566   2572   5188     1  0.0000000  0.6508444  3
   2557   2550   2551   2563     1  0.0000000  0.6508444  3
   2557   2550   2554   2566     1  0.0000000  0.6508444  3
   2557   2560   2569   2578     1  0.0000000  0.6508444  3
   2563   2575   5218   5209     1  180.0000771  0.4184000  2
   2563   2575   5218   5209     1  0.0000000  1.6024720  3
   2566   2572   5188   5179     1  180.0000771  0.4184000  2
   2566   2572   5188   5179     1  0.0000000  1.6024720  3
   2572   5188   5179   5170     1  180.0000771  0.4184000  2
   2572   5188   5179   5170     1  0.0000000  1.6024720  3
   2575   5218   5209   5200     1  180.0000771  0.4184000  2
   2575   5218   5209   5200     1  0.0000000  1.6024720  3
   2580   2581   2593   2605     1  0.0000000  0.6508444  3
   2580   2584   2596   2602     1  0.0000000  0.6508444  3
   2580   2587   2590   2599     1  0.0000000  0.6508444  3
   2581   2580   2584   2596     1  0.0000000  0.6508444  3
   2581   2580   2587   2590     1  0.0000000  0.6508444  3
   2581   2593   2605   5278     1  0.0000000  0.6508444  3
   2584   2580   2581   2593     1  0.0000000  0.6508444  3
   2584   2580   2587   2590     1  0.0000000  0.6508444  3
   2584   2596   2602   5248     1  0.0000000  0.6508444  3
   2587   2580   2581   2593     1  0.0000000  0.6508444  3
   2587   2580   2584   2596     1  0.0000000  0.6508444  3
   2587   2590   2599   2608     1  0.0000000  0.6508444  3
   2593   2605   5278   5269     1  180.0000771  0.4184000  2
   2593   2605   5278   5269     1  0.0000000  1.6024720  3
   2596   2602   5248   5239     1  180.0000771  0.4184000  2
   2596   2602   5248   5239     1  0.0000000  1.6024720  3
   2602   5248   5239   5230     1  180.0000771  0.4184000  2
   2602   5248   5239   5230     1  0.0000000  1.6024720  3
   2605   5278   5269   5260     1  180.0000771  0.4184000  2
   2605   5278   5269   5260     1  0.0000000  1.6024720  3
   2610   2611   2623   2635     1  0.0000000  0.6508444  3
   2610   2614   2626   2632     1  0.0000000  0.6508444  3
   2610   2617   2620   2629     1  0.0000000  0.6508444  3
   2611   2610   2614   2626     1  0.0000000  0.6508444  3
   2611   2610   2617   2620     1  0.0000000  0.6508444  3
   2611   2623   2635   5338     1  0.0000000  0.6508444  3
   2614   2610   2611   2623     1  0.0000000  0.6508444  3
   2614   2610   2617   2620     1  0.0000000  0.6508444  3
   2614   2626   2632   5308     1  0.0000000  0.6508444  3
   2617   2610   2611   2623     1  0.0000000  0.6508444  3
   2617   2610   2614   2626     1  0.0000000  0.6508444  3
   2617   2620   2629   2638     1  0.0000000  0.6508444  3
   2623   2635   5338   5329     1  180.0000771  0.4184000  2
   2623   2635   5338   5329     1  0.0000000  1.6024720  3
   2626   2632   5308   5299     1  180.0000771  0.4184000  2
   2626   2632   5308   5299     1  0.0000000  1.6024720  3
   2632   5308   5299   5290     1  180.0000771  0.4184000  2
   2632   5308   5299   5290     1  0.0000000  1.6024720  3
   2635   5338   5329   5320     1  180.0000771  0.4184000  2
   2635   5338   5329   5320     1  0.0000000  1.6024720  3
   2640   2641   2653   2665     1  0.0000000  0.6508444  3
   2640   2644   2656   2662     1  0.0000000  0.6508444  3
   2640   2647   2650   2659     1  0.0000000  0.6508444  3
   2641   2640   2644   2656     1  0.0000000  0.6508444  3
   2641   2640   2647   2650     1  0.0000000  0.6508444  3
   2641   2653   2665   5398     1  0.0000000  0.6508444  3
   2644   2640   2641   2653     1  0.0000000  0.6508444  3
   2644   2640   2647   2650     1  0.0000000  0.6508444  3
   2644   2656   2662   5368     1  0.0000000  0.6508444  3
   2647   2640   2641   2653     1  0.0000000  0.6508444  3
   2647   2640   2644   2656     1  0.0000000  0.6508444  3
   2647   2650   2659   2668     1  0.0000000  0.6508444  3
   2653   2665   5398   5389     1  180.0000771  0.4184000  2
   2653   2665   5398   5389     1  0.0000000  1.6024720  3
   2656   2662   5368   5359     1  180.0000771  0.4184000  2
   2656   2662   5368   5359     1  0.0000000  1.6024720  3
   2662   5368   5359   5350     1  180.0000771  0.4184000  2
   2662   5368   5359   5350     1  0.0000000  1.6024720  3
   2665   5398   5389   5380     1  180.0000771  0.4184000  2
   2665   5398   5389   5380     1  0.0000000  1.6024720  3
   2670   2671   2683   2695     1  0.0000000  0.6508444  3
   2670   2674   2686   2692     1  0.0000000  0.6508444  3
   2670   2677   2680   2689     1  0.0000000  0.6508444  3
   2671   2670   2674   2686     1  0.0000000  0.6508444  3
   2671   2670   2677   2680     1  0.0000000  0.6508444  3
   2671   2683   2695   5458     1  0.0000000  0.6508444  3
   2674   2670   2671   2683     1  0.0000000  0.6508444  3
   2674   2670   2677   2680     1  0.0000000  0.6508444  3
   2674   2686   2692   5428     1  0.0000000  0.6508444  3
   2677   2670   2671   2683     1  0.0000000  0.6508444  3
   2677   2670   2674   2686     1  0.0000000  0.6508444  3
   2677   2680   2689   2698     1  0.0000000  0.6508444  3
   2683   2695   5458   5449     1  180.0000771  0.4184000  2
   2683   2695   5458   5449     1  0.0000000  1.6024720  3
   2686   2692   5428   5419     1  180.0000771  0.4184000  2
   2686   2692   5428   5419     1  0.0000000  1.6024720  3
   2692   5428   5419   5410     1  180.0000771  0.4184000  2
   2692   5428   5419   5410     1  0.0000000  1.6024720  3
   2695   5458   5449   5440     1  180.0000771  0.4184000  2
   2695   5458   5449   5440     1  0.0000000  1.6024720  3
   2700   2701   2713   2725     1  0.0000000  0.6508444  3
   2700   2704   2716   2722     1  0.0000000  0.6508444  3
   2700   2707   2710   2719     1  0.0000000  0.6508444  3
   2701   2700   2704   2716     1  0.0000000  0.6508444  3
   2701   2700   2707   2710     1  0.0000000  0.6508444  3
   2701   2713   2725   5518     1  0.0000000  0.6508444  3
   2704   2700   2701   2713     1  0.0000000  0.6508444  3
   2704   2700   2707   2710     1  0.0000000  0.6508444  3
   2704   2716   2722   5488     1  0.0000000  0.6508444  3
   2707   2700   2701   2713     1  0.0000000  0.6508444  3
   2707   2700   2704   2716     1  0.0000000  0.6508444  3
   2707   2710   2719   2728     1  0.0000000  0.6508444  3
   2713   2725   5518   5509     1  180.0000771  0.4184000  2
   2713   2725   5518   5509     1  0.0000000  1.6024720  3
   2716   2722   5488   5479     1  180.0000771  0.4184000  2
   2716   2722   5488   5479     1  0.0000000  1.6024720  3
   2722   5488   5479   5470     1  180.0000771  0.4184000  2
   2722   5488   5479   5470     1  0.0000000  1.6024720  3
   2725   5518   5509   5500     1  180.0000771  0.4184000  2
   2725   5518   5509   5500     1  0.0000000  1.6024720  3
   2730   2731   2743   2755     1  0.0000000  0.6508444  3
   2730   2734   2746   2752     1  0.0000000  0.6508444  3
   2730   2737   2740   2749     1  0.0000000  0.6508444  3
   2731   2730   2734   2746     1  0.0000000  0.6508444  3
   2731   2730   2737   2740     1  0.0000000  0.6508444  3
   2731   2743   2755   5578     1  0.0000000  0.6508444  3
   2734   2730   2731   2743     1  0.0000000  0.6508444  3
   2734   2730   2737   2740     1  0.0000000  0.6508444  3
   2734   2746   2752   5548     1  0.0000000  0.6508444  3
   2737   2730   2731   2743     1  0.0000000  0.6508444  3
   2737   2730   2734   2746     1  0.0000000  0.6508444  3
   2737   2740   2749   2758     1  0.0000000  0.6508444  3
   2743   2755   5578   5569     1  180.0000771  0.4184000  2
   2743   2755   5578   5569     1  0.0000000  1.6024720  3
   2746   2752   5548   5539     1  180.0000771  0.4184000  2
   2746   2752   5548   5539     1  0.0000000  1.6024720  3
   2752   5548   5539   5530     1  180.0000771  0.4184000  2
   2752   5548   5539   5530     1  0.0000000  1.6024720  3
   2755   5578   5569   5560     1  180.0000771  0.4184000  2
   2755   5578   5569   5560     1  0.0000000  1.6024720  3
   2760   2761   2773   2785     1  0.0000000  0.6508444  3
   2760   2764   2776   2782     1  0.0000000  0.6508444  3
   2760   2767   2770   2779     1  0.0000000  0.6508444  3
   2761   2760   2764   2776     1  0.0000000  0.6508444  3
   2761   2760   2767   2770     1  0.0000000  0.6508444  3
   2761   2773   2785   5638     1  0.0000000  0.6508444  3
   2764   2760   2761   2773     1  0.0000000  0.6508444  3
   2764   2760   2767   2770     1  0.0000000  0.6508444  3
   2764   2776   2782   5608     1  0.0000000  0.6508444  3
   2767   2760   2761   2773     1  0.0000000  0.6508444  3
   2767   2760   2764   2776     1  0.0000000  0.6508444  3
   2767   2770   2779   2788     1  0.0000000  0.6508444  3
   2773   2785   5638   5629     1  180.0000771  0.4184000  2
   2773   2785   5638   5629     1  0.0000000  1.6024720  3
   2776   2782   5608   5599     1  180.0000771  0.4184000  2
   2776   2782   5608   5599     1  0.0000000  1.6024720  3
   2782   5608   5599   5590     1  180.0000771  0.4184000  2
   2782   5608   5599   5590     1  0.0000000  1.6024720  3
   2785   5638   5629   5620     1  180.0000771  0.4184000  2
   2785   5638   5629   5620     1  0.0000000  1.6024720  3
   2790   2791   2803   2815     1  0.0000000  0.6508444  3
   2790   2794   2806   2812     1  0.0000000  0.6508444  3
   2790   2797   2800   2809     1  0.0000000  0.6508444  3
   2791   2790   2794   2806     1  0.0000000  0.6508444  3
   2791   2790   2797   2800     1  0.0000000  0.6508444  3
   2791   2803   2815   5698     1  0.0000000  0.6508444  3
   2794   2790   2791   2803     1  0.0000000  0.6508444  3
   2794   2790   2797   2800     1  0.0000000  0.6508444  3
   2794   2806   2812   5668     1  0.0000000  0.6508444  3
   2797   2790   2791   2803     1  0.0000000  0.6508444  3
   2797   2790   2794   2806     1  0.0000000  0.6508444  3
   2797   2800   2809   2818     1  0.0000000  0.6508444  3
   2803   2815   5698   5689     1  180.0000771  0.4184000  2
   2803   2815   5698   5689     1  0.0000000  1.6024720  3
   2806   2812   5668   5659     1  180.0000771  0.4184000  2
   2806   2812   5668   5659     1  0.0000000  1.6024720  3
   2812   5668   5659   5650     1  180.0000771  0.4184000  2
   2812   5668   5659   5650     1  0.0000000  1.6024720  3
   2815   5698   5689   5680     1  180.0000771  0.4184000  2
   2815   5698   5689   5680     1  0.0000000  1.6024720  3
   2820   2821   2833   2845     1  0.0000000  0.6508444  3
   2820   2824   2836   2842     1  0.0000000  0.6508444  3
   2820   2827   2830   2839     1  0.0000000  0.6508444  3
   2821   2820   2824   2836     1  0.0000000  0.6508444  3
   2821   2820   2827   2830     1  0.0000000  0.6508444  3
   2821   2833   2845   5733     1  0.0000000  0.6508444  3
   2824   2820   2821   2833     1  0.0000000  0.6508444  3
   2824   2820   2827   2830     1  0.0000000  0.6508444  3
   2824   2836   2842   5710     1  0.0000000  0.6508444  3
   2827   2820   2821   2833     1  0.0000000  0.6508444  3
   2827   2820   2824   2836     1  0.0000000  0.6508444  3
   2827   2830   2839   2848     1  0.0000000  0.6508444  3
   2833   2845   5733   5729     1  180.0000771  0.4184000  2
   2833   2845   5733   5729     1  0.0000000  1.6024720  3
   2836   2842   5710   5706     1  180.0000771  0.4184000  2
   2836   2842   5710   5706     1  0.0000000  1.6024720  3
   2842   5710   5706   5705     1  180.0000771  0.4184000  2
   2842   5710   5706   5705     1  0.0000000  1.6024720  3
   2842   5710   5706   5722     1  180.0000771  5.6484000  1
   2842   5710   5706   5722     1  180.0000771  3.5564000  2
   2842   5710   5706   5722     1  0.0000000  0.4184000  3
   2845   5733   5729   5745     1  180.0000771  5.6484000  1
   2845   5733   5729   5745     1  180.0000771  3.5564000  2
   2845   5733   5729   5745     1  0.0000000  0.4184000  3
   2845   5733   5729   5728     1  180.0000771  0.4184000  2
   2845   5733   5729   5728     1  0.0000000  1.6024720  3
   2850   2851   2863   2875     1  0.0000000  0.6508444  3
   2850   2854   2866   2872     1  0.0000000  0.6508444  3
   2850   2857   2860   2869     1  0.0000000  0.6508444  3
   2851   2850   2854   2866     1  0.0000000  0.6508444  3
   2851   2850   2857   2860     1  0.0000000  0.6508444  3
   2851   2863   2875   5779     1  0.0000000  0.6508444  3
   2854   2850   2851   2863     1  0.0000000  0.6508444  3
   2854   2850   2857   2860     1  0.0000000  0.6508444  3
   2854   2866   2872   5756     1  0.0000000  0.6508444  3
   2857   2850   2851   2863     1  0.0000000  0.6508444  3
   2857   2850   2854   2866     1  0.0000000  0.6508444  3
   2857   2860   2869   2878     1  0.0000000  0.6508444  3
   2863   2875   5779   5775     1  180.0000771  0.4184000  2
   2863   2875   5779   5775     1  0.0000000  1.6024720  3
   2866   2872   5756   5752     1  180.0000771  0.4184000  2
   2866   2872   5756   5752     1  0.0000000  1.6024720  3
   2872   5756   5752   5751     1  180.0000771  0.4184000  2
   2872   5756   5752   5751     1  0.0000000  1.6024720  3
   2872   5756   5752   5768     1  180.0000771  5.6484000  1
   2872   5756   5752   5768     1  180.0000771  3.5564000  2
   2872   5756   5752   5768     1  0.0000000  0.4184000  3
   2875   5779   5775   5791     1  180.0000771  5.6484000  1
   2875   5779   5775   5791     1  180.0000771  3.5564000  2
   2875   5779   5775   5791     1  0.0000000  0.4184000  3
   2875   5779   5775   5774     1  180.0000771  0.4184000  2
   2875   5779   5775   5774     1  0.0000000  1.6024720  3
   2880   2881   2893   2905     1  0.0000000  0.6508444  3
   2880   2884   2896   2902     1  0.0000000  0.6508444  3
   2880   2887   2890   2899     1  0.0000000  0.6508444  3
   2881   2880   2884   2896     1  0.0000000  0.6508444  3
   2881   2880   2887   2890     1  0.0000000  0.6508444  3
   2881   2893   2905   5825     1  0.0000000  0.6508444  3
   2884   2880   2881   2893     1  0.0000000  0.6508444  3
   2884   2880   2887   2890     1  0.0000000  0.6508444  3
   2884   2896   2902   5802     1  0.0000000  0.6508444  3
   2887   2880   2881   2893     1  0.0000000  0.6508444  3
   2887   2880   2884   2896     1  0.0000000  0.6508444  3
   2887   2890   2899   2908     1  0.0000000  0.6508444  3
   2893   2905   5825   5821     1  180.0000771  0.4184000  2
   2893   2905   5825   5821     1  0.0000000  1.6024720  3
   2896   2902   5802   5798     1  180.0000771  0.4184000  2
   2896   2902   5802   5798     1  0.0000000  1.6024720  3
   2902   5802   5798   5797     1  180.0000771  0.4184000  2
   2902   5802   5798   5797     1  0.0000000  1.6024720  3
   2902   5802   5798   5814     1  180.0000771  5.6484000  1
   2902   5802   5798   5814     1  180.0000771  3.5564000  2
   2902   5802   5798   5814     1  0.0000000  0.4184000  3
   2905   5825   5821   5837     1  180.0000771  5.6484000  1
   2905   5825   5821   5837     1  180.0000771  3.5564000  2
   2905   5825   5821   5837     1  0.0000000  0.4184000  3
   2905   5825   5821   5820     1  180.0000771  0.4184000  2
   2905   5825   5821   5820     1  0.0000000  1.6024720  3
   2910   2911   2923   2935     1  0.0000000  0.6508444  3
   2910   2914   2926   2932     1  0.0000000  0.6508444  3
   2910   2917   2920   2929     1  0.0000000  0.6508444  3
   2911   2910   2914   2926     1  0.0000000  0.6508444  3
   2911   2910   2917   2920     1  0.0000000  0.6508444  3
   2911   2923   2935   5871     1  0.0000000  0.6508444  3
   2914   2910   2911   2923     1  0.0000000  0.6508444  3
   2914   2910   2917   2920     1  0.0000000  0.6508444  3
   2914   2926   2932   5848     1  0.0000000  0.6508444  3
   2917   2910   2911   2923     1  0.0000000  0.6508444  3
   2917   2910   2914   2926     1  0.0000000  0.6508444  3
   2917   2920   2929   2938     1  0.0000000  0.6508444  3
   2923   2935   5871   5867     1  180.0000771  0.4184000  2
   2923   2935   5871   5867     1  0.0000000  1.6024720  3
   2926   2932   5848   5844     1  180.0000771  0.4184000  2
   2926   2932   5848   5844     1  0.0000000  1.6024720  3
   2932   5848   5844   5843     1  180.0000771  0.4184000  2
   2932   5848   5844   5843     1  0.0000000  1.6024720  3
   2932   5848   5844   5860     1  180.0000771  5.6484000  1
   2932   5848   5844   5860     1  180.0000771  3.5564000  2
   2932   5848   5844   5860     1  0.0000000  0.4184000  3
   2935   5871   5867   5883     1  180.0000771  5.6484000  1
   2935   5871   5867   5883     1  180.0000771  3.5564000  2
   2935   5871   5867   5883     1  0.0000000  0.4184000  3
   2935   5871   5867   5866     1  180.0000771  0.4184000  2
   2935   5871   5867   5866     1  0.0000000  1.6024720  3
   2940   2941   2953   2965     1  0.0000000  0.6508444  3
   2940   2944   2956   2962     1  0.0000000  0.6508444  3
   2940   2947   2950   2959     1  0.0000000  0.6508444  3
   2941   2940   2944   2956     1  0.0000000  0.6508444  3
   2941   2940   2947   2950     1  0.0000000  0.6508444  3
   2941   2953   2965   5917     1  0.0000000  0.6508444  3
   2944   2940   2941   2953     1  0.0000000  0.6508444  3
   2944   2940   2947   2950     1  0.0000000  0.6508444  3
   2944   2956   2962   5894     1  0.0000000  0.6508444  3
   2947   2940   2941   2953     1  0.0000000  0.6508444  3
   2947   2940   2944   2956     1  0.0000000  0.6508444  3
   2947   2950   2959   2968     1  0.0000000  0.6508444  3
   2953   2965   5917   5913     1  180.0000771  0.4184000  2
   2953   2965   5917   5913     1  0.0000000  1.6024720  3
   2956   2962   5894   5890     1  180.0000771  0.4184000  2
   2956   2962   5894   5890     1  0.0000000  1.6024720  3
   2962   5894   5890   5889     1  180.0000771  0.4184000  2
   2962   5894   5890   5889     1  0.0000000  1.6024720  3
   2962   5894   5890   5906     1  180.0000771  5.6484000  1
   2962   5894   5890   5906     1  180.0000771  3.5564000  2
   2962   5894   5890   5906     1  0.0000000  0.4184000  3
   2965   5917   5913   5929     1  180.0000771  5.6484000  1
   2965   5917   5913   5929     1  180.0000771  3.5564000  2
   2965   5917   5913   5929     1  0.0000000  0.4184000  3
   2965   5917   5913   5912     1  180.0000771  0.4184000  2
   2965   5917   5913   5912     1  0.0000000  1.6024720  3
   2970   2971   2983   2995     1  0.0000000  0.6508444  3
   2970   2974   2986   2992     1  0.0000000  0.6508444  3
   2970   2977   2980   2989     1  0.0000000  0.6508444  3
   2971   2970   2974   2986     1  0.0000000  0.6508444  3
   2971   2970   2977   2980     1  0.0000000  0.6508444  3
   2971   2983   2995   5963     1  0.0000000  0.6508444  3
   2974   2970   2971   2983     1  0.0000000  0.6508444  3
   2974   2970   2977   2980     1  0.0000000  0.6508444  3
   2974   2986   2992   5940     1  0.0000000  0.6508444  3
   2977   2970   2971   2983     1  0.0000000  0.6508444  3
   2977   2970   2974   2986     1  0.0000000  0.6508444  3
   2977   2980   2989   2998     1  0.0000000  0.6508444  3
   2983   2995   5963   5959     1  180.0000771  0.4184000  2
   2983   2995   5963   5959     1  0.0000000  1.6024720  3
   2986   2992   5940   5936     1  180.0000771  0.4184000  2
   2986   2992   5940   5936     1  0.0000000  1.6024720  3
   2992   5940   5936   5935     1  180.0000771  0.4184000  2
   2992   5940   5936   5935     1  0.0000000  1.6024720  3
   2992   5940   5936   5952     1  180.0000771  5.6484000  1
   2992   5940   5936   5952     1  180.0000771  3.5564000  2
   2992   5940   5936   5952     1  0.0000000  0.4184000  3
   2995   5963   5959   5975     1  180.0000771  5.6484000  1
   2995   5963   5959   5975     1  180.0000771  3.5564000  2
   2995   5963   5959   5975     1  0.0000000  0.4184000  3
   2995   5963   5959   5958     1  180.0000771  0.4184000  2
   2995   5963   5959   5958     1  0.0000000  1.6024720  3
   3000   3001   3013   3025     1  0.0000000  0.6508444  3
   3000   3004   3016   3022     1  0.0000000  0.6508444  3
   3000   3007   3010   3019     1  0.0000000  0.6508444  3
   3001   3000   3004   3016     1  0.0000000  0.6508444  3
   3001   3000   3007   3010     1  0.0000000  0.6508444  3
   3001   3013   3025   6009     1  0.0000000  0.6508444  3
   3004   3000   3001   3013     1  0.0000000  0.6508444  3
   3004   3000   3007   3010     1  0.0000000  0.6508444  3
   3004   3016   3022   5986     1  0.0000000  0.6508444  3
   3007   3000   3001   3013     1  0.0000000  0.6508444  3
   3007   3000   3004   3016     1  0.0000000  0.6508444  3
   3007   3010   3019   3028     1  0.0000000  0.6508444  3
   3013   3025   6009   6005     1  180.0000771  0.4184000  2
   3013   3025   6009   6005     1  0.0000000  1.6024720  3
   3016   3022   5986   5982     1  180.0000771  0.4184000  2
   3016   3022   5986   5982     1  0.0000000  1.6024720  3
   3022   5986   5982   5981     1  180.0000771  0.4184000  2
   3022   5986   5982   5981     1  0.0000000  1.6024720  3
   3022   5986   5982   5998     1  180.0000771  5.6484000  1
   3022   5986   5982   5998     1  180.0000771  3.5564000  2
   3022   5986   5982   5998     1  0.0000000  0.4184000  3
   3025   6009   6005   6021     1  180.0000771  5.6484000  1
   3025   6009   6005   6021     1  180.0000771  3.5564000  2
   3025   6009   6005   6021     1  0.0000000  0.4184000  3
   3025   6009   6005   6004     1  180.0000771  0.4184000  2
   3025   6009   6005   6004     1  0.0000000  1.6024720  3
   3030   3031   3043   3055     1  0.0000000  0.6508444  3
   3030   3034   3046   3052     1  0.0000000  0.6508444  3
   3030   3037   3040   3049     1  0.0000000  0.6508444  3
   3031   3030   3034   3046     1  0.0000000  0.6508444  3
   3031   3030   3037   3040     1  0.0000000  0.6508444  3
   3031   3043   3055   6055     1  0.0000000  0.6508444  3
   3034   3030   3031   3043     1  0.0000000  0.6508444  3
   3034   3030   3037   3040     1  0.0000000  0.6508444  3
   3034   3046   3052   6032     1  0.0000000  0.6508444  3
   3037   3030   3031   3043     1  0.0000000  0.6508444  3
   3037   3030   3034   3046     1  0.0000000  0.6508444  3
   3037   3040   3049   3058     1  0.0000000  0.6508444  3
   3043   3055   6055   6051     1  180.0000771  0.4184000  2
   3043   3055   6055   6051     1  0.0000000  1.6024720  3
   3046   3052   6032   6028     1  180.0000771  0.4184000  2
   3046   3052   6032   6028     1  0.0000000  1.6024720  3
   3052   6032   6028   6027     1  180.0000771  0.4184000  2
   3052   6032   6028   6027     1  0.0000000  1.6024720  3
   3052   6032   6028   6044     1  180.0000771  5.6484000  1
   3052   6032   6028   6044     1  180.0000771  3.5564000  2
   3052   6032   6028   6044     1  0.0000000  0.4184000  3
   3055   6055   6051   6067     1  180.0000771  5.6484000  1
   3055   6055   6051   6067     1  180.0000771  3.5564000  2
   3055   6055   6051   6067     1  0.0000000  0.4184000  3
   3055   6055   6051   6050     1  180.0000771  0.4184000  2
   3055   6055   6051   6050     1  0.0000000  1.6024720  3
   3060   3061   3073   3085     1  0.0000000  0.6508444  3
   3060   3064   3076   3082     1  0.0000000  0.6508444  3
   3060   3067   3070   3079     1  0.0000000  0.6508444  3
   3061   3060   3064   3076     1  0.0000000  0.6508444  3
   3061   3060   3067   3070     1  0.0000000  0.6508444  3
   3061   3073   3085   6101     1  0.0000000  0.6508444  3
   3064   3060   3061   3073     1  0.0000000  0.6508444  3
   3064   3060   3067   3070     1  0.0000000  0.6508444  3
   3064   3076   3082   6078     1  0.0000000  0.6508444  3
   3067   3060   3061   3073     1  0.0000000  0.6508444  3
   3067   3060   3064   3076     1  0.0000000  0.6508444  3
   3067   3070   3079   3088     1  0.0000000  0.6508444  3
   3073   3085   6101   6097     1  180.0000771  0.4184000  2
   3073   3085   6101   6097     1  0.0000000  1.6024720  3
   3076   3082   6078   6074     1  180.0000771  0.4184000  2
   3076   3082   6078   6074     1  0.0000000  1.6024720  3
   3082   6078   6074   6073     1  180.0000771  0.4184000  2
   3082   6078   6074   6073     1  0.0000000  1.6024720  3
   3082   6078   6074   6090     1  180.0000771  5.6484000  1
   3082   6078   6074   6090     1  180.0000771  3.5564000  2
   3082   6078   6074   6090     1  0.0000000  0.4184000  3
   3085   6101   6097   6113     1  180.0000771  5.6484000  1
   3085   6101   6097   6113     1  180.0000771  3.5564000  2
   3085   6101   6097   6113     1  0.0000000  0.4184000  3
   3085   6101   6097   6096     1  180.0000771  0.4184000  2
   3085   6101   6097   6096     1  0.0000000  1.6024720  3
   3090   3091   3103   3115     1  0.0000000  0.6508444  3
   3090   3094   3106   3112     1  0.0000000  0.6508444  3
   3090   3097   3100   3109     1  0.0000000  0.6508444  3
   3091   3090   3094   3106     1  0.0000000  0.6508444  3
   3091   3090   3097   3100     1  0.0000000  0.6508444  3
   3091   3103   3115   6147     1  0.0000000  0.6508444  3
   3094   3090   3091   3103     1  0.0000000  0.6508444  3
   3094   3090   3097   3100     1  0.0000000  0.6508444  3
   3094   3106   3112   6124     1  0.0000000  0.6508444  3
   3097   3090   3091   3103     1  0.0000000  0.6508444  3
   3097   3090   3094   3106     1  0.0000000  0.6508444  3
   3097   3100   3109   3118     1  0.0000000  0.6508444  3
   3103   3115   6147   6143     1  180.0000771  0.4184000  2
   3103   3115   6147   6143     1  0.0000000  1.6024720  3
   3106   3112   6124   6120     1  180.0000771  0.4184000  2
   3106   3112   6124   6120     1  0.0000000  1.6024720  3
   3112   6124   6120   6119     1  180.0000771  0.4184000  2
   3112   6124   6120   6119     1  0.0000000  1.6024720  3
   3112   6124   6120   6136     1  180.0000771  5.6484000  1
   3112   6124   6120   6136     1  180.0000771  3.5564000  2
   3112   6124   6120   6136     1  0.0000000  0.4184000  3
   3115   6147   6143   6159     1  180.0000771  5.6484000  1
   3115   6147   6143   6159     1  180.0000771  3.5564000  2
   3115   6147   6143   6159     1  0.0000000  0.4184000  3
   3115   6147   6143   6142     1  180.0000771  0.4184000  2
   3115   6147   6143   6142     1  0.0000000  1.6024720  3
   3120   3121   3133   3145     1  0.0000000  0.6508444  3
   3120   3124   3136   3142     1  0.0000000  0.6508444  3
   3120   3127   3130   3139     1  0.0000000  0.6508444  3
   3121   3120   3124   3136     1  0.0000000  0.6508444  3
   3121   3120   3127   3130     1  0.0000000  0.6508444  3
   3121   3133   3145   6193     1  0.0000000  0.6508444  3
   3124   3120   3121   3133     1  0.0000000  0.6508444  3
   3124   3120   3127   3130     1  0.0000000  0.6508444  3
   3124   3136   3142   6170     1  0.0000000  0.6508444  3
   3127   3120   3121   3133     1  0.0000000  0.6508444  3
   3127   3120   3124   3136     1  0.0000000  0.6508444  3
   3127   3130   3139   3148     1  0.0000000  0.6508444  3
   3133   3145   6193   6189     1  180.0000771  0.4184000  2
   3133   3145   6193   6189     1  0.0000000  1.6024720  3
   3136   3142   6170   6166     1  180.0000771  0.4184000  2
   3136   3142   6170   6166     1  0.0000000  1.6024720  3
   3142   6170   6166   6165     1  180.0000771  0.4184000  2
   3142   6170   6166   6165     1  0.0000000  1.6024720  3
   3142   6170   6166   6182     1  180.0000771  5.6484000  1
   3142   6170   6166   6182     1  180.0000771  3.5564000  2
   3142   6170   6166   6182     1  0.0000000  0.4184000  3
   3145   6193   6189   6205     1  180.0000771  5.6484000  1
   3145   6193   6189   6205     1  180.0000771  3.5564000  2
   3145   6193   6189   6205     1  0.0000000  0.4184000  3
   3145   6193   6189   6188     1  180.0000771  0.4184000  2
   3145   6193   6189   6188     1  0.0000000  1.6024720  3
   3150   3151   3163   3175     1  0.0000000  0.6508444  3
   3150   3154   3166   3172     1  0.0000000  0.6508444  3
   3150   3157   3160   3169     1  0.0000000  0.6508444  3
   3151   3150   3154   3166     1  0.0000000  0.6508444  3
   3151   3150   3157   3160     1  0.0000000  0.6508444  3
   3151   3163   3175   6239     1  0.0000000  0.6508444  3
   3154   3150   3151   3163     1  0.0000000  0.6508444  3
   3154   3150   3157   3160     1  0.0000000  0.6508444  3
   3154   3166   3172   6216     1  0.0000000  0.6508444  3
   3157   3150   3151   3163     1  0.0000000  0.6508444  3
   3157   3150   3154   3166     1  0.0000000  0.6508444  3
   3157   3160   3169   3178     1  0.0000000  0.6508444  3
   3163   3175   6239   6235     1  180.0000771  0.4184000  2
   3163   3175   6239   6235     1  0.0000000  1.6024720  3
   3166   3172   6216   6212     1  180.0000771  0.4184000  2
   3166   3172   6216   6212     1  0.0000000  1.6024720  3
   3172   6216   6212   6211     1  180.0000771  0.4184000  2
   3172   6216   6212   6211     1  0.0000000  1.6024720  3
   3172   6216   6212   6228     1  180.0000771  5.6484000  1
   3172   6216   6212   6228     1  180.0000771  3.5564000  2
   3172   6216   6212   6228     1  0.0000000  0.4184000  3
   3175   6239   6235   6251     1  180.0000771  5.6484000  1
   3175   6239   6235   6251     1  180.0000771  3.5564000  2
   3175   6239   6235   6251     1  0.0000000  0.4184000  3
   3175   6239   6235   6234     1  180.0000771  0.4184000  2
   3175   6239   6235   6234     1  0.0000000  1.6024720  3
   3180   3181   3193   3205     1  0.0000000  0.6508444  3
   3180   3184   3196   3202     1  0.0000000  0.6508444  3
   3180   3187   3190   3199     1  0.0000000  0.6508444  3
   3181   3180   3184   3196     1  0.0000000  0.6508444  3
   3181   3180   3187   3190     1  0.0000000  0.6508444  3
   3181   3193   3205   6285     1  0.0000000  0.6508444  3
   3184   3180   3181   3193     1  0.0000000  0.6508444  3
   3184   3180   3187   3190     1  0.0000000  0.6508444  3
   3184   3196   3202   6262     1  0.0000000  0.6508444  3
   3187   3180   3181   3193     1  0.0000000  0.6508444  3
   3187   3180   3184   3196     1  0.0000000  0.6508444  3
   3187   3190   3199   3208     1  0.0000000  0.6508444  3
   3193   3205   6285   6281     1  180.0000771  0.4184000  2
   3193   3205   6285   6281     1  0.0000000  1.6024720  3
   3196   3202   6262   6258     1  180.0000771  0.4184000  2
   3196   3202   6262   6258     1  0.0000000  1.6024720  3
   3202   6262   6258   6257     1  180.0000771  0.4184000  2
   3202   6262   6258   6257     1  0.0000000  1.6024720  3
   3202   6262   6258   6274     1  180.0000771  5.6484000  1
   3202   6262   6258   6274     1  180.0000771  3.5564000  2
   3202   6262   6258   6274     1  0.0000000  0.4184000  3
   3205   6285   6281   6297     1  180.0000771  5.6484000  1
   3205   6285   6281   6297     1  180.0000771  3.5564000  2
   3205   6285   6281   6297     1  0.0000000  0.4184000  3
   3205   6285   6281   6280     1  180.0000771  0.4184000  2
   3205   6285   6281   6280     1  0.0000000  1.6024720  3
   3210   3211   3223   3235     1  0.0000000  0.6508444  3
   3210   3214   3226   3232     1  0.0000000  0.6508444  3
   3210   3217   3220   3229     1  0.0000000  0.6508444  3
   3211   3210   3214   3226     1  0.0000000  0.6508444  3
   3211   3210   3217   3220     1  0.0000000  0.6508444  3
   3211   3223   3235   6331     1  0.0000000  0.6508444  3
   3214   3210   3211   3223     1  0.0000000  0.6508444  3
   3214   3210   3217   3220     1  0.0000000  0.6508444  3
   3214   3226   3232   6308     1  0.0000000  0.6508444  3
   3217   3210   3211   3223     1  0.0000000  0.6508444  3
   3217   3210   3214   3226     1  0.0000000  0.6508444  3
   3217   3220   3229   3238     1  0.0000000  0.6508444  3
   3223   3235   6331   6327     1  180.0000771  0.4184000  2
   3223   3235   6331   6327     1  0.0000000  1.6024720  3
   3226   3232   6308   6304     1  180.0000771  0.4184000  2
   3226   3232   6308   6304     1  0.0000000  1.6024720  3
   3232   6308   6304   6303     1  180.0000771  0.4184000  2
   3232   6308   6304   6303     1  0.0000000  1.6024720  3
   3232   6308   6304   6320     1  180.0000771  5.6484000  1
   3232   6308   6304   6320     1  180.0000771  3.5564000  2
   3232   6308   6304   6320     1  0.0000000  0.4184000  3
   3235   6331   6327   6343     1  180.0000771  5.6484000  1
   3235   6331   6327   6343     1  180.0000771  3.5564000  2
   3235   6331   6327   6343     1  0.0000000  0.4184000  3
   3235   6331   6327   6326     1  180.0000771  0.4184000  2
   3235   6331   6327   6326     1  0.0000000  1.6024720  3
   3240   3241   3253   3265     1  0.0000000  0.6508444  3
   3240   3244   3256   3262     1  0.0000000  0.6508444  3
   3240   3247   3250   3259     1  0.0000000  0.6508444  3
   3241   3240   3244   3256     1  0.0000000  0.6508444  3
   3241   3240   3247   3250     1  0.0000000  0.6508444  3
   3241   3253   3265   6377     1  0.0000000  0.6508444  3
   3244   3240   3241   3253     1  0.0000000  0.6508444  3
   3244   3240   3247   3250     1  0.0000000  0.6508444  3
   3244   3256   3262   6354     1  0.0000000  0.6508444  3
   3247   3240   3241   3253     1  0.0000000  0.6508444  3
   3247   3240   3244   3256     1  0.0000000  0.6508444  3
   3247   3250   3259   3268     1  0.0000000  0.6508444  3
   3253   3265   6377   6373     1  180.0000771  0.4184000  2
   3253   3265   6377   6373     1  0.0000000  1.6024720  3
   3256   3262   6354   6350     1  180.0000771  0.4184000  2
   3256   3262   6354   6350     1  0.0000000  1.6024720  3
   3262   6354   6350   6349     1  180.0000771  0.4184000  2
   3262   6354   6350   6349     1  0.0000000  1.6024720  3
   3262   6354   6350   6366     1  180.0000771  5.6484000  1
   3262   6354   6350   6366     1  180.0000771  3.5564000  2
   3262   6354   6350   6366     1  0.0000000  0.4184000  3
   3265   6377   6373   6389     1  180.0000771  5.6484000  1
   3265   6377   6373   6389     1  180.0000771  3.5564000  2
   3265   6377   6373   6389     1  0.0000000  0.4184000  3
   3265   6377   6373   6372     1  180.0000771  0.4184000  2
   3265   6377   6373   6372     1  0.0000000  1.6024720  3
   3270   3271   3283   3295     1  0.0000000  0.6508444  3
   3270   3274   3286   3292     1  0.0000000  0.6508444  3
   3270   3277   3280   3289     1  0.0000000  0.6508444  3
   3271   3270   3274   3286     1  0.0000000  0.6508444  3
   3271   3270   3277   3280     1  0.0000000  0.6508444  3
   3271   3283   3295   6423     1  0.0000000  0.6508444  3
   3274   3270   3271   3283     1  0.0000000  0.6508444  3
   3274   3270   3277   3280     1  0.0000000  0.6508444  3
   3274   3286   3292   6400     1  0.0000000  0.6508444  3
   3277   3270   3271   3283     1  0.0000000  0.6508444  3
   3277   3270   3274   3286     1  0.0000000  0.6508444  3
   3277   3280   3289   3298     1  0.0000000  0.6508444  3
   3283   3295   6423   6419     1  180.0000771  0.4184000  2
   3283   3295   6423   6419     1  0.0000000  1.6024720  3
   3286   3292   6400   6396     1  180.0000771  0.4184000  2
   3286   3292   6400   6396     1  0.0000000  1.6024720  3
   3292   6400   6396   6395     1  180.0000771  0.4184000  2
   3292   6400   6396   6395     1  0.0000000  1.6024720  3
   3292   6400   6396   6412     1  180.0000771  5.6484000  1
   3292   6400   6396   6412     1  180.0000771  3.5564000  2
   3292   6400   6396   6412     1  0.0000000  0.4184000  3
   3295   6423   6419   6435     1  180.0000771  5.6484000  1
   3295   6423   6419   6435     1  180.0000771  3.5564000  2
   3295   6423   6419   6435     1  0.0000000  0.4184000  3
   3295   6423   6419   6418     1  180.0000771  0.4184000  2
   3295   6423   6419   6418     1  0.0000000  1.6024720  3
   3300   3301   3313   3325     1  0.0000000  0.6508444  3
   3300   3304   3316   3322     1  0.0000000  0.6508444  3
   3300   3307   3310   3319     1  0.0000000  0.6508444  3
   3301   3300   3304   3316     1  0.0000000  0.6508444  3
   3301   3300   3307   3310     1  0.0000000  0.6508444  3
   3301   3313   3325   6469     1  0.0000000  0.6508444  3
   3304   3300   3301   3313     1  0.0000000  0.6508444  3
   3304   3300   3307   3310     1  0.0000000  0.6508444  3
   3304   3316   3322   6446     1  0.0000000  0.6508444  3
   3307   3300   3301   3313     1  0.0000000  0.6508444  3
   3307   3300   3304   3316     1  0.0000000  0.6508444  3
   3307   3310   3319   3328     1  0.0000000  0.6508444  3
   3313   3325   6469   6465     1  180.0000771  0.4184000  2
   3313   3325   6469   6465     1  0.0000000  1.6024720  3
   3316   3322   6446   6442     1  180.0000771  0.4184000  2
   3316   3322   6446   6442     1  0.0000000  1.6024720  3
   3322   6446   6442   6441     1  180.0000771  0.4184000  2
   3322   6446   6442   6441     1  0.0000000  1.6024720  3
   3322   6446   6442   6458     1  180.0000771  5.6484000  1
   3322   6446   6442   6458     1  180.0000771  3.5564000  2
   3322   6446   6442   6458     1  0.0000000  0.4184000  3
   3325   6469   6465   6481     1  180.0000771  5.6484000  1
   3325   6469   6465   6481     1  180.0000771  3.5564000  2
   3325   6469   6465   6481     1  0.0000000  0.4184000  3
   3325   6469   6465   6464     1  180.0000771  0.4184000  2
   3325   6469   6465   6464     1  0.0000000  1.6024720  3
   3330   3331   3343   3355     1  0.0000000  0.6508444  3
   3330   3334   3346   3352     1  0.0000000  0.6508444  3
   3330   3337   3340   3349     1  0.0000000  0.6508444  3
   3331   3330   3334   3346     1  0.0000000  0.6508444  3
   3331   3330   3337   3340     1  0.0000000  0.6508444  3
   3331   3343   3355   6515     1  0.0000000  0.6508444  3
   3334   3330   3331   3343     1  0.0000000  0.6508444  3
   3334   3330   3337   3340     1  0.0000000  0.6508444  3
   3334   3346   3352   6492     1  0.0000000  0.6508444  3
   3337   3330   3331   3343     1  0.0000000  0.6508444  3
   3337   3330   3334   3346     1  0.0000000  0.6508444  3
   3337   3340   3349   3358     1  0.0000000  0.6508444  3
   3343   3355   6515   6511     1  180.0000771  0.4184000  2
   3343   3355   6515   6511     1  0.0000000  1.6024720  3
   3346   3352   6492   6488     1  180.0000771  0.4184000  2
   3346   3352   6492   6488     1  0.0000000  1.6024720  3
   3352   6492   6488   6487     1  180.0000771  0.4184000  2
   3352   6492   6488   6487     1  0.0000000  1.6024720  3
   3352   6492   6488   6504     1  180.0000771  5.6484000  1
   3352   6492   6488   6504     1  180.0000771  3.5564000  2
   3352   6492   6488   6504     1  0.0000000  0.4184000  3
   3355   6515   6511   6527     1  180.0000771  5.6484000  1
   3355   6515   6511   6527     1  180.0000771  3.5564000  2
   3355   6515   6511   6527     1  0.0000000  0.4184000  3
   3355   6515   6511   6510     1  180.0000771  0.4184000  2
   3355   6515   6511   6510     1  0.0000000  1.6024720  3
   3360   3361   3373   3385     1  0.0000000  0.6508444  3
   3360   3364   3376   3382     1  0.0000000  0.6508444  3
   3360   3367   3370   3379     1  0.0000000  0.6508444  3
   3361   3360   3364   3376     1  0.0000000  0.6508444  3
   3361   3360   3367   3370     1  0.0000000  0.6508444  3
   3361   3373   3385   6561     1  0.0000000  0.6508444  3
   3364   3360   3361   3373     1  0.0000000  0.6508444  3
   3364   3360   3367   3370     1  0.0000000  0.6508444  3
   3364   3376   3382   6538     1  0.0000000  0.6508444  3
   3367   3360   3361   3373     1  0.0000000  0.6508444  3
   3367   3360   3364   3376     1  0.0000000  0.6508444  3
   3367   3370   3379   3388     1  0.0000000  0.6508444  3
   3373   3385   6561   6557     1  180.0000771  0.4184000  2
   3373   3385   6561   6557     1  0.0000000  1.6024720  3
   3376   3382   6538   6534     1  180.0000771  0.4184000  2
   3376   3382   6538   6534     1  0.0000000  1.6024720  3
   3382   6538   6534   6533     1  180.0000771  0.4184000  2
   3382   6538   6534   6533     1  0.0000000  1.6024720  3
   3382   6538   6534   6550     1  180.0000771  5.6484000  1
   3382   6538   6534   6550     1  180.0000771  3.5564000  2
   3382   6538   6534   6550     1  0.0000000  0.4184000  3
   3385   6561   6557   6573     1  180.0000771  5.6484000  1
   3385   6561   6557   6573     1  180.0000771  3.5564000  2
   3385   6561   6557   6573     1  0.0000000  0.4184000  3
   3385   6561   6557   6556     1  180.0000771  0.4184000  2
   3385   6561   6557   6556     1  0.0000000  1.6024720  3
   3390   3391   3403   3415     1  0.0000000  0.6508444  3
   3390   3394   3406   3412     1  0.0000000  0.6508444  3
   3390   3397   3400   3409     1  0.0000000  0.6508444  3
   3391   3390   3394   3406     1  0.0000000  0.6508444  3
   3391   3390   3397   3400     1  0.0000000  0.6508444  3
   3391   3403   3415   6607     1  0.0000000  0.6508444  3
   3394   3390   3391   3403     1  0.0000000  0.6508444  3
   3394   3390   3397   3400     1  0.0000000  0.6508444  3
   3394   3406   3412   6584     1  0.0000000  0.6508444  3
   3397   3390   3391   3403     1  0.0000000  0.6508444  3
   3397   3390   3394   3406     1  0.0000000  0.6508444  3
   3397   3400   3409   3418     1  0.0000000  0.6508444  3
   3403   3415   6607   6603     1  180.0000771  0.4184000  2
   3403   3415   6607   6603     1  0.0000000  1.6024720  3
   3406   3412   6584   6580     1  180.0000771  0.4184000  2
   3406   3412   6584   6580     1  0.0000000  1.6024720  3
   3412   6584   6580   6579     1  180.0000771  0.4184000  2
   3412   6584   6580   6579     1  0.0000000  1.6024720  3
   3412   6584   6580   6596     1  180.0000771  5.6484000  1
   3412   6584   6580   6596     1  180.0000771  3.5564000  2
   3412   6584   6580   6596     1  0.0000000  0.4184000  3
   3415   6607   6603   6619     1  180.0000771  5.6484000  1
   3415   6607   6603   6619     1  180.0000771  3.5564000  2
   3415   6607   6603   6619     1  0.0000000  0.4184000  3
   3415   6607   6603   6602     1  180.0000771  0.4184000  2
   3415   6607   6603   6602     1  0.0000000  1.6024720  3
   3420   3421   3433   3445     1  0.0000000  0.6508444  3
   3420   3424   3436   3442     1  0.0000000  0.6508444  3
   3420   3427   3430   3439     1  0.0000000  0.6508444  3
   3421   3420   3424   3436     1  0.0000000  0.6508444  3
   3421   3420   3427   3430     1  0.0000000  0.6508444  3
   3421   3433   3445   6653     1  0.0000000  0.6508444  3
   3424   3420   3421   3433     1  0.0000000  0.6508444  3
   3424   3420   3427   3430     1  0.0000000  0.6508444  3
   3424   3436   3442   6630     1  0.0000000  0.6508444  3
   3427   3420   3421   3433     1  0.0000000  0.6508444  3
   3427   3420   3424   3436     1  0.0000000  0.6508444  3
   3427   3430   3439   3448     1  0.0000000  0.6508444  3
   3433   3445   6653   6649     1  180.0000771  0.4184000  2
   3433   3445   6653   6649     1  0.0000000  1.6024720  3
   3436   3442   6630   6626     1  180.0000771  0.4184000  2
   3436   3442   6630   6626     1  0.0000000  1.6024720  3
   3442   6630   6626   6625     1  180.0000771  0.4184000  2
   3442   6630   6626   6625     1  0.0000000  1.6024720  3
   3442   6630   6626   6642     1  180.0000771  5.6484000  1
   3442   6630   6626   6642     1  180.0000771  3.5564000  2
   3442   6630   6626   6642     1  0.0000000  0.4184000  3
   3445   6653   6649   6665     1  180.0000771  5.6484000  1
   3445   6653   6649   6665     1  180.0000771  3.5564000  2
   3445   6653   6649   6665     1  0.0000000  0.4184000  3
   3445   6653   6649   6648     1  180.0000771  0.4184000  2
   3445   6653   6649   6648     1  0.0000000  1.6024720  3
   3450   3451   3463   3475     1  0.0000000  0.6508444  3
   3450   3454   3466   3472     1  0.0000000  0.6508444  3
   3450   3457   3460   3469     1  0.0000000  0.6508444  3
   3451   3450   3454   3466     1  0.0000000  0.6508444  3
   3451   3450   3457   3460     1  0.0000000  0.6508444  3
   3451   3463   3475   6699     1  0.0000000  0.6508444  3
   3454   3450   3451   3463     1  0.0000000  0.6508444  3
   3454   3450   3457   3460     1  0.0000000  0.6508444  3
   3454   3466   3472   6676     1  0.0000000  0.6508444  3
   3457   3450   3451   3463     1  0.0000000  0.6508444  3
   3457   3450   3454   3466     1  0.0000000  0.6508444  3
   3457   3460   3469   3478     1  0.0000000  0.6508444  3
   3463   3475   6699   6695     1  180.0000771  0.4184000  2
   3463   3475   6699   6695     1  0.0000000  1.6024720  3
   3466   3472   6676   6672     1  180.0000771  0.4184000  2
   3466   3472   6676   6672     1  0.0000000  1.6024720  3
   3472   6676   6672   6671     1  180.0000771  0.4184000  2
   3472   6676   6672   6671     1  0.0000000  1.6024720  3
   3472   6676   6672   6688     1  180.0000771  5.6484000  1
   3472   6676   6672   6688     1  180.0000771  3.5564000  2
   3472   6676   6672   6688     1  0.0000000  0.4184000  3
   3475   6699   6695   6711     1  180.0000771  5.6484000  1
   3475   6699   6695   6711     1  180.0000771  3.5564000  2
   3475   6699   6695   6711     1  0.0000000  0.4184000  3
   3475   6699   6695   6694     1  180.0000771  0.4184000  2
   3475   6699   6695   6694     1  0.0000000  1.6024720  3
   3480   3481   3493   3505     1  0.0000000  0.6508444  3
   3480   3484   3496   3502     1  0.0000000  0.6508444  3
   3480   3487   3490   3499     1  0.0000000  0.6508444  3
   3481   3480   3484   3496     1  0.0000000  0.6508444  3
   3481   3480   3487   3490     1  0.0000000  0.6508444  3
   3481   3493   3505   6745     1  0.0000000  0.6508444  3
   3484   3480   3481   3493     1  0.0000000  0.6508444  3
   3484   3480   3487   3490     1  0.0000000  0.6508444  3
   3484   3496   3502   6722     1  0.0000000  0.6508444  3
   3487   3480   3481   3493     1  0.0000000  0.6508444  3
   3487   3480   3484   3496     1  0.0000000  0.6508444  3
   3487   3490   3499   3508     1  0.0000000  0.6508444  3
   3493   3505   6745   6741     1  180.0000771  0.4184000  2
   3493   3505   6745   6741     1  0.0000000  1.6024720  3
   3496   3502   6722   6718     1  180.0000771  0.4184000  2
   3496   3502   6722   6718     1  0.0000000  1.6024720  3
   3502   6722   6718   6717     1  180.0000771  0.4184000  2
   3502   6722   6718   6717     1  0.0000000  1.6024720  3
   3502   6722   6718   6734     1  180.0000771  5.6484000  1
   3502   6722   6718   6734     1  180.0000771  3.5564000  2
   3502   6722   6718   6734     1  0.0000000  0.4184000  3
   3505   6745   6741   6757     1  180.0000771  5.6484000  1
   3505   6745   6741   6757     1  180.0000771  3.5564000  2
   3505   6745   6741   6757     1  0.0000000  0.4184000  3
   3505   6745   6741   6740     1  180.0000771  0.4184000  2
   3505   6745   6741   6740     1  0.0000000  1.6024720  3
   3510   3511   3523   3535     1  0.0000000  0.6508444  3
   3510   3514   3526   3532     1  0.0000000  0.6508444  3
   3510   3517   3520   3529     1  0.0000000  0.6508444  3
   3511   3510   3514   3526     1  0.0000000  0.6508444  3
   3511   3510   3517   3520     1  0.0000000  0.6508444  3
   3511   3523   3535   6791     1  0.0000000  0.6508444  3
   3514   3510   3511   3523     1  0.0000000  0.6508444  3
   3514   3510   3517   3520     1  0.0000000  0.6508444  3
   3514   3526   3532   6768     1  0.0000000  0.6508444  3
   3517   3510   3511   3523     1  0.0000000  0.6508444  3
   3517   3510   3514   3526     1  0.0000000  0.6508444  3
   3517   3520   3529   3538     1  0.0000000  0.6508444  3
   3523   3535   6791   6787     1  180.0000771  0.4184000  2
   3523   3535   6791   6787     1  0.0000000  1.6024720  3
   3526   3532   6768   6764     1  180.0000771  0.4184000  2
   3526   3532   6768   6764     1  0.0000000  1.6024720  3
   3532   6768   6764   6763     1  180.0000771  0.4184000  2
   3532   6768   6764   6763     1  0.0000000  1.6024720  3
   3532   6768   6764   6780     1  180.0000771  5.6484000  1
   3532   6768   6764   6780     1  180.0000771  3.5564000  2
   3532   6768   6764   6780     1  0.0000000  0.4184000  3
   3535   6791   6787   6803     1  180.0000771  5.6484000  1
   3535   6791   6787   6803     1  180.0000771  3.5564000  2
   3535   6791   6787   6803     1  0.0000000  0.4184000  3
   3535   6791   6787   6786     1  180.0000771  0.4184000  2
   3535   6791   6787   6786     1  0.0000000  1.6024720  3
   3540   3541   3553   3565     1  0.0000000  0.6508444  3
   3540   3544   3556   3562     1  0.0000000  0.6508444  3
   3540   3547   3550   3559     1  0.0000000  0.6508444  3
   3541   3540   3544   3556     1  0.0000000  0.6508444  3
   3541   3540   3547   3550     1  0.0000000  0.6508444  3
   3541   3553   3565   6837     1  0.0000000  0.6508444  3
   3544   3540   3541   3553     1  0.0000000  0.6508444  3
   3544   3540   3547   3550     1  0.0000000  0.6508444  3
   3544   3556   3562   6814     1  0.0000000  0.6508444  3
   3547   3540   3541   3553     1  0.0000000  0.6508444  3
   3547   3540   3544   3556     1  0.0000000  0.6508444  3
   3547   3550   3559   3568     1  0.0000000  0.6508444  3
   3553   3565   6837   6833     1  180.0000771  0.4184000  2
   3553   3565   6837   6833     1  0.0000000  1.6024720  3
   3556   3562   6814   6810     1  180.0000771  0.4184000  2
   3556   3562   6814   6810     1  0.0000000  1.6024720  3
   3562   6814   6810   6809     1  180.0000771  0.4184000  2
   3562   6814   6810   6809     1  0.0000000  1.6024720  3
   3562   6814   6810   6826     1  180.0000771  5.6484000  1
   3562   6814   6810   6826     1  180.0000771  3.5564000  2
   3562   6814   6810   6826     1  0.0000000  0.4184000  3
   3565   6837   6833   6849     1  180.0000771  5.6484000  1
   3565   6837   6833   6849     1  180.0000771  3.5564000  2
   3565   6837   6833   6849     1  0.0000000  0.4184000  3
   3565   6837   6833   6832     1  180.0000771  0.4184000  2
   3565   6837   6833   6832     1  0.0000000  1.6024720  3
   3570   3571   3583   3595     1  0.0000000  0.6508444  3
   3570   3574   3586   3592     1  0.0000000  0.6508444  3
   3570   3577   3580   3589     1  0.0000000  0.6508444  3
   3571   3570   3574   3586     1  0.0000000  0.6508444  3
   3571   3570   3577   3580     1  0.0000000  0.6508444  3
   3571   3583   3595   6883     1  0.0000000  0.6508444  3
   3574   3570   3571   3583     1  0.0000000  0.6508444  3
   3574   3570   3577   3580     1  0.0000000  0.6508444  3
   3574   3586   3592   6860     1  0.0000000  0.6508444  3
   3577   3570   3571   3583     1  0.0000000  0.6508444  3
   3577   3570   3574   3586     1  0.0000000  0.6508444  3
   3577   3580   3589   3598     1  0.0000000  0.6508444  3
   3583   3595   6883   6879     1  180.0000771  0.4184000  2
   3583   3595   6883   6879     1  0.0000000  1.6024720  3
   3586   3592   6860   6856     1  180.0000771  0.4184000  2
   3586   3592   6860   6856     1  0.0000000  1.6024720  3
   3592   6860   6856   6855     1  180.0000771  0.4184000  2
   3592   6860   6856   6855     1  0.0000000  1.6024720  3
   3592   6860   6856   6872     1  180.0000771  5.6484000  1
   3592   6860   6856   6872     1  180.0000771  3.5564000  2
   3592   6860   6856   6872     1  0.0000000  0.4184000  3
   3595   6883   6879   6895     1  180.0000771  5.6484000  1
   3595   6883   6879   6895     1  180.0000771  3.5564000  2
   3595   6883   6879   6895     1  0.0000000  0.4184000  3
   3595   6883   6879   6878     1  180.0000771  0.4184000  2
   3595   6883   6879   6878     1  0.0000000  1.6024720  3
   3600   3601   3613   3625     1  0.0000000  0.6508444  3
   3600   3604   3616   3622     1  0.0000000  0.6508444  3
   3600   3607   3610   3619     1  0.0000000  0.6508444  3
   3601   3600   3604   3616     1  0.0000000  0.6508444  3
   3601   3600   3607   3610     1  0.0000000  0.6508444  3
   3601   3613   3625   6929     1  0.0000000  0.6508444  3
   3604   3600   3601   3613     1  0.0000000  0.6508444  3
   3604   3600   3607   3610     1  0.0000000  0.6508444  3
   3604   3616   3622   6906     1  0.0000000  0.6508444  3
   3607   3600   3601   3613     1  0.0000000  0.6508444  3
   3607   3600   3604   3616     1  0.0000000  0.6508444  3
   3607   3610   3619   3628     1  0.0000000  0.6508444  3
   3613   3625   6929   6925     1  180.0000771  0.4184000  2
   3613   3625   6929   6925     1  0.0000000  1.6024720  3
   3616   3622   6906   6902     1  180.0000771  0.4184000  2
   3616   3622   6906   6902     1  0.0000000  1.6024720  3
   3622   6906   6902   6901     1  180.0000771  0.4184000  2
   3622   6906   6902   6901     1  0.0000000  1.6024720  3
   3622   6906   6902   6918     1  180.0000771  5.6484000  1
   3622   6906   6902   6918     1  180.0000771  3.5564000  2
   3622   6906   6902   6918     1  0.0000000  0.4184000  3
   3625   6929   6925   6941     1  180.0000771  5.6484000  1
   3625   6929   6925   6941     1  180.0000771  3.5564000  2
   3625   6929   6925   6941     1  0.0000000  0.4184000  3
   3625   6929   6925   6924     1  180.0000771  0.4184000  2
   3625   6929   6925   6924     1  0.0000000  1.6024720  3
   3630   3631   3643   3655     1  0.0000000  0.6508444  3
   3630   3634   3646   3652     1  0.0000000  0.6508444  3
   3630   3637   3640   3649     1  0.0000000  0.6508444  3
   3631   3630   3634   3646     1  0.0000000  0.6508444  3
   3631   3630   3637   3640     1  0.0000000  0.6508444  3
   3631   3643   3655   6975     1  0.0000000  0.6508444  3
   3634   3630   3631   3643     1  0.0000000  0.6508444  3
   3634   3630   3637   3640     1  0.0000000  0.6508444  3
   3634   3646   3652   6952     1  0.0000000  0.6508444  3
   3637   3630   3631   3643     1  0.0000000  0.6508444  3
   3637   3630   3634   3646     1  0.0000000  0.6508444  3
   3637   3640   3649   3658     1  0.0000000  0.6508444  3
   3643   3655   6975   6971     1  180.0000771  0.4184000  2
   3643   3655   6975   6971     1  0.0000000  1.6024720  3
   3646   3652   6952   6948     1  180.0000771  0.4184000  2
   3646   3652   6952   6948     1  0.0000000  1.6024720  3
   3652   6952   6948   6947     1  180.0000771  0.4184000  2
   3652   6952   6948   6947     1  0.0000000  1.6024720  3
   3652   6952   6948   6964     1  180.0000771  5.6484000  1
   3652   6952   6948   6964     1  180.0000771  3.5564000  2
   3652   6952   6948   6964     1  0.0000000  0.4184000  3
   3655   6975   6971   6987     1  180.0000771  5.6484000  1
   3655   6975   6971   6987     1  180.0000771  3.5564000  2
   3655   6975   6971   6987     1  0.0000000  0.4184000  3
   3655   6975   6971   6970     1  180.0000771  0.4184000  2
   3655   6975   6971   6970     1  0.0000000  1.6024720  3
   3660   3661   3673   3685     1  0.0000000  0.6508444  3
   3660   3664   3676   3682     1  0.0000000  0.6508444  3
   3660   3667   3670   3679     1  0.0000000  0.6508444  3
   3661   3660   3664   3676     1  0.0000000  0.6508444  3
   3661   3660   3667   3670     1  0.0000000  0.6508444  3
   3661   3673   3685   7021     1  0.0000000  0.6508444  3
   3664   3660   3661   3673     1  0.0000000  0.6508444  3
   3664   3660   3667   3670     1  0.0000000  0.6508444  3
   3664   3676   3682   6998     1  0.0000000  0.6508444  3
   3667   3660   3661   3673     1  0.0000000  0.6508444  3
   3667   3660   3664   3676     1  0.0000000  0.6508444  3
   3667   3670   3679   3688     1  0.0000000  0.6508444  3
   3673   3685   7021   7017     1  180.0000771  0.4184000  2
   3673   3685   7021   7017     1  0.0000000  1.6024720  3
   3676   3682   6998   6994     1  180.0000771  0.4184000  2
   3676   3682   6998   6994     1  0.0000000  1.6024720  3
   3682   6998   6994   6993     1  180.0000771  0.4184000  2
   3682   6998   6994   6993     1  0.0000000  1.6024720  3
   3682   6998   6994   7010     1  180.0000771  5.6484000  1
   3682   6998   6994   7010     1  180.0000771  3.5564000  2
   3682   6998   6994   7010     1  0.0000000  0.4184000  3
   3685   7021   7017   7033     1  180.0000771  5.6484000  1
   3685   7021   7017   7033     1  180.0000771  3.5564000  2
   3685   7021   7017   7033     1  0.0000000  0.4184000  3
   3685   7021   7017   7016     1  180.0000771  0.4184000  2
   3685   7021   7017   7016     1  0.0000000  1.6024720  3
   3690   3691   3703   3715     1  0.0000000  0.6508444  3
   3690   3694   3706   3712     1  0.0000000  0.6508444  3
   3690   3697   3700   3709     1  0.0000000  0.6508444  3
   3691   3690   3694   3706     1  0.0000000  0.6508444  3
   3691   3690   3697   3700     1  0.0000000  0.6508444  3
   3691   3703   3715   7067     1  0.0000000  0.6508444  3
   3694   3690   3691   3703     1  0.0000000  0.6508444  3
   3694   3690   3697   3700     1  0.0000000  0.6508444  3
   3694   3706   3712   7044     1  0.0000000  0.6508444  3
   3697   3690   3691   3703     1  0.0000000  0.6508444  3
   3697   3690   3694   3706     1  0.0000000  0.6508444  3
   3697   3700   3709   3718     1  0.0000000  0.6508444  3
   3703   3715   7067   7063     1  180.0000771  0.4184000  2
   3703   3715   7067   7063     1  0.0000000  1.6024720  3
   3706   3712   7044   7040     1  180.0000771  0.4184000  2
   3706   3712   7044   7040     1  0.0000000  1.6024720  3
   3712   7044   7040   7039     1  180.0000771  0.4184000  2
   3712   7044   7040   7039     1  0.0000000  1.6024720  3
   3712   7044   7040   7056     1  180.0000771  5.6484000  1
   3712   7044   7040   7056     1  180.0000771  3.5564000  2
   3712   7044   7040   7056     1  0.0000000  0.4184000  3
   3715   7067   7063   7079     1  180.0000771  5.6484000  1
   3715   7067   7063   7079     1  180.0000771  3.5564000  2
   3715   7067   7063   7079     1  0.0000000  0.4184000  3
   3715   7067   7063   7062     1  180.0000771  0.4184000  2
   3715   7067   7063   7062     1  0.0000000  1.6024720  3
   3720   3721   3733   3745     1  0.0000000  0.6508444  3
   3720   3724   3736   3742     1  0.0000000  0.6508444  3
   3720   3727   3730   3739     1  0.0000000  0.6508444  3
   3721   3720   3724   3736     1  0.0000000  0.6508444  3
   3721   3720   3727   3730     1  0.0000000  0.6508444  3
   3721   3733   3745   7113     1  0.0000000  0.6508444  3
   3724   3720   3721   3733     1  0.0000000  0.6508444  3
   3724   3720   3727   3730     1  0.0000000  0.6508444  3
   3724   3736   3742   7090     1  0.0000000  0.6508444  3
   3727   3720   3721   3733     1  0.0000000  0.6508444  3
   3727   3720   3724   3736     1  0.0000000  0.6508444  3
   3727   3730   3739   3748     1  0.0000000  0.6508444  3
   3733   3745   7113   7109     1  180.0000771  0.4184000  2
   3733   3745   7113   7109     1  0.0000000  1.6024720  3
   3736   3742   7090   7086     1  180.0000771  0.4184000  2
   3736   3742   7090   7086     1  0.0000000  1.6024720  3
   3742   7090   7086   7085     1  180.0000771  0.4184000  2
   3742   7090   7086   7085     1  0.0000000  1.6024720  3
   3742   7090   7086   7102     1  180.0000771  5.6484000  1
   3742   7090   7086   7102     1  180.0000771  3.5564000  2
   3742   7090   7086   7102     1  0.0000000  0.4184000  3
   3745   7113   7109   7125     1  180.0000771  5.6484000  1
   3745   7113   7109   7125     1  180.0000771  3.5564000  2
   3745   7113   7109   7125     1  0.0000000  0.4184000  3
   3745   7113   7109   7108     1  180.0000771  0.4184000  2
   3745   7113   7109   7108     1  0.0000000  1.6024720  3
   3750   3751   3763   3775     1  0.0000000  0.6508444  3
   3750   3754   3766   3772     1  0.0000000  0.6508444  3
   3750   3757   3760   3769     1  0.0000000  0.6508444  3
   3751   3750   3754   3766     1  0.0000000  0.6508444  3
   3751   3750   3757   3760     1  0.0000000  0.6508444  3
   3751   3763   3775   7159     1  0.0000000  0.6508444  3
   3754   3750   3751   3763     1  0.0000000  0.6508444  3
   3754   3750   3757   3760     1  0.0000000  0.6508444  3
   3754   3766   3772   7136     1  0.0000000  0.6508444  3
   3757   3750   3751   3763     1  0.0000000  0.6508444  3
   3757   3750   3754   3766     1  0.0000000  0.6508444  3
   3757   3760   3769   3778     1  0.0000000  0.6508444  3
   3763   3775   7159   7155     1  180.0000771  0.4184000  2
   3763   3775   7159   7155     1  0.0000000  1.6024720  3
   3766   3772   7136   7132     1  180.0000771  0.4184000  2
   3766   3772   7136   7132     1  0.0000000  1.6024720  3
   3772   7136   7132   7131     1  180.0000771  0.4184000  2
   3772   7136   7132   7131     1  0.0000000  1.6024720  3
   3772   7136   7132   7148     1  180.0000771  5.6484000  1
   3772   7136   7132   7148     1  180.0000771  3.5564000  2
   3772   7136   7132   7148     1  0.0000000  0.4184000  3
   3775   7159   7155   7171     1  180.0000771  5.6484000  1
   3775   7159   7155   7171     1  180.0000771  3.5564000  2
   3775   7159   7155   7171     1  0.0000000  0.4184000  3
   3775   7159   7155   7154     1  180.0000771  0.4184000  2
   3775   7159   7155   7154     1  0.0000000  1.6024720  3
   3780   3781   3793   3805     1  0.0000000  0.6508444  3
   3780   3784   3796   3802     1  0.0000000  0.6508444  3
   3780   3787   3790   3799     1  0.0000000  0.6508444  3
   3781   3780   3784   3796     1  0.0000000  0.6508444  3
   3781   3780   3787   3790     1  0.0000000  0.6508444  3
   3781   3793   3805   7205     1  0.0000000  0.6508444  3
   3784   3780   3781   3793     1  0.0000000  0.6508444  3
   3784   3780   3787   3790     1  0.0000000  0.6508444  3
   3784   3796   3802   7182     1  0.0000000  0.6508444  3
   3787   3780   3781   3793     1  0.0000000  0.6508444  3
   3787   3780   3784   3796     1  0.0000000  0.6508444  3
   3787   3790   3799   3808     1  0.0000000  0.6508444  3
   3793   3805   7205   7201     1  180.0000771  0.4184000  2
   3793   3805   7205   7201     1  0.0000000  1.6024720  3
   3796   3802   7182   7178     1  180.0000771  0.4184000  2
   3796   3802   7182   7178     1  0.0000000  1.6024720  3
   3802   7182   7178   7177     1  180.0000771  0.4184000  2
   3802   7182   7178   7177     1  0.0000000  1.6024720  3
   3802   7182   7178   7194     1  180.0000771  5.6484000  1
   3802   7182   7178   7194     1  180.0000771  3.5564000  2
   3802   7182   7178   7194     1  0.0000000  0.4184000  3
   3805   7205   7201   7217     1  180.0000771  5.6484000  1
   3805   7205   7201   7217     1  180.0000771  3.5564000  2
   3805   7205   7201   7217     1  0.0000000  0.4184000  3
   3805   7205   7201   7200     1  180.0000771  0.4184000  2
   3805   7205   7201   7200     1  0.0000000  1.6024720  3
   3810   3811   3823   3835     1  0.0000000  0.6508444  3
   3810   3814   3826   3832     1  0.0000000  0.6508444  3
   3810   3817   3820   3829     1  0.0000000  0.6508444  3
   3811   3810   3814   3826     1  0.0000000  0.6508444  3
   3811   3810   3817   3820     1  0.0000000  0.6508444  3
   3811   3823   3835   7251     1  0.0000000  0.6508444  3
   3814   3810   3811   3823     1  0.0000000  0.6508444  3
   3814   3810   3817   3820     1  0.0000000  0.6508444  3
   3814   3826   3832   7228     1  0.0000000  0.6508444  3
   3817   3810   3811   3823     1  0.0000000  0.6508444  3
   3817   3810   3814   3826     1  0.0000000  0.6508444  3
   3817   3820   3829   3838     1  0.0000000  0.6508444  3
   3823   3835   7251   7247     1  180.0000771  0.4184000  2
   3823   3835   7251   7247     1  0.0000000  1.6024720  3
   3826   3832   7228   7224     1  180.0000771  0.4184000  2
   3826   3832   7228   7224     1  0.0000000  1.6024720  3
   3832   7228   7224   7223     1  180.0000771  0.4184000  2
   3832   7228   7224   7223     1  0.0000000  1.6024720  3
   3832   7228   7224   7240     1  180.0000771  5.6484000  1
   3832   7228   7224   7240     1  180.0000771  3.5564000  2
   3832   7228   7224   7240     1  0.0000000  0.4184000  3
   3835   7251   7247   7263     1  180.0000771  5.6484000  1
   3835   7251   7247   7263     1  180.0000771  3.5564000  2
   3835   7251   7247   7263     1  0.0000000  0.4184000  3
   3835   7251   7247   7246     1  180.0000771  0.4184000  2
   3835   7251   7247   7246     1  0.0000000  1.6024720  3
   3840   3841   3853   3865     1  0.0000000  0.6508444  3
   3840   3844   3856   3862     1  0.0000000  0.6508444  3
   3840   3847   3850   3859     1  0.0000000  0.6508444  3
   3841   3840   3844   3856     1  0.0000000  0.6508444  3
   3841   3840   3847   3850     1  0.0000000  0.6508444  3
   3841   3853   3865   7297     1  0.0000000  0.6508444  3
   3844   3840   3841   3853     1  0.0000000  0.6508444  3
   3844   3840   3847   3850     1  0.0000000  0.6508444  3
   3844   3856   3862   7274     1  0.0000000  0.6508444  3
   3847   3840   3841   3853     1  0.0000000  0.6508444  3
   3847   3840   3844   3856     1  0.0000000  0.6508444  3
   3847   3850   3859   3868     1  0.0000000  0.6508444  3
   3853   3865   7297   7293     1  180.0000771  0.4184000  2
   3853   3865   7297   7293     1  0.0000000  1.6024720  3
   3856   3862   7274   7270     1  180.0000771  0.4184000  2
   3856   3862   7274   7270     1  0.0000000  1.6024720  3
   3862   7274   7270   7269     1  180.0000771  0.4184000  2
   3862   7274   7270   7269     1  0.0000000  1.6024720  3
   3862   7274   7270   7286     1  180.0000771  5.6484000  1
   3862   7274   7270   7286     1  180.0000771  3.5564000  2
   3862   7274   7270   7286     1  0.0000000  0.4184000  3
   3865   7297   7293   7309     1  180.0000771  5.6484000  1
   3865   7297   7293   7309     1  180.0000771  3.5564000  2
   3865   7297   7293   7309     1  0.0000000  0.4184000  3
   3865   7297   7293   7292     1  180.0000771  0.4184000  2
   3865   7297   7293   7292     1  0.0000000  1.6024720  3
   3870   3871   3883   3895     1  0.0000000  0.6508444  3
   3870   3874   3886   3892     1  0.0000000  0.6508444  3
   3870   3877   3880   3889     1  0.0000000  0.6508444  3
   3871   3870   3874   3886     1  0.0000000  0.6508444  3
   3871   3870   3877   3880     1  0.0000000  0.6508444  3
   3871   3883   3895   7343     1  0.0000000  0.6508444  3
   3874   3870   3871   3883     1  0.0000000  0.6508444  3
   3874   3870   3877   3880     1  0.0000000  0.6508444  3
   3874   3886   3892   7320     1  0.0000000  0.6508444  3
   3877   3870   3871   3883     1  0.0000000  0.6508444  3
   3877   3870   3874   3886     1  0.0000000  0.6508444  3
   3877   3880   3889   3898     1  0.0000000  0.6508444  3
   3883   3895   7343   7339     1  180.0000771  0.4184000  2
   3883   3895   7343   7339     1  0.0000000  1.6024720  3
   3886   3892   7320   7316     1  180.0000771  0.4184000  2
   3886   3892   7320   7316     1  0.0000000  1.6024720  3
   3892   7320   7316   7315     1  180.0000771  0.4184000  2
   3892   7320   7316   7315     1  0.0000000  1.6024720  3
   3892   7320   7316   7332     1  180.0000771  5.6484000  1
   3892   7320   7316   7332     1  180.0000771  3.5564000  2
   3892   7320   7316   7332     1  0.0000000  0.4184000  3
   3895   7343   7339   7355     1  180.0000771  5.6484000  1
   3895   7343   7339   7355     1  180.0000771  3.5564000  2
   3895   7343   7339   7355     1  0.0000000  0.4184000  3
   3895   7343   7339   7338     1  180.0000771  0.4184000  2
   3895   7343   7339   7338     1  0.0000000  1.6024720  3
   3900   3901   3913   3925     1  0.0000000  0.6508444  3
   3900   3904   3916   3922     1  0.0000000  0.6508444  3
   3900   3907   3910   3919     1  0.0000000  0.6508444  3
   3901   3900   3904   3916     1  0.0000000  0.6508444  3
   3901   3900   3907   3910     1  0.0000000  0.6508444  3
   3901   3913   3925   7389     1  0.0000000  0.6508444  3
   3904   3900   3901   3913     1  0.0000000  0.6508444  3
   3904   3900   3907   3910     1  0.0000000  0.6508444  3
   3904   3916   3922   7366     1  0.0000000  0.6508444  3
   3907   3900   3901   3913     1  0.0000000  0.6508444  3
   3907   3900   3904   3916     1  0.0000000  0.6508444  3
   3907   3910   3919   3928     1  0.0000000  0.6508444  3
   3913   3925   7389   7385     1  180.0000771  0.4184000  2
   3913   3925   7389   7385     1  0.0000000  1.6024720  3
   3916   3922   7366   7362     1  180.0000771  0.4184000  2
   3916   3922   7366   7362     1  0.0000000  1.6024720  3
   3922   7366   7362   7361     1  180.0000771  0.4184000  2
   3922   7366   7362   7361     1  0.0000000  1.6024720  3
   3922   7366   7362   7378     1  180.0000771  5.6484000  1
   3922   7366   7362   7378     1  180.0000771  3.5564000  2
   3922   7366   7362   7378     1  0.0000000  0.4184000  3
   3925   7389   7385   7401     1  180.0000771  5.6484000  1
   3925   7389   7385   7401     1  180.0000771  3.5564000  2
   3925   7389   7385   7401     1  0.0000000  0.4184000  3
   3925   7389   7385   7384     1  180.0000771  0.4184000  2
   3925   7389   7385   7384     1  0.0000000  1.6024720  3
   3930   3931   3943   3955     1  0.0000000  0.6508444  3
   3930   3934   3946   3952     1  0.0000000  0.6508444  3
   3930   3937   3940   3949     1  0.0000000  0.6508444  3
   3931   3930   3934   3946     1  0.0000000  0.6508444  3
   3931   3930   3937   3940     1  0.0000000  0.6508444  3
   3931   3943   3955   7435     1  0.0000000  0.6508444  3
   3934   3930   3931   3943     1  0.0000000  0.6508444  3
   3934   3930   3937   3940     1  0.0000000  0.6508444  3
   3934   3946   3952   7412     1  0.0000000  0.6508444  3
   3937   3930   3931   3943     1  0.0000000  0.6508444  3
   3937   3930   3934   3946     1  0.0000000  0.6508444  3
   3937   3940   3949   3958     1  0.0000000  0.6508444  3
   3943   3955   7435   7431     1  180.0000771  0.4184000  2
   3943   3955   7435   7431     1  0.0000000  1.6024720  3
   3946   3952   7412   7408     1  180.0000771  0.4184000  2
   3946   3952   7412   7408     1  0.0000000  1.6024720  3
   3952   7412   7408   7407     1  180.0000771  0.4184000  2
   3952   7412   7408   7407     1  0.0000000  1.6024720  3
   3952   7412   7408   7424     1  180.0000771  5.6484000  1
   3952   7412   7408   7424     1  180.0000771  3.5564000  2
   3952   7412   7408   7424     1  0.0000000  0.4184000  3
   3955   7435   7431   7447     1  180.0000771  5.6484000  1
   3955   7435   7431   7447     1  180.0000771  3.5564000  2
   3955   7435   7431   7447     1  0.0000000  0.4184000  3
   3955   7435   7431   7430     1  180.0000771  0.4184000  2
   3955   7435   7431   7430     1  0.0000000  1.6024720  3
   3960   3961   3973   3985     1  0.0000000  0.6508444  3
   3960   3964   3976   3982     1  0.0000000  0.6508444  3
   3960   3967   3970   3979     1  0.0000000  0.6508444  3
   3961   3960   3964   3976     1  0.0000000  0.6508444  3
   3961   3960   3967   3970     1  0.0000000  0.6508444  3
   3961   3973   3985   7481     1  0.0000000  0.6508444  3
   3964   3960   3961   3973     1  0.0000000  0.6508444  3
   3964   3960   3967   3970     1  0.0000000  0.6508444  3
   3964   3976   3982   7458     1  0.0000000  0.6508444  3
   3967   3960   3961   3973     1  0.0000000  0.6508444  3
   3967   3960   3964   3976     1  0.0000000  0.6508444  3
   3967   3970   3979   3988     1  0.0000000  0.6508444  3
   3973   3985   7481   7477     1  180.0000771  0.4184000  2
   3973   3985   7481   7477     1  0.0000000  1.6024720  3
   3976   3982   7458   7454     1  180.0000771  0.4184000  2
   3976   3982   7458   7454     1  0.0000000  1.6024720  3
   3982   7458   7454   7453     1  180.0000771  0.4184000  2
   3982   7458   7454   7453     1  0.0000000  1.6024720  3
   3982   7458   7454   7470     1  180.0000771  5.6484000  1
   3982   7458   7454   7470     1  180.0000771  3.5564000  2
   3982   7458   7454   7470     1  0.0000000  0.4184000  3
   3985   7481   7477   7493     1  180.0000771  5.6484000  1
   3985   7481   7477   7493     1  180.0000771  3.5564000  2
   3985   7481   7477   7493     1  0.0000000  0.4184000  3
   3985   7481   7477   7476     1  180.0000771  0.4184000  2
   3985   7481   7477   7476     1  0.0000000  1.6024720  3
   3990   3991   4003   4015     1  0.0000000  0.6508444  3
   3990   3994   4006   4012     1  0.0000000  0.6508444  3
   3990   3997   4000   4009     1  0.0000000  0.6508444  3
   3991   3990   3994   4006     1  0.0000000  0.6508444  3
   3991   3990   3997   4000     1  0.0000000  0.6508444  3
   3991   4003   4015   7527     1  0.0000000  0.6508444  3
   3994   3990   3991   4003     1  0.0000000  0.6508444  3
   3994   3990   3997   4000     1  0.0000000  0.6508444  3
   3994   4006   4012   7504     1  0.0000000  0.6508444  3
   3997   3990   3991   4003     1  0.0000000  0.6508444  3
   3997   3990   3994   4006     1  0.0000000  0.6508444  3
   3997   4000   4009   4018     1  0.0000000  0.6508444  3
   4003   4015   7527   7523     1  180.0000771  0.4184000  2
   4003   4015   7527   7523     1  0.0000000  1.6024720  3
   4006   4012   7504   7500     1  180.0000771  0.4184000  2
   4006   4012   7504   7500     1  0.0000000  1.6024720  3
   4012   7504   7500   7499     1  180.0000771  0.4184000  2
   4012   7504   7500   7499     1  0.0000000  1.6024720  3
   4012   7504   7500   7516     1  180.0000771  5.6484000  1
   4012   7504   7500   7516     1  180.0000771  3.5564000  2
   4012   7504   7500   7516     1  0.0000000  0.4184000  3
   4015   7527   7523   7539     1  180.0000771  5.6484000  1
   4015   7527   7523   7539     1  180.0000771  3.5564000  2
   4015   7527   7523   7539     1  0.0000000  0.4184000  3
   4015   7527   7523   7522     1  180.0000771  0.4184000  2
   4015   7527   7523   7522     1  0.0000000  1.6024720  3
   4020   4021   4033   4045     1  0.0000000  0.6508444  3
   4020   4024   4036   4042     1  0.0000000  0.6508444  3
   4020   4027   4030   4039     1  0.0000000  0.6508444  3
   4021   4020   4024   4036     1  0.0000000  0.6508444  3
   4021   4020   4027   4030     1  0.0000000  0.6508444  3
   4021   4033   4045   7573     1  0.0000000  0.6508444  3
   4024   4020   4021   4033     1  0.0000000  0.6508444  3
   4024   4020   4027   4030     1  0.0000000  0.6508444  3
   4024   4036   4042   7550     1  0.0000000  0.6508444  3
   4027   4020   4021   4033     1  0.0000000  0.6508444  3
   4027   4020   4024   4036     1  0.0000000  0.6508444  3
   4027   4030   4039   4048     1  0.0000000  0.6508444  3
   4033   4045   7573   7569     1  180.0000771  0.4184000  2
   4033   4045   7573   7569     1  0.0000000  1.6024720  3
   4036   4042   7550   7546     1  180.0000771  0.4184000  2
   4036   4042   7550   7546     1  0.0000000  1.6024720  3
   4042   7550   7546   7545     1  180.0000771  0.4184000  2
   4042   7550   7546   7545     1  0.0000000  1.6024720  3
   4042   7550   7546   7562     1  180.0000771  5.6484000  1
   4042   7550   7546   7562     1  180.0000771  3.5564000  2
   4042   7550   7546   7562     1  0.0000000  0.4184000  3
   4045   7573   7569   7585     1  180.0000771  5.6484000  1
   4045   7573   7569   7585     1  180.0000771  3.5564000  2
   4045   7573   7569   7585     1  0.0000000  0.4184000  3
   4045   7573   7569   7568     1  180.0000771  0.4184000  2
   4045   7573   7569   7568     1  0.0000000  1.6024720  3
   4050   4051   4063   4075     1  0.0000000  0.6508444  3
   4050   4054   4066   4072     1  0.0000000  0.6508444  3
   4050   4057   4060   4069     1  0.0000000  0.6508444  3
   4051   4050   4054   4066     1  0.0000000  0.6508444  3
   4051   4050   4057   4060     1  0.0000000  0.6508444  3
   4051   4063   4075   7619     1  0.0000000  0.6508444  3
   4054   4050   4051   4063     1  0.0000000  0.6508444  3
   4054   4050   4057   4060     1  0.0000000  0.6508444  3
   4054   4066   4072   7596     1  0.0000000  0.6508444  3
   4057   4050   4051   4063     1  0.0000000  0.6508444  3
   4057   4050   4054   4066     1  0.0000000  0.6508444  3
   4057   4060   4069   4078     1  0.0000000  0.6508444  3
   4063   4075   7619   7615     1  180.0000771  0.4184000  2
   4063   4075   7619   7615     1  0.0000000  1.6024720  3
   4066   4072   7596   7592     1  180.0000771  0.4184000  2
   4066   4072   7596   7592     1  0.0000000  1.6024720  3
   4072   7596   7592   7591     1  180.0000771  0.4184000  2
   4072   7596   7592   7591     1  0.0000000  1.6024720  3
   4072   7596   7592   7608     1  180.0000771  5.6484000  1
   4072   7596   7592   7608     1  180.0000771  3.5564000  2
   4072   7596   7592   7608     1  0.0000000  0.4184000  3
   4075   7619   7615   7631     1  180.0000771  5.6484000  1
   4075   7619   7615   7631     1  180.0000771  3.5564000  2
   4075   7619   7615   7631     1  0.0000000  0.4184000  3
   4075   7619   7615   7614     1  180.0000771  0.4184000  2
   4075   7619   7615   7614     1  0.0000000  1.6024720  3
   4080   4081   4093   4105     1  0.0000000  0.6508444  3
   4080   4084   4096   4102     1  0.0000000  0.6508444  3
   4080   4087   4090   4099     1  0.0000000  0.6508444  3
   4081   4080   4084   4096     1  0.0000000  0.6508444  3
   4081   4080   4087   4090     1  0.0000000  0.6508444  3
   4081   4093   4105   7665     1  0.0000000  0.6508444  3
   4084   4080   4081   4093     1  0.0000000  0.6508444  3
   4084   4080   4087   4090     1  0.0000000  0.6508444  3
   4084   4096   4102   7642     1  0.0000000  0.6508444  3
   4087   4080   4081   4093     1  0.0000000  0.6508444  3
   4087   4080   4084   4096     1  0.0000000  0.6508444  3
   4087   4090   4099   4108     1  0.0000000  0.6508444  3
   4093   4105   7665   7661     1  180.0000771  0.4184000  2
   4093   4105   7665   7661     1  0.0000000  1.6024720  3
   4096   4102   7642   7638     1  180.0000771  0.4184000  2
   4096   4102   7642   7638     1  0.0000000  1.6024720  3
   4102   7642   7638   7637     1  180.0000771  0.4184000  2
   4102   7642   7638   7637     1  0.0000000  1.6024720  3
   4102   7642   7638   7654     1  180.0000771  5.6484000  1
   4102   7642   7638   7654     1  180.0000771  3.5564000  2
   4102   7642   7638   7654     1  0.0000000  0.4184000  3
   4105   7665   7661   7677     1  180.0000771  5.6484000  1
   4105   7665   7661   7677     1  180.0000771  3.5564000  2
   4105   7665   7661   7677     1  0.0000000  0.4184000  3
   4105   7665   7661   7660     1  180.0000771  0.4184000  2
   4105   7665   7661   7660     1  0.0000000  1.6024720  3
   4110   4111   4123   4135     1  0.0000000  0.6508444  3
   4110   4114   4126   4132     1  0.0000000  0.6508444  3
   4110   4117   4120   4129     1  0.0000000  0.6508444  3
   4111   4110   4114   4126     1  0.0000000  0.6508444  3
   4111   4110   4117   4120     1  0.0000000  0.6508444  3
   4111   4123   4135   7711     1  0.0000000  0.6508444  3
   4114   4110   4111   4123     1  0.0000000  0.6508444  3
   4114   4110   4117   4120     1  0.0000000  0.6508444  3
   4114   4126   4132   7688     1  0.0000000  0.6508444  3
   4117   4110   4111   4123     1  0.0000000  0.6508444  3
   4117   4110   4114   4126     1  0.0000000  0.6508444  3
   4117   4120   4129   4138     1  0.0000000  0.6508444  3
   4123   4135   7711   7707     1  180.0000771  0.4184000  2
   4123   4135   7711   7707     1  0.0000000  1.6024720  3
   4126   4132   7688   7684     1  180.0000771  0.4184000  2
   4126   4132   7688   7684     1  0.0000000  1.6024720  3
   4132   7688   7684   7683     1  180.0000771  0.4184000  2
   4132   7688   7684   7683     1  0.0000000  1.6024720  3
   4132   7688   7684   7700     1  180.0000771  5.6484000  1
   4132   7688   7684   7700     1  180.0000771  3.5564000  2
   4132   7688   7684   7700     1  0.0000000  0.4184000  3
   4135   7711   7707   7723     1  180.0000771  5.6484000  1
   4135   7711   7707   7723     1  180.0000771  3.5564000  2
   4135   7711   7707   7723     1  0.0000000  0.4184000  3
   4135   7711   7707   7706     1  180.0000771  0.4184000  2
   4135   7711   7707   7706     1  0.0000000  1.6024720  3
   4140   4141   4153   4165     1  0.0000000  0.6508444  3
   4140   4144   4156   4162     1  0.0000000  0.6508444  3
   4140   4147   4150   4159     1  0.0000000  0.6508444  3
   4141   4140   4144   4156     1  0.0000000  0.6508444  3
   4141   4140   4147   4150     1  0.0000000  0.6508444  3
   4141   4153   4165   7757     1  0.0000000  0.6508444  3
   4144   4140   4141   4153     1  0.0000000  0.6508444  3
   4144   4140   4147   4150     1  0.0000000  0.6508444  3
   4144   4156   4162   7734     1  0.0000000  0.6508444  3
   4147   4140   4141   4153     1  0.0000000  0.6508444  3
   4147   4140   4144   4156     1  0.0000000  0.6508444  3
   4147   4150   4159   4168     1  0.0000000  0.6508444  3
   4153   4165   7757   7753     1  180.0000771  0.4184000  2
   4153   4165   7757   7753     1  0.0000000  1.6024720  3
   4156   4162   7734   7730     1  180.0000771  0.4184000  2
   4156   4162   7734   7730     1  0.0000000  1.6024720  3
   4162   7734   7730   7729     1  180.0000771  0.4184000  2
   4162   7734   7730   7729     1  0.0000000  1.6024720  3
   4162   7734   7730   7746     1  180.0000771  5.6484000  1
   4162   7734   7730   7746     1  180.0000771  3.5564000  2
   4162   7734   7730   7746     1  0.0000000  0.4184000  3
   4165   7757   7753   7769     1  180.0000771  5.6484000  1
   4165   7757   7753   7769     1  180.0000771  3.5564000  2
   4165   7757   7753   7769     1  0.0000000  0.4184000  3
   4165   7757   7753   7752     1  180.0000771  0.4184000  2
   4165   7757   7753   7752     1  0.0000000  1.6024720  3
   4170   4171   4183   4195     1  0.0000000  0.6508444  3
   4170   4174   4186   4192     1  0.0000000  0.6508444  3
   4170   4177   4180   4189     1  0.0000000  0.6508444  3
   4171   4170   4174   4186     1  0.0000000  0.6508444  3
   4171   4170   4177   4180     1  0.0000000  0.6508444  3
   4171   4183   4195   7803     1  0.0000000  0.6508444  3
   4174   4170   4171   4183     1  0.0000000  0.6508444  3
   4174   4170   4177   4180     1  0.0000000  0.6508444  3
   4174   4186   4192   7780     1  0.0000000  0.6508444  3
   4177   4170   4171   4183     1  0.0000000  0.6508444  3
   4177   4170   4174   4186     1  0.0000000  0.6508444  3
   4177   4180   4189   4198     1  0.0000000  0.6508444  3
   4183   4195   7803   7799     1  180.0000771  0.4184000  2
   4183   4195   7803   7799     1  0.0000000  1.6024720  3
   4186   4192   7780   7776     1  180.0000771  0.4184000  2
   4186   4192   7780   7776     1  0.0000000  1.6024720  3
   4192   7780   7776   7775     1  180.0000771  0.4184000  2
   4192   7780   7776   7775     1  0.0000000  1.6024720  3
   4192   7780   7776   7792     1  180.0000771  5.6484000  1
   4192   7780   7776   7792     1  180.0000771  3.5564000  2
   4192   7780   7776   7792     1  0.0000000  0.4184000  3
   4195   7803   7799   7815     1  180.0000771  5.6484000  1
   4195   7803   7799   7815     1  180.0000771  3.5564000  2
   4195   7803   7799   7815     1  0.0000000  0.4184000  3
   4195   7803   7799   7798     1  180.0000771  0.4184000  2
   4195   7803   7799   7798     1  0.0000000  1.6024720  3
   4200   4201   4213   4225     1  0.0000000  0.6508444  3
   4200   4204   4216   4222     1  0.0000000  0.6508444  3
   4200   4207   4210   4219     1  0.0000000  0.6508444  3
   4201   4200   4204   4216     1  0.0000000  0.6508444  3
   4201   4200   4207   4210     1  0.0000000  0.6508444  3
   4201   4213   4225   7849     1  0.0000000  0.6508444  3
   4204   4200   4201   4213     1  0.0000000  0.6508444  3
   4204   4200   4207   4210     1  0.0000000  0.6508444  3
   4204   4216   4222   7826     1  0.0000000  0.6508444  3
   4207   4200   4201   4213     1  0.0000000  0.6508444  3
   4207   4200   4204   4216     1  0.0000000  0.6508444  3
   4207   4210   4219   4228     1  0.0000000  0.6508444  3
   4213   4225   7849   7845     1  180.0000771  0.4184000  2
   4213   4225   7849   7845     1  0.0000000  1.6024720  3
   4216   4222   7826   7822     1  180.0000771  0.4184000  2
   4216   4222   7826   7822     1  0.0000000  1.6024720  3
   4222   7826   7822   7821     1  180.0000771  0.4184000  2
   4222   7826   7822   7821     1  0.0000000  1.6024720  3
   4222   7826   7822   7838     1  180.0000771  5.6484000  1
   4222   7826   7822   7838     1  180.0000771  3.5564000  2
   4222   7826   7822   7838     1  0.0000000  0.4184000  3
   4225   7849   7845   7861     1  180.0000771  5.6484000  1
   4225   7849   7845   7861     1  180.0000771  3.5564000  2
   4225   7849   7845   7861     1  0.0000000  0.4184000  3
   4225   7849   7845   7844     1  180.0000771  0.4184000  2
   4225   7849   7845   7844     1  0.0000000  1.6024720  3
   4230   4231   4243   4255     1  0.0000000  0.6508444  3
   4230   4234   4246   4252     1  0.0000000  0.6508444  3
   4230   4237   4240   4249     1  0.0000000  0.6508444  3
   4231   4230   4234   4246     1  0.0000000  0.6508444  3
   4231   4230   4237   4240     1  0.0000000  0.6508444  3
   4231   4243   4255   7895     1  0.0000000  0.6508444  3
   4234   4230   4231   4243     1  0.0000000  0.6508444  3
   4234   4230   4237   4240     1  0.0000000  0.6508444  3
   4234   4246   4252   7872     1  0.0000000  0.6508444  3
   4237   4230   4231   4243     1  0.0000000  0.6508444  3
   4237   4230   4234   4246     1  0.0000000  0.6508444  3
   4237   4240   4249   4258     1  0.0000000  0.6508444  3
   4243   4255   7895   7891     1  180.0000771  0.4184000  2
   4243   4255   7895   7891     1  0.0000000  1.6024720  3
   4246   4252   7872   7868     1  180.0000771  0.4184000  2
   4246   4252   7872   7868     1  0.0000000  1.6024720  3
   4252   7872   7868   7867     1  180.0000771  0.4184000  2
   4252   7872   7868   7867     1  0.0000000  1.6024720  3
   4252   7872   7868   7884     1  180.0000771  5.6484000  1
   4252   7872   7868   7884     1  180.0000771  3.5564000  2
   4252   7872   7868   7884     1  0.0000000  0.4184000  3
   4255   7895   7891   7907     1  180.0000771  5.6484000  1
   4255   7895   7891   7907     1  180.0000771  3.5564000  2
   4255   7895   7891   7907     1  0.0000000  0.4184000  3
   4255   7895   7891   7890     1  180.0000771  0.4184000  2
   4255   7895   7891   7890     1  0.0000000  1.6024720  3
   4260   4261   4273   4285     1  0.0000000  0.6508444  3
   4260   4264   4276   4282     1  0.0000000  0.6508444  3
   4260   4267   4270   4279     1  0.0000000  0.6508444  3
   4261   4260   4264   4276     1  0.0000000  0.6508444  3
   4261   4260   4267   4270     1  0.0000000  0.6508444  3
   4261   4273   4285   7941     1  0.0000000  0.6508444  3
   4264   4260   4261   4273     1  0.0000000  0.6508444  3
   4264   4260   4267   4270     1  0.0000000  0.6508444  3
   4264   4276   4282   7918     1  0.0000000  0.6508444  3
   4267   4260   4261   4273     1  0.0000000  0.6508444  3
   4267   4260   4264   4276     1  0.0000000  0.6508444  3
   4267   4270   4279   4288     1  0.0000000  0.6508444  3
   4273   4285   7941   7937     1  180.0000771  0.4184000  2
   4273   4285   7941   7937     1  0.0000000  1.6024720  3
   4276   4282   7918   7914     1  180.0000771  0.4184000  2
   4276   4282   7918   7914     1  0.0000000  1.6024720  3
   4282   7918   7914   7913     1  180.0000771  0.4184000  2
   4282   7918   7914   7913     1  0.0000000  1.6024720  3
   4282   7918   7914   7930     1  180.0000771  5.6484000  1
   4282   7918   7914   7930     1  180.0000771  3.5564000  2
   4282   7918   7914   7930     1  0.0000000  0.4184000  3
   4285   7941   7937   7953     1  180.0000771  5.6484000  1
   4285   7941   7937   7953     1  180.0000771  3.5564000  2
   4285   7941   7937   7953     1  0.0000000  0.4184000  3
   4285   7941   7937   7936     1  180.0000771  0.4184000  2
   4285   7941   7937   7936     1  0.0000000  1.6024720  3
   4290   4291   4303   4315     1  0.0000000  0.6508444  3
   4290   4294   4306   4312     1  0.0000000  0.6508444  3
   4290   4297   4300   4309     1  0.0000000  0.6508444  3
   4291   4290   4294   4306     1  0.0000000  0.6508444  3
   4291   4290   4297   4300     1  0.0000000  0.6508444  3
   4291   4303   4315   7987     1  0.0000000  0.6508444  3
   4294   4290   4291   4303     1  0.0000000  0.6508444  3
   4294   4290   4297   4300     1  0.0000000  0.6508444  3
   4294   4306   4312   7964     1  0.0000000  0.6508444  3
   4297   4290   4291   4303     1  0.0000000  0.6508444  3
   4297   4290   4294   4306     1  0.0000000  0.6508444  3
   4297   4300   4309   4318     1  0.0000000  0.6508444  3
   4303   4315   7987   7983     1  180.0000771  0.4184000  2
   4303   4315   7987   7983     1  0.0000000  1.6024720  3
   4306   4312   7964   7960     1  180.0000771  0.4184000  2
   4306   4312   7964   7960     1  0.0000000  1.6024720  3
   4312   7964   7960   7959     1  180.0000771  0.4184000  2
   4312   7964   7960   7959     1  0.0000000  1.6024720  3
   4312   7964   7960   7976     1  180.0000771  5.6484000  1
   4312   7964   7960   7976     1  180.0000771  3.5564000  2
   4312   7964   7960   7976     1  0.0000000  0.4184000  3
   4315   7987   7983   7999     1  180.0000771  5.6484000  1
   4315   7987   7983   7999     1  180.0000771  3.5564000  2
   4315   7987   7983   7999     1  0.0000000  0.4184000  3
   4315   7987   7983   7982     1  180.0000771  0.4184000  2
   4315   7987   7983   7982     1  0.0000000  1.6024720  3
   4320   4321   4333   4345     1  0.0000000  0.6508444  3
   4320   4324   4336   4342     1  0.0000000  0.6508444  3
   4320   4327   4330   4339     1  0.0000000  0.6508444  3
   4321   4320   4324   4336     1  0.0000000  0.6508444  3
   4321   4320   4327   4330     1  0.0000000  0.6508444  3
   4321   4333   4345   8033     1  0.0000000  0.6508444  3
   4324   4320   4321   4333     1  0.0000000  0.6508444  3
   4324   4320   4327   4330     1  0.0000000  0.6508444  3
   4324   4336   4342   8010     1  0.0000000  0.6508444  3
   4327   4320   4321   4333     1  0.0000000  0.6508444  3
   4327   4320   4324   4336     1  0.0000000  0.6508444  3
   4327   4330   4339   4348     1  0.0000000  0.6508444  3
   4333   4345   8033   8029     1  180.0000771  0.4184000  2
   4333   4345   8033   8029     1  0.0000000  1.6024720  3
   4336   4342   8010   8006     1  180.0000771  0.4184000  2
   4336   4342   8010   8006     1  0.0000000  1.6024720  3
   4342   8010   8006   8005     1  180.0000771  0.4184000  2
   4342   8010   8006   8005     1  0.0000000  1.6024720  3
   4342   8010   8006   8022     1  180.0000771  5.6484000  1
   4342   8010   8006   8022     1  180.0000771  3.5564000  2
   4342   8010   8006   8022     1  0.0000000  0.4184000  3
   4345   8033   8029   8045     1  180.0000771  5.6484000  1
   4345   8033   8029   8045     1  180.0000771  3.5564000  2
   4345   8033   8029   8045     1  0.0000000  0.4184000  3
   4345   8033   8029   8028     1  180.0000771  0.4184000  2
   4345   8033   8029   8028     1  0.0000000  1.6024720  3
   4350   4351   4363   4375     1  0.0000000  0.6508444  3
   4350   4354   4366   4372     1  0.0000000  0.6508444  3
   4350   4357   4360   4369     1  0.0000000  0.6508444  3
   4351   4350   4354   4366     1  0.0000000  0.6508444  3
   4351   4350   4357   4360     1  0.0000000  0.6508444  3
   4351   4363   4375   8079     1  0.0000000  0.6508444  3
   4354   4350   4351   4363     1  0.0000000  0.6508444  3
   4354   4350   4357   4360     1  0.0000000  0.6508444  3
   4354   4366   4372   8056     1  0.0000000  0.6508444  3
   4357   4350   4351   4363     1  0.0000000  0.6508444  3
   4357   4350   4354   4366     1  0.0000000  0.6508444  3
   4357   4360   4369   4378     1  0.0000000  0.6508444  3
   4363   4375   8079   8075     1  180.0000771  0.4184000  2
   4363   4375   8079   8075     1  0.0000000  1.6024720  3
   4366   4372   8056   8052     1  180.0000771  0.4184000  2
   4366   4372   8056   8052     1  0.0000000  1.6024720  3
   4372   8056   8052   8051     1  180.0000771  0.4184000  2
   4372   8056   8052   8051     1  0.0000000  1.6024720  3
   4372   8056   8052   8068     1  180.0000771  5.6484000  1
   4372   8056   8052   8068     1  180.0000771  3.5564000  2
   4372   8056   8052   8068     1  0.0000000  0.4184000  3
   4375   8079   8075   8091     1  180.0000771  5.6484000  1
   4375   8079   8075   8091     1  180.0000771  3.5564000  2
   4375   8079   8075   8091     1  0.0000000  0.4184000  3
   4375   8079   8075   8074     1  180.0000771  0.4184000  2
   4375   8079   8075   8074     1  0.0000000  1.6024720  3
   4380   4381   4393   4405     1  0.0000000  0.6508444  3
   4380   4384   4396   4402     1  0.0000000  0.6508444  3
   4380   4387   4390   4399     1  0.0000000  0.6508444  3
   4381   4380   4384   4396     1  0.0000000  0.6508444  3
   4381   4380   4387   4390     1  0.0000000  0.6508444  3
   4381   4393   4405   8125     1  0.0000000  0.6508444  3
   4384   4380   4381   4393     1  0.0000000  0.6508444  3
   4384   4380   4387   4390     1  0.0000000  0.6508444  3
   4384   4396   4402   8102     1  0.0000000  0.6508444  3
   4387   4380   4381   4393     1  0.0000000  0.6508444  3
   4387   4380   4384   4396     1  0.0000000  0.6508444  3
   4387   4390   4399   4408     1  0.0000000  0.6508444  3
   4393   4405   8125   8121     1  180.0000771  0.4184000  2
   4393   4405   8125   8121     1  0.0000000  1.6024720  3
   4396   4402   8102   8098     1  180.0000771  0.4184000  2
   4396   4402   8102   8098     1  0.0000000  1.6024720  3
   4402   8102   8098   8097     1  180.0000771  0.4184000  2
   4402   8102   8098   8097     1  0.0000000  1.6024720  3
   4402   8102   8098   8114     1  180.0000771  5.6484000  1
   4402   8102   8098   8114     1  180.0000771  3.5564000  2
   4402   8102   8098   8114     1  0.0000000  0.4184000  3
   4405   8125   8121   8137     1  180.0000771  5.6484000  1
   4405   8125   8121   8137     1  180.0000771  3.5564000  2
   4405   8125   8121   8137     1  0.0000000  0.4184000  3
   4405   8125   8121   8120     1  180.0000771  0.4184000  2
   4405   8125   8121   8120     1  0.0000000  1.6024720  3
   4410   4411   4423   4435     1  0.0000000  0.6508444  3
   4410   4414   4426   4432     1  0.0000000  0.6508444  3
   4410   4417   4420   4429     1  0.0000000  0.6508444  3
   4411   4410   4414   4426     1  0.0000000  0.6508444  3
   4411   4410   4417   4420     1  0.0000000  0.6508444  3
   4411   4423   4435   8171     1  0.0000000  0.6508444  3
   4414   4410   4411   4423     1  0.0000000  0.6508444  3
   4414   4410   4417   4420     1  0.0000000  0.6508444  3
   4414   4426   4432   8148     1  0.0000000  0.6508444  3
   4417   4410   4411   4423     1  0.0000000  0.6508444  3
   4417   4410   4414   4426     1  0.0000000  0.6508444  3
   4417   4420   4429   4438     1  0.0000000  0.6508444  3
   4423   4435   8171   8167     1  180.0000771  0.4184000  2
   4423   4435   8171   8167     1  0.0000000  1.6024720  3
   4426   4432   8148   8144     1  180.0000771  0.4184000  2
   4426   4432   8148   8144     1  0.0000000  1.6024720  3
   4432   8148   8144   8143     1  180.0000771  0.4184000  2
   4432   8148   8144   8143     1  0.0000000  1.6024720  3
   4432   8148   8144   8160     1  180.0000771  5.6484000  1
   4432   8148   8144   8160     1  180.0000771  3.5564000  2
   4432   8148   8144   8160     1  0.0000000  0.4184000  3
   4435   8171   8167   8183     1  180.0000771  5.6484000  1
   4435   8171   8167   8183     1  180.0000771  3.5564000  2
   4435   8171   8167   8183     1  0.0000000  0.4184000  3
   4435   8171   8167   8166     1  180.0000771  0.4184000  2
   4435   8171   8167   8166     1  0.0000000  1.6024720  3
   4440   4441   4453   4465     1  0.0000000  0.6508444  3
   4440   4444   4456   4462     1  0.0000000  0.6508444  3
   4440   4447   4450   4459     1  0.0000000  0.6508444  3
   4441   4440   4444   4456     1  0.0000000  0.6508444  3
   4441   4440   4447   4450     1  0.0000000  0.6508444  3
   4441   4453   4465   8217     1  0.0000000  0.6508444  3
   4444   4440   4441   4453     1  0.0000000  0.6508444  3
   4444   4440   4447   4450     1  0.0000000  0.6508444  3
   4444   4456   4462   8194     1  0.0000000  0.6508444  3
   4447   4440   4441   4453     1  0.0000000  0.6508444  3
   4447   4440   4444   4456     1  0.0000000  0.6508444  3
   4447   4450   4459   4468     1  0.0000000  0.6508444  3
   4453   4465   8217   8213     1  180.0000771  0.4184000  2
   4453   4465   8217   8213     1  0.0000000  1.6024720  3
   4456   4462   8194   8190     1  180.0000771  0.4184000  2
   4456   4462   8194   8190     1  0.0000000  1.6024720  3
   4462   8194   8190   8189     1  180.0000771  0.4184000  2
   4462   8194   8190   8189     1  0.0000000  1.6024720  3
   4462   8194   8190   8206     1  180.0000771  5.6484000  1
   4462   8194   8190   8206     1  180.0000771  3.5564000  2
   4462   8194   8190   8206     1  0.0000000  0.4184000  3
   4465   8217   8213   8229     1  180.0000771  5.6484000  1
   4465   8217   8213   8229     1  180.0000771  3.5564000  2
   4465   8217   8213   8229     1  0.0000000  0.4184000  3
   4465   8217   8213   8212     1  180.0000771  0.4184000  2
   4465   8217   8213   8212     1  0.0000000  1.6024720  3
   4470   4471   4483   4495     1  0.0000000  0.6508444  3
   4470   4474   4486   4492     1  0.0000000  0.6508444  3
   4470   4477   4480   4489     1  0.0000000  0.6508444  3
   4471   4470   4474   4486     1  0.0000000  0.6508444  3
   4471   4470   4477   4480     1  0.0000000  0.6508444  3
   4471   4483   4495   8263     1  0.0000000  0.6508444  3
   4474   4470   4471   4483     1  0.0000000  0.6508444  3
   4474   4470   4477   4480     1  0.0000000  0.6508444  3
   4474   4486   4492   8240     1  0.0000000  0.6508444  3
   4477   4470   4471   4483     1  0.0000000  0.6508444  3
   4477   4470   4474   4486     1  0.0000000  0.6508444  3
   4477   4480   4489   4498     1  0.0000000  0.6508444  3
   4483   4495   8263   8259     1  180.0000771  0.4184000  2
   4483   4495   8263   8259     1  0.0000000  1.6024720  3
   4486   4492   8240   8236     1  180.0000771  0.4184000  2
   4486   4492   8240   8236     1  0.0000000  1.6024720  3
   4492   8240   8236   8235     1  180.0000771  0.4184000  2
   4492   8240   8236   8235     1  0.0000000  1.6024720  3
   4492   8240   8236   8252     1  180.0000771  5.6484000  1
   4492   8240   8236   8252     1  180.0000771  3.5564000  2
   4492   8240   8236   8252     1  0.0000000  0.4184000  3
   4495   8263   8259   8275     1  180.0000771  5.6484000  1
   4495   8263   8259   8275     1  180.0000771  3.5564000  2
   4495   8263   8259   8275     1  0.0000000  0.4184000  3
   4495   8263   8259   8258     1  180.0000771  0.4184000  2
   4495   8263   8259   8258     1  0.0000000  1.6024720  3
   4500   4501   4513   4525     1  0.0000000  0.6508444  3
   4500   4504   4516   4522     1  0.0000000  0.6508444  3
   4500   4507   4510   4519     1  0.0000000  0.6508444  3
   4501   4500   4504   4516     1  0.0000000  0.6508444  3
   4501   4500   4507   4510     1  0.0000000  0.6508444  3
   4501   4513   4525   8309     1  0.0000000  0.6508444  3
   4504   4500   4501   4513     1  0.0000000  0.6508444  3
   4504   4500   4507   4510     1  0.0000000  0.6508444  3
   4504   4516   4522   8286     1  0.0000000  0.6508444  3
   4507   4500   4501   4513     1  0.0000000  0.6508444  3
   4507   4500   4504   4516     1  0.0000000  0.6508444  3
   4507   4510   4519   4528     1  0.0000000  0.6508444  3
   4513   4525   8309   8305     1  180.0000771  0.4184000  2
   4513   4525   8309   8305     1  0.0000000  1.6024720  3
   4516   4522   8286   8282     1  180.0000771  0.4184000  2
   4516   4522   8286   8282     1  0.0000000  1.6024720  3
   4522   8286   8282   8281     1  180.0000771  0.4184000  2
   4522   8286   8282   8281     1  0.0000000  1.6024720  3
   4522   8286   8282   8298     1  180.0000771  5.6484000  1
   4522   8286   8282   8298     1  180.0000771  3.5564000  2
   4522   8286   8282   8298     1  0.0000000  0.4184000  3
   4525   8309   8305   8321     1  180.0000771  5.6484000  1
   4525   8309   8305   8321     1  180.0000771  3.5564000  2
   4525   8309   8305   8321     1  0.0000000  0.4184000  3
   4525   8309   8305   8304     1  180.0000771  0.4184000  2
   4525   8309   8305   8304     1  0.0000000  1.6024720  3
   4530   4531   4543   4555     1  0.0000000  0.6508444  3
   4530   4534   4546   4552     1  0.0000000  0.6508444  3
   4530   4537   4540   4549     1  0.0000000  0.6508444  3
   4531   4530   4534   4546     1  0.0000000  0.6508444  3
   4531   4530   4537   4540     1  0.0000000  0.6508444  3
   4531   4543   4555   8355     1  0.0000000  0.6508444  3
   4534   4530   4531   4543     1  0.0000000  0.6508444  3
   4534   4530   4537   4540     1  0.0000000  0.6508444  3
   4534   4546   4552   8332     1  0.0000000  0.6508444  3
   4537   4530   4531   4543     1  0.0000000  0.6508444  3
   4537   4530   4534   4546     1  0.0000000  0.6508444  3
   4537   4540   4549   4558     1  0.0000000  0.6508444  3
   4543   4555   8355   8351     1  180.0000771  0.4184000  2
   4543   4555   8355   8351     1  0.0000000  1.6024720  3
   4546   4552   8332   8328     1  180.0000771  0.4184000  2
   4546   4552   8332   8328     1  0.0000000  1.6024720  3
   4552   8332   8328   8327     1  180.0000771  0.4184000  2
   4552   8332   8328   8327     1  0.0000000  1.6024720  3
   4552   8332   8328   8344     1  180.0000771  5.6484000  1
   4552   8332   8328   8344     1  180.0000771  3.5564000  2
   4552   8332   8328   8344     1  0.0000000  0.4184000  3
   4555   8355   8351   8367     1  180.0000771  5.6484000  1
   4555   8355   8351   8367     1  180.0000771  3.5564000  2
   4555   8355   8351   8367     1  0.0000000  0.4184000  3
   4555   8355   8351   8350     1  180.0000771  0.4184000  2
   4555   8355   8351   8350     1  0.0000000  1.6024720  3
   4560   4561   4573   4585     1  0.0000000  0.6508444  3
   4560   4564   4576   4582     1  0.0000000  0.6508444  3
   4560   4567   4570   4579     1  0.0000000  0.6508444  3
   4561   4560   4564   4576     1  0.0000000  0.6508444  3
   4561   4560   4567   4570     1  0.0000000  0.6508444  3
   4561   4573   4585   8401     1  0.0000000  0.6508444  3
   4564   4560   4561   4573     1  0.0000000  0.6508444  3
   4564   4560   4567   4570     1  0.0000000  0.6508444  3
   4564   4576   4582   8378     1  0.0000000  0.6508444  3
   4567   4560   4561   4573     1  0.0000000  0.6508444  3
   4567   4560   4564   4576     1  0.0000000  0.6508444  3
   4567   4570   4579   4588     1  0.0000000  0.6508444  3
   4573   4585   8401   8397     1  180.0000771  0.4184000  2
   4573   4585   8401   8397     1  0.0000000  1.6024720  3
   4576   4582   8378   8374     1  180.0000771  0.4184000  2
   4576   4582   8378   8374     1  0.0000000  1.6024720  3
   4582   8378   8374   8373     1  180.0000771  0.4184000  2
   4582   8378   8374   8373     1  0.0000000  1.6024720  3
   4582   8378   8374   8390     1  180.0000771  5.6484000  1
   4582   8378   8374   8390     1  180.0000771  3.5564000  2
   4582   8378   8374   8390     1  0.0000000  0.4184000  3
   4585   8401   8397   8413     1  180.0000771  5.6484000  1
   4585   8401   8397   8413     1  180.0000771  3.5564000  2
   4585   8401   8397   8413     1  0.0000000  0.4184000  3
   4585   8401   8397   8396     1  180.0000771  0.4184000  2
   4585   8401   8397   8396     1  0.0000000  1.6024720  3
   4590   4591   4603   4615     1  0.0000000  0.6508444  3
   4590   4594   4606   4612     1  0.0000000  0.6508444  3
   4590   4597   4600   4609     1  0.0000000  0.6508444  3
   4591   4590   4594   4606     1  0.0000000  0.6508444  3
   4591   4590   4597   4600     1  0.0000000  0.6508444  3
   4591   4603   4615   8447     1  0.0000000  0.6508444  3
   4594   4590   4591   4603     1  0.0000000  0.6508444  3
   4594   4590   4597   4600     1  0.0000000  0.6508444  3
   4594   4606   4612   8424     1  0.0000000  0.6508444  3
   4597   4590   4591   4603     1  0.0000000  0.6508444  3
   4597   4590   4594   4606     1  0.0000000  0.6508444  3
   4597   4600   4609   4618     1  0.0000000  0.6508444  3
   4603   4615   8447   8443     1  180.0000771  0.4184000  2
   4603   4615   8447   8443     1  0.0000000  1.6024720  3
   4606   4612   8424   8420     1  180.0000771  0.4184000  2
   4606   4612   8424   8420     1  0.0000000  1.6024720  3
   4612   8424   8420   8419     1  180.0000771  0.4184000  2
   4612   8424   8420   8419     1  0.0000000  1.6024720  3
   4612   8424   8420   8436     1  180.0000771  5.6484000  1
   4612   8424   8420   8436     1  180.0000771  3.5564000  2
   4612   8424   8420   8436     1  0.0000000  0.4184000  3
   4615   8447   8443   8459     1  180.0000771  5.6484000  1
   4615   8447   8443   8459     1  180.0000771  3.5564000  2
   4615   8447   8443   8459     1  0.0000000  0.4184000  3
   4615   8447   8443   8442     1  180.0000771  0.4184000  2
   4615   8447   8443   8442     1  0.0000000  1.6024720  3
   4620   4621   4633   4645     1  0.0000000  0.6508444  3
   4620   4624   4636   4642     1  0.0000000  0.6508444  3
   4620   4627   4630   4639     1  0.0000000  0.6508444  3
   4621   4620   4624   4636     1  0.0000000  0.6508444  3
   4621   4620   4627   4630     1  0.0000000  0.6508444  3
   4621   4633   4645   8493     1  0.0000000  0.6508444  3
   4624   4620   4621   4633     1  0.0000000  0.6508444  3
   4624   4620   4627   4630     1  0.0000000  0.6508444  3
   4624   4636   4642   8470     1  0.0000000  0.6508444  3
   4627   4620   4621   4633     1  0.0000000  0.6508444  3
   4627   4620   4624   4636     1  0.0000000  0.6508444  3
   4627   4630   4639   4648     1  0.0000000  0.6508444  3
   4633   4645   8493   8489     1  180.0000771  0.4184000  2
   4633   4645   8493   8489     1  0.0000000  1.6024720  3
   4636   4642   8470   8466     1  180.0000771  0.4184000  2
   4636   4642   8470   8466     1  0.0000000  1.6024720  3
   4642   8470   8466   8465     1  180.0000771  0.4184000  2
   4642   8470   8466   8465     1  0.0000000  1.6024720  3
   4642   8470   8466   8482     1  180.0000771  5.6484000  1
   4642   8470   8466   8482     1  180.0000771  3.5564000  2
   4642   8470   8466   8482     1  0.0000000  0.4184000  3
   4645   8493   8489   8505     1  180.0000771  5.6484000  1
   4645   8493   8489   8505     1  180.0000771  3.5564000  2
   4645   8493   8489   8505     1  0.0000000  0.4184000  3
   4645   8493   8489   8488     1  180.0000771  0.4184000  2
   4645   8493   8489   8488     1  0.0000000  1.6024720  3
   4650   4651   4663   4675     1  0.0000000  0.6508444  3
   4650   4654   4666   4672     1  0.0000000  0.6508444  3
   4650   4657   4660   4669     1  0.0000000  0.6508444  3
   4651   4650   4654   4666     1  0.0000000  0.6508444  3
   4651   4650   4657   4660     1  0.0000000  0.6508444  3
   4651   4663   4675   8539     1  0.0000000  0.6508444  3
   4654   4650   4651   4663     1  0.0000000  0.6508444  3
   4654   4650   4657   4660     1  0.0000000  0.6508444  3
   4654   4666   4672   8516     1  0.0000000  0.6508444  3
   4657   4650   4651   4663     1  0.0000000  0.6508444  3
   4657   4650   4654   4666     1  0.0000000  0.6508444  3
   4657   4660   4669   4678     1  0.0000000  0.6508444  3
   4663   4675   8539   8535     1  180.0000771  0.4184000  2
   4663   4675   8539   8535     1  0.0000000  1.6024720  3
   4666   4672   8516   8512     1  180.0000771  0.4184000  2
   4666   4672   8516   8512     1  0.0000000  1.6024720  3
   4672   8516   8512   8511     1  180.0000771  0.4184000  2
   4672   8516   8512   8511     1  0.0000000  1.6024720  3
   4672   8516   8512   8528     1  180.0000771  5.6484000  1
   4672   8516   8512   8528     1  180.0000771  3.5564000  2
   4672   8516   8512   8528     1  0.0000000  0.4184000  3
   4675   8539   8535   8551     1  180.0000771  5.6484000  1
   4675   8539   8535   8551     1  180.0000771  3.5564000  2
   4675   8539   8535   8551     1  0.0000000  0.4184000  3
   4675   8539   8535   8534     1  180.0000771  0.4184000  2
   4675   8539   8535   8534     1  0.0000000  1.6024720  3
   4680   4681   4693   4705     1  0.0000000  0.6508444  3
   4680   4684   4696   4702     1  0.0000000  0.6508444  3
   4680   4687   4690   4699     1  0.0000000  0.6508444  3
   4681   4680   4684   4696     1  0.0000000  0.6508444  3
   4681   4680   4687   4690     1  0.0000000  0.6508444  3
   4681   4693   4705   8585     1  0.0000000  0.6508444  3
   4684   4680   4681   4693     1  0.0000000  0.6508444  3
   4684   4680   4687   4690     1  0.0000000  0.6508444  3
   4684   4696   4702   8562     1  0.0000000  0.6508444  3
   4687   4680   4681   4693     1  0.0000000  0.6508444  3
   4687   4680   4684   4696     1  0.0000000  0.6508444  3
   4687   4690   4699   4708     1  0.0000000  0.6508444  3
   4693   4705   8585   8581     1  180.0000771  0.4184000  2
   4693   4705   8585   8581     1  0.0000000  1.6024720  3
   4696   4702   8562   8558     1  180.0000771  0.4184000  2
   4696   4702   8562   8558     1  0.0000000  1.6024720  3
   4702   8562   8558   8557     1  180.0000771  0.4184000  2
   4702   8562   8558   8557     1  0.0000000  1.6024720  3
   4702   8562   8558   8574     1  180.0000771  5.6484000  1
   4702   8562   8558   8574     1  180.0000771  3.5564000  2
   4702   8562   8558   8574     1  0.0000000  0.4184000  3
   4705   8585   8581   8597     1  180.0000771  5.6484000  1
   4705   8585   8581   8597     1  180.0000771  3.5564000  2
   4705   8585   8581   8597     1  0.0000000  0.4184000  3
   4705   8585   8581   8580     1  180.0000771  0.4184000  2
   4705   8585   8581   8580     1  0.0000000  1.6024720  3
   4710   4711   4723   4735     1  0.0000000  0.6508444  3
   4710   4714   4726   4732     1  0.0000000  0.6508444  3
   4710   4717   4720   4729     1  0.0000000  0.6508444  3
   4711   4710   4714   4726     1  0.0000000  0.6508444  3
   4711   4710   4717   4720     1  0.0000000  0.6508444  3
   4711   4723   4735   8631     1  0.0000000  0.6508444  3
   4714   4710   4711   4723     1  0.0000000  0.6508444  3
   4714   4710   4717   4720     1  0.0000000  0.6508444  3
   4714   4726   4732   8608     1  0.0000000  0.6508444  3
   4717   4710   4711   4723     1  0.0000000  0.6508444  3
   4717   4710   4714   4726     1  0.0000000  0.6508444  3
   4717   4720   4729   4738     1  0.0000000  0.6508444  3
   4723   4735   8631   8627     1  180.0000771  0.4184000  2
   4723   4735   8631   8627     1  0.0000000  1.6024720  3
   4726   4732   8608   8604     1  180.0000771  0.4184000  2
   4726   4732   8608   8604     1  0.0000000  1.6024720  3
   4732   8608   8604   8603     1  180.0000771  0.4184000  2
   4732   8608   8604   8603     1  0.0000000  1.6024720  3
   4732   8608   8604   8620     1  180.0000771  5.6484000  1
   4732   8608   8604   8620     1  180.0000771  3.5564000  2
   4732   8608   8604   8620     1  0.0000000  0.4184000  3
   4735   8631   8627   8643     1  180.0000771  5.6484000  1
   4735   8631   8627   8643     1  180.0000771  3.5564000  2
   4735   8631   8627   8643     1  0.0000000  0.4184000  3
   4735   8631   8627   8626     1  180.0000771  0.4184000  2
   4735   8631   8627   8626     1  0.0000000  1.6024720  3
   4740   4741   4753   4765     1  0.0000000  0.6508444  3
   4740   4744   4756   4762     1  0.0000000  0.6508444  3
   4740   4747   4750   4759     1  0.0000000  0.6508444  3
   4741   4740   4744   4756     1  0.0000000  0.6508444  3
   4741   4740   4747   4750     1  0.0000000  0.6508444  3
   4741   4753   4765   8677     1  0.0000000  0.6508444  3
   4744   4740   4741   4753     1  0.0000000  0.6508444  3
   4744   4740   4747   4750     1  0.0000000  0.6508444  3
   4744   4756   4762   8654     1  0.0000000  0.6508444  3
   4747   4740   4741   4753     1  0.0000000  0.6508444  3
   4747   4740   4744   4756     1  0.0000000  0.6508444  3
   4747   4750   4759   4768     1  0.0000000  0.6508444  3
   4753   4765   8677   8673     1  180.0000771  0.4184000  2
   4753   4765   8677   8673     1  0.0000000  1.6024720  3
   4756   4762   8654   8650     1  180.0000771  0.4184000  2
   4756   4762   8654   8650     1  0.0000000  1.6024720  3
   4762   8654   8650   8649     1  180.0000771  0.4184000  2
   4762   8654   8650   8649     1  0.0000000  1.6024720  3
   4762   8654   8650   8666     1  180.0000771  5.6484000  1
   4762   8654   8650   8666     1  180.0000771  3.5564000  2
   4762   8654   8650   8666     1  0.0000000  0.4184000  3
   4765   8677   8673   8689     1  180.0000771  5.6484000  1
   4765   8677   8673   8689     1  180.0000771  3.5564000  2
   4765   8677   8673   8689     1  0.0000000  0.4184000  3
   4765   8677   8673   8672     1  180.0000771  0.4184000  2
   4765   8677   8673   8672     1  0.0000000  1.6024720  3
   4770   4771   4783   4795     1  0.0000000  0.6508444  3
   4770   4774   4786   4792     1  0.0000000  0.6508444  3
   4770   4777   4780   4789     1  0.0000000  0.6508444  3
   4771   4770   4774   4786     1  0.0000000  0.6508444  3
   4771   4770   4777   4780     1  0.0000000  0.6508444  3
   4771   4783   4795   8723     1  0.0000000  0.6508444  3
   4774   4770   4771   4783     1  0.0000000  0.6508444  3
   4774   4770   4777   4780     1  0.0000000  0.6508444  3
   4774   4786   4792   8700     1  0.0000000  0.6508444  3
   4777   4770   4771   4783     1  0.0000000  0.6508444  3
   4777   4770   4774   4786     1  0.0000000  0.6508444  3
   4777   4780   4789   4798     1  0.0000000  0.6508444  3
   4783   4795   8723   8719     1  180.0000771  0.4184000  2
   4783   4795   8723   8719     1  0.0000000  1.6024720  3
   4786   4792   8700   8696     1  180.0000771  0.4184000  2
   4786   4792   8700   8696     1  0.0000000  1.6024720  3
   4792   8700   8696   8695     1  180.0000771  0.4184000  2
   4792   8700   8696   8695     1  0.0000000  1.6024720  3
   4792   8700   8696   8712     1  180.0000771  5.6484000  1
   4792   8700   8696   8712     1  180.0000771  3.5564000  2
   4792   8700   8696   8712     1  0.0000000  0.4184000  3
   4795   8723   8719   8735     1  180.0000771  5.6484000  1
   4795   8723   8719   8735     1  180.0000771  3.5564000  2
   4795   8723   8719   8735     1  0.0000000  0.4184000  3
   4795   8723   8719   8718     1  180.0000771  0.4184000  2
   4795   8723   8719   8718     1  0.0000000  1.6024720  3
   4800   4801   4813   4825     1  0.0000000  0.6508444  3
   4800   4804   4816   4822     1  0.0000000  0.6508444  3
   4800   4807   4810   4819     1  0.0000000  0.6508444  3
   4801   4800   4804   4816     1  0.0000000  0.6508444  3
   4801   4800   4807   4810     1  0.0000000  0.6508444  3
   4801   4813   4825   8769     1  0.0000000  0.6508444  3
   4804   4800   4801   4813     1  0.0000000  0.6508444  3
   4804   4800   4807   4810     1  0.0000000  0.6508444  3
   4804   4816   4822   8746     1  0.0000000  0.6508444  3
   4807   4800   4801   4813     1  0.0000000  0.6508444  3
   4807   4800   4804   4816     1  0.0000000  0.6508444  3
   4807   4810   4819   4828     1  0.0000000  0.6508444  3
   4813   4825   8769   8765     1  180.0000771  0.4184000  2
   4813   4825   8769   8765     1  0.0000000  1.6024720  3
   4816   4822   8746   8742     1  180.0000771  0.4184000  2
   4816   4822   8746   8742     1  0.0000000  1.6024720  3
   4822   8746   8742   8741     1  180.0000771  0.4184000  2
   4822   8746   8742   8741     1  0.0000000  1.6024720  3
   4822   8746   8742   8758     1  180.0000771  5.6484000  1
   4822   8746   8742   8758     1  180.0000771  3.5564000  2
   4822   8746   8742   8758     1  0.0000000  0.4184000  3
   4825   8769   8765   8781     1  180.0000771  5.6484000  1
   4825   8769   8765   8781     1  180.0000771  3.5564000  2
   4825   8769   8765   8781     1  0.0000000  0.4184000  3
   4825   8769   8765   8764     1  180.0000771  0.4184000  2
   4825   8769   8765   8764     1  0.0000000  1.6024720  3
   4830   4831   4843   4855     1  0.0000000  0.6508444  3
   4830   4834   4846   4852     1  0.0000000  0.6508444  3
   4830   4837   4840   4849     1  0.0000000  0.6508444  3
   4831   4830   4834   4846     1  0.0000000  0.6508444  3
   4831   4830   4837   4840     1  0.0000000  0.6508444  3
   4831   4843   4855   8815     1  0.0000000  0.6508444  3
   4834   4830   4831   4843     1  0.0000000  0.6508444  3
   4834   4830   4837   4840     1  0.0000000  0.6508444  3
   4834   4846   4852   8792     1  0.0000000  0.6508444  3
   4837   4830   4831   4843     1  0.0000000  0.6508444  3
   4837   4830   4834   4846     1  0.0000000  0.6508444  3
   4837   4840   4849   4858     1  0.0000000  0.6508444  3
   4843   4855   8815   8811     1  180.0000771  0.4184000  2
   4843   4855   8815   8811     1  0.0000000  1.6024720  3
   4846   4852   8792   8788     1  180.0000771  0.4184000  2
   4846   4852   8792   8788     1  0.0000000  1.6024720  3
   4852   8792   8788   8787     1  180.0000771  0.4184000  2
   4852   8792   8788   8787     1  0.0000000  1.6024720  3
   4852   8792   8788   8804     1  180.0000771  5.6484000  1
   4852   8792   8788   8804     1  180.0000771  3.5564000  2
   4852   8792   8788   8804     1  0.0000000  0.4184000  3
   4855   8815   8811   8827     1  180.0000771  5.6484000  1
   4855   8815   8811   8827     1  180.0000771  3.5564000  2
   4855   8815   8811   8827     1  0.0000000  0.4184000  3
   4855   8815   8811   8810     1  180.0000771  0.4184000  2
   4855   8815   8811   8810     1  0.0000000  1.6024720  3
   4860   4861   4873   4885     1  0.0000000  0.6508444  3
   4860   4864   4876   4882     1  0.0000000  0.6508444  3
   4860   4867   4870   4879     1  0.0000000  0.6508444  3
   4861   4860   4864   4876     1  0.0000000  0.6508444  3
   4861   4860   4867   4870     1  0.0000000  0.6508444  3
   4861   4873   4885   8861     1  0.0000000  0.6508444  3
   4864   4860   4861   4873     1  0.0000000  0.6508444  3
   4864   4860   4867   4870     1  0.0000000  0.6508444  3
   4864   4876   4882   8838     1  0.0000000  0.6508444  3
   4867   4860   4861   4873     1  0.0000000  0.6508444  3
   4867   4860   4864   4876     1  0.0000000  0.6508444  3
   4867   4870   4879   4888     1  0.0000000  0.6508444  3
   4873   4885   8861   8857     1  180.0000771  0.4184000  2
   4873   4885   8861   8857     1  0.0000000  1.6024720  3
   4876   4882   8838   8834     1  180.0000771  0.4184000  2
   4876   4882   8838   8834     1  0.0000000  1.6024720  3
   4882   8838   8834   8833     1  180.0000771  0.4184000  2
   4882   8838   8834   8833     1  0.0000000  1.6024720  3
   4882   8838   8834   8850     1  180.0000771  5.6484000  1
   4882   8838   8834   8850     1  180.0000771  3.5564000  2
   4882   8838   8834   8850     1  0.0000000  0.4184000  3
   4885   8861   8857   8873     1  180.0000771  5.6484000  1
   4885   8861   8857   8873     1  180.0000771  3.5564000  2
   4885   8861   8857   8873     1  0.0000000  0.4184000  3
   4885   8861   8857   8856     1  180.0000771  0.4184000  2
   4885   8861   8857   8856     1  0.0000000  1.6024720  3
   4890   4891   4903   4915     1  0.0000000  0.6508444  3
   4890   4894   4906   4912     1  0.0000000  0.6508444  3
   4890   4897   4900   4909     1  0.0000000  0.6508444  3
   4891   4890   4894   4906     1  0.0000000  0.6508444  3
   4891   4890   4897   4900     1  0.0000000  0.6508444  3
   4891   4903   4915   8907     1  0.0000000  0.6508444  3
   4894   4890   4891   4903     1  0.0000000  0.6508444  3
   4894   4890   4897   4900     1  0.0000000  0.6508444  3
   4894   4906   4912   8884     1  0.0000000  0.6508444  3
   4897   4890   4891   4903     1  0.0000000  0.6508444  3
   4897   4890   4894   4906     1  0.0000000  0.6508444  3
   4897   4900   4909   4918     1  0.0000000  0.6508444  3
   4903   4915   8907   8903     1  180.0000771  0.4184000  2
   4903   4915   8907   8903     1  0.0000000  1.6024720  3
   4906   4912   8884   8880     1  180.0000771  0.4184000  2
   4906   4912   8884   8880     1  0.0000000  1.6024720  3
   4912   8884   8880   8879     1  180.0000771  0.4184000  2
   4912   8884   8880   8879     1  0.0000000  1.6024720  3
   4912   8884   8880   8896     1  180.0000771  5.6484000  1
   4912   8884   8880   8896     1  180.0000771  3.5564000  2
   4912   8884   8880   8896     1  0.0000000  0.4184000  3
   4915   8907   8903   8919     1  180.0000771  5.6484000  1
   4915   8907   8903   8919     1  180.0000771  3.5564000  2
   4915   8907   8903   8919     1  0.0000000  0.4184000  3
   4915   8907   8903   8902     1  180.0000771  0.4184000  2
   4915   8907   8903   8902     1  0.0000000  1.6024720  3
   4920   4921   4933   4945     1  0.0000000  0.6508444  3
   4920   4924   4936   4942     1  0.0000000  0.6508444  3
   4920   4927   4930   4939     1  0.0000000  0.6508444  3
   4921   4920   4924   4936     1  0.0000000  0.6508444  3
   4921   4920   4927   4930     1  0.0000000  0.6508444  3
   4921   4933   4945   8953     1  0.0000000  0.6508444  3
   4924   4920   4921   4933     1  0.0000000  0.6508444  3
   4924   4920   4927   4930     1  0.0000000  0.6508444  3
   4924   4936   4942   8930     1  0.0000000  0.6508444  3
   4927   4920   4921   4933     1  0.0000000  0.6508444  3
   4927   4920   4924   4936     1  0.0000000  0.6508444  3
   4927   4930   4939   4948     1  0.0000000  0.6508444  3
   4933   4945   8953   8949     1  180.0000771  0.4184000  2
   4933   4945   8953   8949     1  0.0000000  1.6024720  3
   4936   4942   8930   8926     1  180.0000771  0.4184000  2
   4936   4942   8930   8926     1  0.0000000  1.6024720  3
   4942   8930   8926   8925     1  180.0000771  0.4184000  2
   4942   8930   8926   8925     1  0.0000000  1.6024720  3
   4942   8930   8926   8942     1  180.0000771  5.6484000  1
   4942   8930   8926   8942     1  180.0000771  3.5564000  2
   4942   8930   8926   8942     1  0.0000000  0.4184000  3
   4945   8953   8949   8965     1  180.0000771  5.6484000  1
   4945   8953   8949   8965     1  180.0000771  3.5564000  2
   4945   8953   8949   8965     1  0.0000000  0.4184000  3
   4945   8953   8949   8948     1  180.0000771  0.4184000  2
   4945   8953   8949   8948     1  0.0000000  1.6024720  3
   4950   4951   4963   4975     1  0.0000000  0.6508444  3
   4950   4954   4966   4972     1  0.0000000  0.6508444  3
   4950   4957   4960   4969     1  0.0000000  0.6508444  3
   4951   4950   4954   4966     1  0.0000000  0.6508444  3
   4951   4950   4957   4960     1  0.0000000  0.6508444  3
   4951   4963   4975   8999     1  0.0000000  0.6508444  3
   4954   4950   4951   4963     1  0.0000000  0.6508444  3
   4954   4950   4957   4960     1  0.0000000  0.6508444  3
   4954   4966   4972   8976     1  0.0000000  0.6508444  3
   4957   4950   4951   4963     1  0.0000000  0.6508444  3
   4957   4950   4954   4966     1  0.0000000  0.6508444  3
   4957   4960   4969   4978     1  0.0000000  0.6508444  3
   4963   4975   8999   8995     1  180.0000771  0.4184000  2
   4963   4975   8999   8995     1  0.0000000  1.6024720  3
   4966   4972   8976   8972     1  180.0000771  0.4184000  2
   4966   4972   8976   8972     1  0.0000000  1.6024720  3
   4972   8976   8972   8971     1  180.0000771  0.4184000  2
   4972   8976   8972   8971     1  0.0000000  1.6024720  3
   4972   8976   8972   8988     1  180.0000771  5.6484000  1
   4972   8976   8972   8988     1  180.0000771  3.5564000  2
   4972   8976   8972   8988     1  0.0000000  0.4184000  3
   4975   8999   8995   9011     1  180.0000771  5.6484000  1
   4975   8999   8995   9011     1  180.0000771  3.5564000  2
   4975   8999   8995   9011     1  0.0000000  0.4184000  3
   4975   8999   8995   8994     1  180.0000771  0.4184000  2
   4975   8999   8995   8994     1  0.0000000  1.6024720  3
   4980   4981   4993   5005     1  0.0000000  0.6508444  3
   4980   4984   4996   5002     1  0.0000000  0.6508444  3
   4980   4987   4990   4999     1  0.0000000  0.6508444  3
   4981   4980   4984   4996     1  0.0000000  0.6508444  3
   4981   4980   4987   4990     1  0.0000000  0.6508444  3
   4981   4993   5005   9045     1  0.0000000  0.6508444  3
   4984   4980   4981   4993     1  0.0000000  0.6508444  3
   4984   4980   4987   4990     1  0.0000000  0.6508444  3
   4984   4996   5002   9022     1  0.0000000  0.6508444  3
   4987   4980   4981   4993     1  0.0000000  0.6508444  3
   4987   4980   4984   4996     1  0.0000000  0.6508444  3
   4987   4990   4999   5008     1  0.0000000  0.6508444  3
   4993   5005   9045   9041     1  180.0000771  0.4184000  2
   4993   5005   9045   9041     1  0.0000000  1.6024720  3
   4996   5002   9022   9018     1  180.0000771  0.4184000  2
   4996   5002   9022   9018     1  0.0000000  1.6024720  3
   5002   9022   9018   9017     1  180.0000771  0.4184000  2
   5002   9022   9018   9017     1  0.0000000  1.6024720  3
   5002   9022   9018   9034     1  180.0000771  5.6484000  1
   5002   9022   9018   9034     1  180.0000771  3.5564000  2
   5002   9022   9018   9034     1  0.0000000  0.4184000  3
   5005   9045   9041   9057     1  180.0000771  5.6484000  1
   5005   9045   9041   9057     1  180.0000771  3.5564000  2
   5005   9045   9041   9057     1  0.0000000  0.4184000  3
   5005   9045   9041   9040     1  180.0000771  0.4184000  2
   5005   9045   9041   9040     1  0.0000000  1.6024720  3
   5010   5011   5023   5035     1  0.0000000  0.6508444  3
   5010   5014   5026   5032     1  0.0000000  0.6508444  3
   5010   5017   5020   5029     1  0.0000000  0.6508444  3
   5011   5010   5014   5026     1  0.0000000  0.6508444  3
   5011   5010   5017   5020     1  0.0000000  0.6508444  3
   5011   5023   5035   9091     1  0.0000000  0.6508444  3
   5014   5010   5011   5023     1  0.0000000  0.6508444  3
   5014   5010   5017   5020     1  0.0000000  0.6508444  3
   5014   5026   5032   9068     1  0.0000000  0.6508444  3
   5017   5010   5011   5023     1  0.0000000  0.6508444  3
   5017   5010   5014   5026     1  0.0000000  0.6508444  3
   5017   5020   5029   5038     1  0.0000000  0.6508444  3
   5023   5035   9091   9087     1  180.0000771  0.4184000  2
   5023   5035   9091   9087     1  0.0000000  1.6024720  3
   5026   5032   9068   9064     1  180.0000771  0.4184000  2
   5026   5032   9068   9064     1  0.0000000  1.6024720  3
   5032   9068   9064   9063     1  180.0000771  0.4184000  2
   5032   9068   9064   9063     1  0.0000000  1.6024720  3
   5032   9068   9064   9080     1  180.0000771  5.6484000  1
   5032   9068   9064   9080     1  180.0000771  3.5564000  2
   5032   9068   9064   9080     1  0.0000000  0.4184000  3
   5035   9091   9087   9103     1  180.0000771  5.6484000  1
   5035   9091   9087   9103     1  180.0000771  3.5564000  2
   5035   9091   9087   9103     1  0.0000000  0.4184000  3
   5035   9091   9087   9086     1  180.0000771  0.4184000  2
   5035   9091   9087   9086     1  0.0000000  1.6024720  3
   5040   5041   5053   5065     1  0.0000000  0.6508444  3
   5040   5044   5056   5062     1  0.0000000  0.6508444  3
   5040   5047   5050   5059     1  0.0000000  0.6508444  3
   5041   5040   5044   5056     1  0.0000000  0.6508444  3
   5041   5040   5047   5050     1  0.0000000  0.6508444  3
   5041   5053   5065   9137     1  0.0000000  0.6508444  3
   5044   5040   5041   5053     1  0.0000000  0.6508444  3
   5044   5040   5047   5050     1  0.0000000  0.6508444  3
   5044   5056   5062   9114     1  0.0000000  0.6508444  3
   5047   5040   5041   5053     1  0.0000000  0.6508444  3
   5047   5040   5044   5056     1  0.0000000  0.6508444  3
   5047   5050   5059   5068     1  0.0000000  0.6508444  3
   5053   5065   9137   9133     1  180.0000771  0.4184000  2
   5053   5065   9137   9133     1  0.0000000  1.6024720  3
   5056   5062   9114   9110     1  180.0000771  0.4184000  2
   5056   5062   9114   9110     1  0.0000000  1.6024720  3
   5062   9114   9110   9109     1  180.0000771  0.4184000  2
   5062   9114   9110   9109     1  0.0000000  1.6024720  3
   5062   9114   9110   9126     1  180.0000771  5.6484000  1
   5062   9114   9110   9126     1  180.0000771  3.5564000  2
   5062   9114   9110   9126     1  0.0000000  0.4184000  3
   5065   9137   9133   9149     1  180.0000771  5.6484000  1
   5065   9137   9133   9149     1  180.0000771  3.5564000  2
   5065   9137   9133   9149     1  0.0000000  0.4184000  3
   5065   9137   9133   9132     1  180.0000771  0.4184000  2
   5065   9137   9133   9132     1  0.0000000  1.6024720  3
   5070   5071   5083   5095     1  0.0000000  0.6508444  3
   5070   5074   5086   5092     1  0.0000000  0.6508444  3
   5070   5077   5080   5089     1  0.0000000  0.6508444  3
   5071   5070   5074   5086     1  0.0000000  0.6508444  3
   5071   5070   5077   5080     1  0.0000000  0.6508444  3
   5071   5083   5095   9183     1  0.0000000  0.6508444  3
   5074   5070   5071   5083     1  0.0000000  0.6508444  3
   5074   5070   5077   5080     1  0.0000000  0.6508444  3
   5074   5086   5092   9160     1  0.0000000  0.6508444  3
   5077   5070   5071   5083     1  0.0000000  0.6508444  3
   5077   5070   5074   5086     1  0.0000000  0.6508444  3
   5077   5080   5089   5098     1  0.0000000  0.6508444  3
   5083   5095   9183   9179     1  180.0000771  0.4184000  2
   5083   5095   9183   9179     1  0.0000000  1.6024720  3
   5086   5092   9160   9156     1  180.0000771  0.4184000  2
   5086   5092   9160   9156     1  0.0000000  1.6024720  3
   5092   9160   9156   9155     1  180.0000771  0.4184000  2
   5092   9160   9156   9155     1  0.0000000  1.6024720  3
   5092   9160   9156   9172     1  180.0000771  5.6484000  1
   5092   9160   9156   9172     1  180.0000771  3.5564000  2
   5092   9160   9156   9172     1  0.0000000  0.4184000  3
   5095   9183   9179   9195     1  180.0000771  5.6484000  1
   5095   9183   9179   9195     1  180.0000771  3.5564000  2
   5095   9183   9179   9195     1  0.0000000  0.4184000  3
   5095   9183   9179   9178     1  180.0000771  0.4184000  2
   5095   9183   9179   9178     1  0.0000000  1.6024720  3
   5100   5101   5113   5125     1  0.0000000  0.6508444  3
   5100   5104   5116   5122     1  0.0000000  0.6508444  3
   5100   5107   5110   5119     1  0.0000000  0.6508444  3
   5101   5100   5104   5116     1  0.0000000  0.6508444  3
   5101   5100   5107   5110     1  0.0000000  0.6508444  3
   5101   5113   5125   9229     1  0.0000000  0.6508444  3
   5104   5100   5101   5113     1  0.0000000  0.6508444  3
   5104   5100   5107   5110     1  0.0000000  0.6508444  3
   5104   5116   5122   9206     1  0.0000000  0.6508444  3
   5107   5100   5101   5113     1  0.0000000  0.6508444  3
   5107   5100   5104   5116     1  0.0000000  0.6508444  3
   5107   5110   5119   5128     1  0.0000000  0.6508444  3
   5113   5125   9229   9225     1  180.0000771  0.4184000  2
   5113   5125   9229   9225     1  0.0000000  1.6024720  3
   5116   5122   9206   9202     1  180.0000771  0.4184000  2
   5116   5122   9206   9202     1  0.0000000  1.6024720  3
   5122   9206   9202   9201     1  180.0000771  0.4184000  2
   5122   9206   9202   9201     1  0.0000000  1.6024720  3
   5122   9206   9202   9218     1  180.0000771  5.6484000  1
   5122   9206   9202   9218     1  180.0000771  3.5564000  2
   5122   9206   9202   9218     1  0.0000000  0.4184000  3
   5125   9229   9225   9241     1  180.0000771  5.6484000  1
   5125   9229   9225   9241     1  180.0000771  3.5564000  2
   5125   9229   9225   9241     1  0.0000000  0.4184000  3
   5125   9229   9225   9224     1  180.0000771  0.4184000  2
   5125   9229   9225   9224     1  0.0000000  1.6024720  3
   5130   5131   5143   5155     1  0.0000000  0.6508444  3
   5130   5134   5146   5152     1  0.0000000  0.6508444  3
   5130   5137   5140   5149     1  0.0000000  0.6508444  3
   5131   5130   5134   5146     1  0.0000000  0.6508444  3
   5131   5130   5137   5140     1  0.0000000  0.6508444  3
   5131   5143   5155   9275     1  0.0000000  0.6508444  3
   5134   5130   5131   5143     1  0.0000000  0.6508444  3
   5134   5130   5137   5140     1  0.0000000  0.6508444  3
   5134   5146   5152   9252     1  0.0000000  0.6508444  3
   5137   5130   5131   5143     1  0.0000000  0.6508444  3
   5137   5130   5134   5146     1  0.0000000  0.6508444  3
   5137   5140   5149   5158     1  0.0000000  0.6508444  3
   5143   5155   9275   9271     1  180.0000771  0.4184000  2
   5143   5155   9275   9271     1  0.0000000  1.6024720  3
   5146   5152   9252   9248     1  180.0000771  0.4184000  2
   5146   5152   9252   9248     1  0.0000000  1.6024720  3
   5152   9252   9248   9247     1  180.0000771  0.4184000  2
   5152   9252   9248   9247     1  0.0000000  1.6024720  3
   5152   9252   9248   9264     1  180.0000771  5.6484000  1
   5152   9252   9248   9264     1  180.0000771  3.5564000  2
   5152   9252   9248   9264     1  0.0000000  0.4184000  3
   5155   9275   9271   9287     1  180.0000771  5.6484000  1
   5155   9275   9271   9287     1  180.0000771  3.5564000  2
   5155   9275   9271   9287     1  0.0000000  0.4184000  3
   5155   9275   9271   9270     1  180.0000771  0.4184000  2
   5155   9275   9271   9270     1  0.0000000  1.6024720  3
   5160   5161   5173   5185     1  0.0000000  0.6508444  3
   5160   5164   5176   5182     1  0.0000000  0.6508444  3
   5160   5167   5170   5179     1  0.0000000  0.6508444  3
   5161   5160   5164   5176     1  0.0000000  0.6508444  3
   5161   5160   5167   5170     1  0.0000000  0.6508444  3
   5161   5173   5185   9321     1  0.0000000  0.6508444  3
   5164   5160   5161   5173     1  0.0000000  0.6508444  3
   5164   5160   5167   5170     1  0.0000000  0.6508444  3
   5164   5176   5182   9298     1  0.0000000  0.6508444  3
   5167   5160   5161   5173     1  0.0000000  0.6508444  3
   5167   5160   5164   5176     1  0.0000000  0.6508444  3
   5167   5170   5179   5188     1  0.0000000  0.6508444  3
   5173   5185   9321   9317     1  180.0000771  0.4184000  2
   5173   5185   9321   9317     1  0.0000000  1.6024720  3
   5176   5182   9298   9294     1  180.0000771  0.4184000  2
   5176   5182   9298   9294     1  0.0000000  1.6024720  3
   5182   9298   9294   9293     1  180.0000771  0.4184000  2
   5182   9298   9294   9293     1  0.0000000  1.6024720  3
   5182   9298   9294   9310     1  180.0000771  5.6484000  1
   5182   9298   9294   9310     1  180.0000771  3.5564000  2
   5182   9298   9294   9310     1  0.0000000  0.4184000  3
   5185   9321   9317   9333     1  180.0000771  5.6484000  1
   5185   9321   9317   9333     1  180.0000771  3.5564000  2
   5185   9321   9317   9333     1  0.0000000  0.4184000  3
   5185   9321   9317   9316     1  180.0000771  0.4184000  2
   5185   9321   9317   9316     1  0.0000000  1.6024720  3
   5190   5191   5203   5215     1  0.0000000  0.6508444  3
   5190   5194   5206   5212     1  0.0000000  0.6508444  3
   5190   5197   5200   5209     1  0.0000000  0.6508444  3
   5191   5190   5194   5206     1  0.0000000  0.6508444  3
   5191   5190   5197   5200     1  0.0000000  0.6508444  3
   5191   5203   5215   9367     1  0.0000000  0.6508444  3
   5194   5190   5191   5203     1  0.0000000  0.6508444  3
   5194   5190   5197   5200     1  0.0000000  0.6508444  3
   5194   5206   5212   9344     1  0.0000000  0.6508444  3
   5197   5190   5191   5203     1  0.0000000  0.6508444  3
   5197   5190   5194   5206     1  0.0000000  0.6508444  3
   5197   5200   5209   5218     1  0.0000000  0.6508444  3
   5203   5215   9367   9363     1  180.0000771  0.4184000  2
   5203   5215   9367   9363     1  0.0000000  1.6024720  3
   5206   5212   9344   9340     1  180.0000771  0.4184000  2
   5206   5212   9344   9340     1  0.0000000  1.6024720  3
   5212   9344   9340   9339     1  180.0000771  0.4184000  2
   5212   9344   9340   9339     1  0.0000000  1.6024720  3
   5212   9344   9340   9356     1  180.0000771  5.6484000  1
   5212   9344   9340   9356     1  180.0000771  3.5564000  2
   5212   9344   9340   9356     1  0.0000000  0.4184000  3
   5215   9367   9363   9379     1  180.0000771  5.6484000  1
   5215   9367   9363   9379     1  180.0000771  3.5564000  2
   5215   9367   9363   9379     1  0.0000000  0.4184000  3
   5215   9367   9363   9362     1  180.0000771  0.4184000  2
   5215   9367   9363   9362     1  0.0000000  1.6024720  3
   5220   5221   5233   5245     1  0.0000000  0.6508444  3
   5220   5224   5236   5242     1  0.0000000  0.6508444  3
   5220   5227   5230   5239     1  0.0000000  0.6508444  3
   5221   5220   5224   5236     1  0.0000000  0.6508444  3
   5221   5220   5227   5230     1  0.0000000  0.6508444  3
   5221   5233   5245   9413     1  0.0000000  0.6508444  3
   5224   5220   5221   5233     1  0.0000000  0.6508444  3
   5224   5220   5227   5230     1  0.0000000  0.6508444  3
   5224   5236   5242   9390     1  0.0000000  0.6508444  3
   5227   5220   5221   5233     1  0.0000000  0.6508444  3
   5227   5220   5224   5236     1  0.0000000  0.6508444  3
   5227   5230   5239   5248     1  0.0000000  0.6508444  3
   5233   5245   9413   9409     1  180.0000771  0.4184000  2
   5233   5245   9413   9409     1  0.0000000  1.6024720  3
   5236   5242   9390   9386     1  180.0000771  0.4184000  2
   5236   5242   9390   9386     1  0.0000000  1.6024720  3
   5242   9390   9386   9385     1  180.0000771  0.4184000  2
   5242   9390   9386   9385     1  0.0000000  1.6024720  3
   5242   9390   9386   9402     1  180.0000771  5.6484000  1
   5242   9390   9386   9402     1  180.0000771  3.5564000  2
   5242   9390   9386   9402     1  0.0000000  0.4184000  3
   5245   9413   9409   9425     1  180.0000771  5.6484000  1
   5245   9413   9409   9425     1  180.0000771  3.5564000  2
   5245   9413   9409   9425     1  0.0000000  0.4184000  3
   5245   9413   9409   9408     1  180.0000771  0.4184000  2
   5245   9413   9409   9408     1  0.0000000  1.6024720  3
   5250   5251   5263   5275     1  0.0000000  0.6508444  3
   5250   5254   5266   5272     1  0.0000000  0.6508444  3
   5250   5257   5260   5269     1  0.0000000  0.6508444  3
   5251   5250   5254   5266     1  0.0000000  0.6508444  3
   5251   5250   5257   5260     1  0.0000000  0.6508444  3
   5251   5263   5275   9459     1  0.0000000  0.6508444  3
   5254   5250   5251   5263     1  0.0000000  0.6508444  3
   5254   5250   5257   5260     1  0.0000000  0.6508444  3
   5254   5266   5272   9436     1  0.0000000  0.6508444  3
   5257   5250   5251   5263     1  0.0000000  0.6508444  3
   5257   5250   5254   5266     1  0.0000000  0.6508444  3
   5257   5260   5269   5278     1  0.0000000  0.6508444  3
   5263   5275   9459   9455     1  180.0000771  0.4184000  2
   5263   5275   9459   9455     1  0.0000000  1.6024720  3
   5266   5272   9436   9432     1  180.0000771  0.4184000  2
   5266   5272   9436   9432     1  0.0000000  1.6024720  3
   5272   9436   9432   9431     1  180.0000771  0.4184000  2
   5272   9436   9432   9431     1  0.0000000  1.6024720  3
   5272   9436   9432   9448     1  180.0000771  5.6484000  1
   5272   9436   9432   9448     1  180.0000771  3.5564000  2
   5272   9436   9432   9448     1  0.0000000  0.4184000  3
   5275   9459   9455   9471     1  180.0000771  5.6484000  1
   5275   9459   9455   9471     1  180.0000771  3.5564000  2
   5275   9459   9455   9471     1  0.0000000  0.4184000  3
   5275   9459   9455   9454     1  180.0000771  0.4184000  2
   5275   9459   9455   9454     1  0.0000000  1.6024720  3
   5280   5281   5293   5305     1  0.0000000  0.6508444  3
   5280   5284   5296   5302     1  0.0000000  0.6508444  3
   5280   5287   5290   5299     1  0.0000000  0.6508444  3
   5281   5280   5284   5296     1  0.0000000  0.6508444  3
   5281   5280   5287   5290     1  0.0000000  0.6508444  3
   5281   5293   5305   9505     1  0.0000000  0.6508444  3
   5284   5280   5281   5293     1  0.0000000  0.6508444  3
   5284   5280   5287   5290     1  0.0000000  0.6508444  3
   5284   5296   5302   9482     1  0.0000000  0.6508444  3
   5287   5280   5281   5293     1  0.0000000  0.6508444  3
   5287   5280   5284   5296     1  0.0000000  0.6508444  3
   5287   5290   5299   5308     1  0.0000000  0.6508444  3
   5293   5305   9505   9501     1  180.0000771  0.4184000  2
   5293   5305   9505   9501     1  0.0000000  1.6024720  3
   5296   5302   9482   9478     1  180.0000771  0.4184000  2
   5296   5302   9482   9478     1  0.0000000  1.6024720  3
   5302   9482   9478   9477     1  180.0000771  0.4184000  2
   5302   9482   9478   9477     1  0.0000000  1.6024720  3
   5302   9482   9478   9494     1  180.0000771  5.6484000  1
   5302   9482   9478   9494     1  180.0000771  3.5564000  2
   5302   9482   9478   9494     1  0.0000000  0.4184000  3
   5305   9505   9501   9517     1  180.0000771  5.6484000  1
   5305   9505   9501   9517     1  180.0000771  3.5564000  2
   5305   9505   9501   9517     1  0.0000000  0.4184000  3
   5305   9505   9501   9500     1  180.0000771  0.4184000  2
   5305   9505   9501   9500     1  0.0000000  1.6024720  3
   5310   5311   5323   5335     1  0.0000000  0.6508444  3
   5310   5314   5326   5332     1  0.0000000  0.6508444  3
   5310   5317   5320   5329     1  0.0000000  0.6508444  3
   5311   5310   5314   5326     1  0.0000000  0.6508444  3
   5311   5310   5317   5320     1  0.0000000  0.6508444  3
   5311   5323   5335   9551     1  0.0000000  0.6508444  3
   5314   5310   5311   5323     1  0.0000000  0.6508444  3
   5314   5310   5317   5320     1  0.0000000  0.6508444  3
   5314   5326   5332   9528     1  0.0000000  0.6508444  3
   5317   5310   5311   5323     1  0.0000000  0.6508444  3
   5317   5310   5314   5326     1  0.0000000  0.6508444  3
   5317   5320   5329   5338     1  0.0000000  0.6508444  3
   5323   5335   9551   9547     1  180.0000771  0.4184000  2
   5323   5335   9551   9547     1  0.0000000  1.6024720  3
   5326   5332   9528   9524     1  180.0000771  0.4184000  2
   5326   5332   9528   9524     1  0.0000000  1.6024720  3
   5332   9528   9524   9523     1  180.0000771  0.4184000  2
   5332   9528   9524   9523     1  0.0000000  1.6024720  3
   5332   9528   9524   9540     1  180.0000771  5.6484000  1
   5332   9528   9524   9540     1  180.0000771  3.5564000  2
   5332   9528   9524   9540     1  0.0000000  0.4184000  3
   5335   9551   9547   9563     1  180.0000771  5.6484000  1
   5335   9551   9547   9563     1  180.0000771  3.5564000  2
   5335   9551   9547   9563     1  0.0000000  0.4184000  3
   5335   9551   9547   9546     1  180.0000771  0.4184000  2
   5335   9551   9547   9546     1  0.0000000  1.6024720  3
   5340   5341   5353   5365     1  0.0000000  0.6508444  3
   5340   5344   5356   5362     1  0.0000000  0.6508444  3
   5340   5347   5350   5359     1  0.0000000  0.6508444  3
   5341   5340   5344   5356     1  0.0000000  0.6508444  3
   5341   5340   5347   5350     1  0.0000000  0.6508444  3
   5341   5353   5365   9597     1  0.0000000  0.6508444  3
   5344   5340   5341   5353     1  0.0000000  0.6508444  3
   5344   5340   5347   5350     1  0.0000000  0.6508444  3
   5344   5356   5362   9574     1  0.0000000  0.6508444  3
   5347   5340   5341   5353     1  0.0000000  0.6508444  3
   5347   5340   5344   5356     1  0.0000000  0.6508444  3
   5347   5350   5359   5368     1  0.0000000  0.6508444  3
   5353   5365   9597   9593     1  180.0000771  0.4184000  2
   5353   5365   9597   9593     1  0.0000000  1.6024720  3
   5356   5362   9574   9570     1  180.0000771  0.4184000  2
   5356   5362   9574   9570     1  0.0000000  1.6024720  3
   5362   9574   9570   9569     1  180.0000771  0.4184000  2
   5362   9574   9570   9569     1  0.0000000  1.6024720  3
   5362   9574   9570   9586     1  180.0000771  5.6484000  1
   5362   9574   9570   9586     1  180.0000771  3.5564000  2
   5362   9574   9570   9586     1  0.0000000  0.4184000  3
   5365   9597   9593   9609     1  180.0000771  5.6484000  1
   5365   9597   9593   9609     1  180.0000771  3.5564000  2
   5365   9597   9593   9609     1  0.0000000  0.4184000  3
   5365   9597   9593   9592     1  180.0000771  0.4184000  2
   5365   9597   9593   9592     1  0.0000000  1.6024720  3
   5370   5371   5383   5395     1  0.0000000  0.6508444  3
   5370   5374   5386   5392     1  0.0000000  0.6508444  3
   5370   5377   5380   5389     1  0.0000000  0.6508444  3
   5371   5370   5374   5386     1  0.0000000  0.6508444  3
   5371   5370   5377   5380     1  0.0000000  0.6508444  3
   5371   5383   5395   9643     1  0.0000000  0.6508444  3
   5374   5370   5371   5383     1  0.0000000  0.6508444  3
   5374   5370   5377   5380     1  0.0000000  0.6508444  3
   5374   5386   5392   9620     1  0.0000000  0.6508444  3
   5377   5370   5371   5383     1  0.0000000  0.6508444  3
   5377   5370   5374   5386     1  0.0000000  0.6508444  3
   5377   5380   5389   5398     1  0.0000000  0.6508444  3
   5383   5395   9643   9639     1  180.0000771  0.4184000  2
   5383   5395   9643   9639     1  0.0000000  1.6024720  3
   5386   5392   9620   9616     1  180.0000771  0.4184000  2
   5386   5392   9620   9616     1  0.0000000  1.6024720  3
   5392   9620   9616   9615     1  180.0000771  0.4184000  2
   5392   9620   9616   9615     1  0.0000000  1.6024720  3
   5392   9620   9616   9632     1  180.0000771  5.6484000  1
   5392   9620   9616   9632     1  180.0000771  3.5564000  2
   5392   9620   9616   9632     1  0.0000000  0.4184000  3
   5395   9643   9639   9655     1  180.0000771  5.6484000  1
   5395   9643   9639   9655     1  180.0000771  3.5564000  2
   5395   9643   9639   9655     1  0.0000000  0.4184000  3
   5395   9643   9639   9638     1  180.0000771  0.4184000  2
   5395   9643   9639   9638     1  0.0000000  1.6024720  3
   5400   5401   5413   5425     1  0.0000000  0.6508444  3
   5400   5404   5416   5422     1  0.0000000  0.6508444  3
   5400   5407   5410   5419     1  0.0000000  0.6508444  3
   5401   5400   5404   5416     1  0.0000000  0.6508444  3
   5401   5400   5407   5410     1  0.0000000  0.6508444  3
   5401   5413   5425   9689     1  0.0000000  0.6508444  3
   5404   5400   5401   5413     1  0.0000000  0.6508444  3
   5404   5400   5407   5410     1  0.0000000  0.6508444  3
   5404   5416   5422   9666     1  0.0000000  0.6508444  3
   5407   5400   5401   5413     1  0.0000000  0.6508444  3
   5407   5400   5404   5416     1  0.0000000  0.6508444  3
   5407   5410   5419   5428     1  0.0000000  0.6508444  3
   5413   5425   9689   9685     1  180.0000771  0.4184000  2
   5413   5425   9689   9685     1  0.0000000  1.6024720  3
   5416   5422   9666   9662     1  180.0000771  0.4184000  2
   5416   5422   9666   9662     1  0.0000000  1.6024720  3
   5422   9666   9662   9661     1  180.0000771  0.4184000  2
   5422   9666   9662   9661     1  0.0000000  1.6024720  3
   5422   9666   9662   9678     1  180.0000771  5.6484000  1
   5422   9666   9662   9678     1  180.0000771  3.5564000  2
   5422   9666   9662   9678     1  0.0000000  0.4184000  3
   5425   9689   9685   9701     1  180.0000771  5.6484000  1
   5425   9689   9685   9701     1  180.0000771  3.5564000  2
   5425   9689   9685   9701     1  0.0000000  0.4184000  3
   5425   9689   9685   9684     1  180.0000771  0.4184000  2
   5425   9689   9685   9684     1  0.0000000  1.6024720  3
   5430   5431   5443   5455     1  0.0000000  0.6508444  3
   5430   5434   5446   5452     1  0.0000000  0.6508444  3
   5430   5437   5440   5449     1  0.0000000  0.6508444  3
   5431   5430   5434   5446     1  0.0000000  0.6508444  3
   5431   5430   5437   5440     1  0.0000000  0.6508444  3
   5431   5443   5455   9735     1  0.0000000  0.6508444  3
   5434   5430   5431   5443     1  0.0000000  0.6508444  3
   5434   5430   5437   5440     1  0.0000000  0.6508444  3
   5434   5446   5452   9712     1  0.0000000  0.6508444  3
   5437   5430   5431   5443     1  0.0000000  0.6508444  3
   5437   5430   5434   5446     1  0.0000000  0.6508444  3
   5437   5440   5449   5458     1  0.0000000  0.6508444  3
   5443   5455   9735   9731     1  180.0000771  0.4184000  2
   5443   5455   9735   9731     1  0.0000000  1.6024720  3
   5446   5452   9712   9708     1  180.0000771  0.4184000  2
   5446   5452   9712   9708     1  0.0000000  1.6024720  3
   5452   9712   9708   9707     1  180.0000771  0.4184000  2
   5452   9712   9708   9707     1  0.0000000  1.6024720  3
   5452   9712   9708   9724     1  180.0000771  5.6484000  1
   5452   9712   9708   9724     1  180.0000771  3.5564000  2
   5452   9712   9708   9724     1  0.0000000  0.4184000  3
   5455   9735   9731   9747     1  180.0000771  5.6484000  1
   5455   9735   9731   9747     1  180.0000771  3.5564000  2
   5455   9735   9731   9747     1  0.0000000  0.4184000  3
   5455   9735   9731   9730     1  180.0000771  0.4184000  2
   5455   9735   9731   9730     1  0.0000000  1.6024720  3
   5460   5461   5473   5485     1  0.0000000  0.6508444  3
   5460   5464   5476   5482     1  0.0000000  0.6508444  3
   5460   5467   5470   5479     1  0.0000000  0.6508444  3
   5461   5460   5464   5476     1  0.0000000  0.6508444  3
   5461   5460   5467   5470     1  0.0000000  0.6508444  3
   5461   5473   5485   9781     1  0.0000000  0.6508444  3
   5464   5460   5461   5473     1  0.0000000  0.6508444  3
   5464   5460   5467   5470     1  0.0000000  0.6508444  3
   5464   5476   5482   9758     1  0.0000000  0.6508444  3
   5467   5460   5461   5473     1  0.0000000  0.6508444  3
   5467   5460   5464   5476     1  0.0000000  0.6508444  3
   5467   5470   5479   5488     1  0.0000000  0.6508444  3
   5473   5485   9781   9777     1  180.0000771  0.4184000  2
   5473   5485   9781   9777     1  0.0000000  1.6024720  3
   5476   5482   9758   9754     1  180.0000771  0.4184000  2
   5476   5482   9758   9754     1  0.0000000  1.6024720  3
   5482   9758   9754   9753     1  180.0000771  0.4184000  2
   5482   9758   9754   9753     1  0.0000000  1.6024720  3
   5482   9758   9754   9770     1  180.0000771  5.6484000  1
   5482   9758   9754   9770     1  180.0000771  3.5564000  2
   5482   9758   9754   9770     1  0.0000000  0.4184000  3
   5485   9781   9777   9793     1  180.0000771  5.6484000  1
   5485   9781   9777   9793     1  180.0000771  3.5564000  2
   5485   9781   9777   9793     1  0.0000000  0.4184000  3
   5485   9781   9777   9776     1  180.0000771  0.4184000  2
   5485   9781   9777   9776     1  0.0000000  1.6024720  3
   5490   5491   5503   5515     1  0.0000000  0.6508444  3
   5490   5494   5506   5512     1  0.0000000  0.6508444  3
   5490   5497   5500   5509     1  0.0000000  0.6508444  3
   5491   5490   5494   5506     1  0.0000000  0.6508444  3
   5491   5490   5497   5500     1  0.0000000  0.6508444  3
   5491   5503   5515   9827     1  0.0000000  0.6508444  3
   5494   5490   5491   5503     1  0.0000000  0.6508444  3
   5494   5490   5497   5500     1  0.0000000  0.6508444  3
   5494   5506   5512   9804     1  0.0000000  0.6508444  3
   5497   5490   5491   5503     1  0.0000000  0.6508444  3
   5497   5490   5494   5506     1  0.0000000  0.6508444  3
   5497   5500   5509   5518     1  0.0000000  0.6508444  3
   5503   5515   9827   9823     1  180.0000771  0.4184000  2
   5503   5515   9827   9823     1  0.0000000  1.6024720  3
   5506   5512   9804   9800     1  180.0000771  0.4184000  2
   5506   5512   9804   9800     1  0.0000000  1.6024720  3
   5512   9804   9800   9799     1  180.0000771  0.4184000  2
   5512   9804   9800   9799     1  0.0000000  1.6024720  3
   5512   9804   9800   9816     1  180.0000771  5.6484000  1
   5512   9804   9800   9816     1  180.0000771  3.5564000  2
   5512   9804   9800   9816     1  0.0000000  0.4184000  3
   5515   9827   9823   9839     1  180.0000771  5.6484000  1
   5515   9827   9823   9839     1  180.0000771  3.5564000  2
   5515   9827   9823   9839     1  0.0000000  0.4184000  3
   5515   9827   9823   9822     1  180.0000771  0.4184000  2
   5515   9827   9823   9822     1  0.0000000  1.6024720  3
   5520   5521   5533   5545     1  0.0000000  0.6508444  3
   5520   5524   5536   5542     1  0.0000000  0.6508444  3
   5520   5527   5530   5539     1  0.0000000  0.6508444  3
   5521   5520   5524   5536     1  0.0000000  0.6508444  3
   5521   5520   5527   5530     1  0.0000000  0.6508444  3
   5521   5533   5545   9873     1  0.0000000  0.6508444  3
   5524   5520   5521   5533     1  0.0000000  0.6508444  3
   5524   5520   5527   5530     1  0.0000000  0.6508444  3
   5524   5536   5542   9850     1  0.0000000  0.6508444  3
   5527   5520   5521   5533     1  0.0000000  0.6508444  3
   5527   5520   5524   5536     1  0.0000000  0.6508444  3
   5527   5530   5539   5548     1  0.0000000  0.6508444  3
   5533   5545   9873   9869     1  180.0000771  0.4184000  2
   5533   5545   9873   9869     1  0.0000000  1.6024720  3
   5536   5542   9850   9846     1  180.0000771  0.4184000  2
   5536   5542   9850   9846     1  0.0000000  1.6024720  3
   5542   9850   9846   9845     1  180.0000771  0.4184000  2
   5542   9850   9846   9845     1  0.0000000  1.6024720  3
   5542   9850   9846   9862     1  180.0000771  5.6484000  1
   5542   9850   9846   9862     1  180.0000771  3.5564000  2
   5542   9850   9846   9862     1  0.0000000  0.4184000  3
   5545   9873   9869   9885     1  180.0000771  5.6484000  1
   5545   9873   9869   9885     1  180.0000771  3.5564000  2
   5545   9873   9869   9885     1  0.0000000  0.4184000  3
   5545   9873   9869   9868     1  180.0000771  0.4184000  2
   5545   9873   9869   9868     1  0.0000000  1.6024720  3
   5550   5551   5563   5575     1  0.0000000  0.6508444  3
   5550   5554   5566   5572     1  0.0000000  0.6508444  3
   5550   5557   5560   5569     1  0.0000000  0.6508444  3
   5551   5550   5554   5566     1  0.0000000  0.6508444  3
   5551   5550   5557   5560     1  0.0000000  0.6508444  3
   5551   5563   5575   9919     1  0.0000000  0.6508444  3
   5554   5550   5551   5563     1  0.0000000  0.6508444  3
   5554   5550   5557   5560     1  0.0000000  0.6508444  3
   5554   5566   5572   9896     1  0.0000000  0.6508444  3
   5557   5550   5551   5563     1  0.0000000  0.6508444  3
   5557   5550   5554   5566     1  0.0000000  0.6508444  3
   5557   5560   5569   5578     1  0.0000000  0.6508444  3
   5563   5575   9919   9915     1  180.0000771  0.4184000  2
   5563   5575   9919   9915     1  0.0000000  1.6024720  3
   5566   5572   9896   9892     1  180.0000771  0.4184000  2
   5566   5572   9896   9892     1  0.0000000  1.6024720  3
   5572   9896   9892   9891     1  180.0000771  0.4184000  2
   5572   9896   9892   9891     1  0.0000000  1.6024720  3
   5572   9896   9892   9908     1  180.0000771  5.6484000  1
   5572   9896   9892   9908     1  180.0000771  3.5564000  2
   5572   9896   9892   9908     1  0.0000000  0.4184000  3
   5575   9919   9915   9931     1  180.0000771  5.6484000  1
   5575   9919   9915   9931     1  180.0000771  3.5564000  2
   5575   9919   9915   9931     1  0.0000000  0.4184000  3
   5575   9919   9915   9914     1  180.0000771  0.4184000  2
   5575   9919   9915   9914     1  0.0000000  1.6024720  3
   5580   5581   5593   5605     1  0.0000000  0.6508444  3
   5580   5584   5596   5602     1  0.0000000  0.6508444  3
   5580   5587   5590   5599     1  0.0000000  0.6508444  3
   5581   5580   5584   5596     1  0.0000000  0.6508444  3
   5581   5580   5587   5590     1  0.0000000  0.6508444  3
   5581   5593   5605   9965     1  0.0000000  0.6508444  3
   5584   5580   5581   5593     1  0.0000000  0.6508444  3
   5584   5580   5587   5590     1  0.0000000  0.6508444  3
   5584   5596   5602   9942     1  0.0000000  0.6508444  3
   5587   5580   5581   5593     1  0.0000000  0.6508444  3
   5587   5580   5584   5596     1  0.0000000  0.6508444  3
   5587   5590   5599   5608     1  0.0000000  0.6508444  3
   5593   5605   9965   9961     1  180.0000771  0.4184000  2
   5593   5605   9965   9961     1  0.0000000  1.6024720  3
   5596   5602   9942   9938     1  180.0000771  0.4184000  2
   5596   5602   9942   9938     1  0.0000000  1.6024720  3
   5602   9942   9938   9937     1  180.0000771  0.4184000  2
   5602   9942   9938   9937     1  0.0000000  1.6024720  3
   5602   9942   9938   9954     1  180.0000771  5.6484000  1
   5602   9942   9938   9954     1  180.0000771  3.5564000  2
   5602   9942   9938   9954     1  0.0000000  0.4184000  3
   5605   9965   9961   9977     1  180.0000771  5.6484000  1
   5605   9965   9961   9977     1  180.0000771  3.5564000  2
   5605   9965   9961   9977     1  0.0000000  0.4184000  3
   5605   9965   9961   9960     1  180.0000771  0.4184000  2
   5605   9965   9961   9960     1  0.0000000  1.6024720  3
   5610   5611   5623   5635     1  0.0000000  0.6508444  3
   5610   5614   5626   5632     1  0.0000000  0.6508444  3
   5610   5617   5620   5629     1  0.0000000  0.6508444  3
   5611   5610   5614   5626     1  0.0000000  0.6508444  3
   5611   5610   5617   5620     1  0.0000000  0.6508444  3
   5611   5623   5635  10011     1  0.0000000  0.6508444  3
   5614   5610   5611   5623     1  0.0000000  0.6508444  3
   5614   5610   5617   5620     1  0.0000000  0.6508444  3
   5614   5626   5632   9988     1  0.0000000  0.6508444  3
   5617   5610   5611   5623     1  0.0000000  0.6508444  3
   5617   5610   5614   5626     1  0.0000000  0.6508444  3
   5617   5620   5629   5638     1  0.0000000  0.6508444  3
   5623   5635  10011  10007     1  180.0000771  0.4184000  2
   5623   5635  10011  10007     1  0.0000000  1.6024720  3
   5626   5632   9988   9984     1  180.0000771  0.4184000  2
   5626   5632   9988   9984     1  0.0000000  1.6024720  3
   5632   9988   9984   9983     1  180.0000771  0.4184000  2
   5632   9988   9984   9983     1  0.0000000  1.6024720  3
   5632   9988   9984  10000     1  180.0000771  5.6484000  1
   5632   9988   9984  10000     1  180.0000771  3.5564000  2
   5632   9988   9984  10000     1  0.0000000  0.4184000  3
   5635  10011  10007  10023     1  180.0000771  5.6484000  1
   5635  10011  10007  10023     1  180.0000771  3.5564000  2
   5635  10011  10007  10023     1  0.0000000  0.4184000  3
   5635  10011  10007  10006     1  180.0000771  0.4184000  2
   5635  10011  10007  10006     1  0.0000000  1.6024720  3
   5640   5641   5653   5665     1  0.0000000  0.6508444  3
   5640   5644   5656   5662     1  0.0000000  0.6508444  3
   5640   5647   5650   5659     1  0.0000000  0.6508444  3
   5641   5640   5644   5656     1  0.0000000  0.6508444  3
   5641   5640   5647   5650     1  0.0000000  0.6508444  3
   5641   5653   5665  10057     1  0.0000000  0.6508444  3
   5644   5640   5641   5653     1  0.0000000  0.6508444  3
   5644   5640   5647   5650     1  0.0000000  0.6508444  3
   5644   5656   5662  10034     1  0.0000000  0.6508444  3
   5647   5640   5641   5653     1  0.0000000  0.6508444  3
   5647   5640   5644   5656     1  0.0000000  0.6508444  3
   5647   5650   5659   5668     1  0.0000000  0.6508444  3
   5653   5665  10057  10053     1  180.0000771  0.4184000  2
   5653   5665  10057  10053     1  0.0000000  1.6024720  3
   5656   5662  10034  10030     1  180.0000771  0.4184000  2
   5656   5662  10034  10030     1  0.0000000  1.6024720  3
   5662  10034  10030  10029     1  180.0000771  0.4184000  2
   5662  10034  10030  10029     1  0.0000000  1.6024720  3
   5662  10034  10030  10046     1  180.0000771  5.6484000  1
   5662  10034  10030  10046     1  180.0000771  3.5564000  2
   5662  10034  10030  10046     1  0.0000000  0.4184000  3
   5665  10057  10053  10069     1  180.0000771  5.6484000  1
   5665  10057  10053  10069     1  180.0000771  3.5564000  2
   5665  10057  10053  10069     1  0.0000000  0.4184000  3
   5665  10057  10053  10052     1  180.0000771  0.4184000  2
   5665  10057  10053  10052     1  0.0000000  1.6024720  3
   5670   5671   5683   5695     1  0.0000000  0.6508444  3
   5670   5674   5686   5692     1  0.0000000  0.6508444  3
   5670   5677   5680   5689     1  0.0000000  0.6508444  3
   5671   5670   5674   5686     1  0.0000000  0.6508444  3
   5671   5670   5677   5680     1  0.0000000  0.6508444  3
   5671   5683   5695  10103     1  0.0000000  0.6508444  3
   5674   5670   5671   5683     1  0.0000000  0.6508444  3
   5674   5670   5677   5680     1  0.0000000  0.6508444  3
   5674   5686   5692  10080     1  0.0000000  0.6508444  3
   5677   5670   5671   5683     1  0.0000000  0.6508444  3
   5677   5670   5674   5686     1  0.0000000  0.6508444  3
   5677   5680   5689   5698     1  0.0000000  0.6508444  3
   5683   5695  10103  10099     1  180.0000771  0.4184000  2
   5683   5695  10103  10099     1  0.0000000  1.6024720  3
   5686   5692  10080  10076     1  180.0000771  0.4184000  2
   5686   5692  10080  10076     1  0.0000000  1.6024720  3
   5692  10080  10076  10075     1  180.0000771  0.4184000  2
   5692  10080  10076  10075     1  0.0000000  1.6024720  3
   5692  10080  10076  10092     1  180.0000771  5.6484000  1
   5692  10080  10076  10092     1  180.0000771  3.5564000  2
   5692  10080  10076  10092     1  0.0000000  0.4184000  3
   5695  10103  10099  10115     1  180.0000771  5.6484000  1
   5695  10103  10099  10115     1  180.0000771  3.5564000  2
   5695  10103  10099  10115     1  0.0000000  0.4184000  3
   5695  10103  10099  10098     1  180.0000771  0.4184000  2
   5695  10103  10099  10098     1  0.0000000  1.6024720  3
   5700   5701   5704   5705     1  180.0000771  0.8368000  1
   5700   5701   5704   5705     1  180.0000771  1.0460000  2
   5700   5701   5704   5705     1  0.0000000  0.7531200  3
   5700   5701   5704   5712     1  0.0000000  0.6508444  3
   5700   5722   5706   5705     1  180.0000771  0.4184000  2
   5700   5722   5706   5705     1  0.0000000  1.6024720  3
   5700   5722   5706   5710     1  180.0000771  5.6484000  1
   5700   5722   5706   5710     1  180.0000771  3.5564000  2
   5700   5722   5706   5710     1  0.0000000  0.4184000  3
   5701   5700   5714   5720     1  0.0000000  0.6508444  3
   5701   5700   5722   5706     1  180.0000771  0.4184000  2
   5701   5700   5722   5706     1  0.0000000  1.6024720  3
   5701   5704   5705   5706     1  180.0000771  0.8368000  1
   5701   5704   5705   5706     1  180.0000771  1.0460000  2
   5701   5704   5705   5706     1  0.0000000  0.7531200  3
   5701   5704   5705   5711     1  0.0000000  0.6508444  3
   5704   5701   5700   5714     1  180.0000771  0.8368000  1
   5704   5701   5700   5714     1  180.0000771  1.0460000  2
   5704   5701   5700   5714     1  0.0000000  0.7531200  3
   5704   5701   5700   5722     1  0.0000000  0.6508444  3
   5704   5705   5706   5710     1  0.0000000  0.6508444  3
   5704   5705   5706   5722     1  0.0000000  0.6508444  3
   5705   5704   5701   5713     1  0.0000000  0.6508444  3
   5706   5705   5704   5712     1  0.0000000  0.6508444  3
   5706   5722   5700   5714     1  180.0000771  0.4184000  2
   5706   5722   5700   5714     1  0.0000000  1.6024720  3
   5710   5706   5705   5711     1  0.0000000  4.9162000  2
   5710   5706   5705   5711     1  0.0000000  0.6024960  3
   5711   5705   5704   5712     1  0.0000000  4.9162000  2
   5711   5705   5704   5712     1  0.0000000  0.6024960  3
   5711   5705   5706   5722     1  0.0000000  4.9162000  2
   5711   5705   5706   5722     1  0.0000000  0.6024960  3
   5712   5704   5701   5713     1  0.0000000  4.9162000  2
   5712   5704   5701   5713     1  0.0000000  0.6024960  3
   5713   5701   5700   5714     1  0.0000000  0.6508444  3
   5713   5701   5700   5722     1  0.0000000  4.9162000  2
   5713   5701   5700   5722     1  0.0000000  0.6024960  3
   5720   5714   5700   5722     1  0.0000000  4.9162000  2
   5720   5714   5700   5722     1  0.0000000  0.6024960  3
   5723   5724   5727   5728     1  180.0000771  0.8368000  1
   5723   5724   5727   5728     1  180.0000771  1.0460000  2
   5723   5724   5727   5728     1  0.0000000  0.7531200  3
   5723   5724   5727   5735     1  0.0000000  0.6508444  3
   5723   5745   5729   5733     1  180.0000771  5.6484000  1
   5723   5745   5729   5733     1  180.0000771  3.5564000  2
   5723   5745   5729   5733     1  0.0000000  0.4184000  3
   5723   5745   5729   5728     1  180.0000771  0.4184000  2
   5723   5745   5729   5728     1  0.0000000  1.6024720  3
   5724   5727   5728   5729     1  180.0000771  0.8368000  1
   5724   5727   5728   5729     1  180.0000771  1.0460000  2
   5724   5727   5728   5729     1  0.0000000  0.7531200  3
   5724   5727   5728   5734     1  0.0000000  0.6508444  3
   5724   5723   5737   5743     1  0.0000000  0.6508444  3
   5724   5723   5745   5729     1  180.0000771  0.4184000  2
   5724   5723   5745   5729     1  0.0000000  1.6024720  3
   5727   5728   5729   5733     1  0.0000000  0.6508444  3
   5727   5728   5729   5745     1  0.0000000  0.6508444  3
   5727   5724   5723   5737     1  180.0000771  0.8368000  1
   5727   5724   5723   5737     1  180.0000771  1.0460000  2
   5727   5724   5723   5737     1  0.0000000  0.7531200  3
   5727   5724   5723   5745     1  0.0000000  0.6508444  3
   5728   5727   5724   5736     1  0.0000000  0.6508444  3
   5729   5745   5723   5737     1  180.0000771  0.4184000  2
   5729   5745   5723   5737     1  0.0000000  1.6024720  3
   5729   5728   5727   5735     1  0.0000000  0.6508444  3
   5733   5729   5728   5734     1  0.0000000  4.9162000  2
   5733   5729   5728   5734     1  0.0000000  0.6024960  3
   5734   5728   5729   5745     1  0.0000000  4.9162000  2
   5734   5728   5729   5745     1  0.0000000  0.6024960  3
   5734   5728   5727   5735     1  0.0000000  4.9162000  2
   5734   5728   5727   5735     1  0.0000000  0.6024960  3
   5735   5727   5724   5736     1  0.0000000  4.9162000  2
   5735   5727   5724   5736     1  0.0000000  0.6024960  3
   5736   5724   5723   5737     1  0.0000000  0.6508444  3
   5736   5724   5723   5745     1  0.0000000  4.9162000  2
   5736   5724   5723   5745     1  0.0000000  0.6024960  3
   5743   5737   5723   5745     1  0.0000000  4.9162000  2
   5743   5737   5723   5745     1  0.0000000  0.6024960  3
   5746   5747   5750   5751     1  180.0000771  0.8368000  1
   5746   5747   5750   5751     1  180.0000771  1.0460000  2
   5746   5747   5750   5751     1  0.0000000  0.7531200  3
   5746   5747   5750   5758     1  0.0000000  0.6508444  3
   5746   5768   5752   5751     1  180.0000771  0.4184000  2
   5746   5768   5752   5751     1  0.0000000  1.6024720  3
   5746   5768   5752   5756     1  180.0000771  5.6484000  1
   5746   5768   5752   5756     1  180.0000771  3.5564000  2
   5746   5768   5752   5756     1  0.0000000  0.4184000  3
   5747   5746   5760   5766     1  0.0000000  0.6508444  3
   5747   5746   5768   5752     1  180.0000771  0.4184000  2
   5747   5746   5768   5752     1  0.0000000  1.6024720  3
   5747   5750   5751   5752     1  180.0000771  0.8368000  1
   5747   5750   5751   5752     1  180.0000771  1.0460000  2
   5747   5750   5751   5752     1  0.0000000  0.7531200  3
   5747   5750   5751   5757     1  0.0000000  0.6508444  3
   5750   5747   5746   5760     1  180.0000771  0.8368000  1
   5750   5747   5746   5760     1  180.0000771  1.0460000  2
   5750   5747   5746   5760     1  0.0000000  0.7531200  3
   5750   5747   5746   5768     1  0.0000000  0.6508444  3
   5750   5751   5752   5756     1  0.0000000  0.6508444  3
   5750   5751   5752   5768     1  0.0000000  0.6508444  3
   5751   5750   5747   5759     1  0.0000000  0.6508444  3
   5752   5751   5750   5758     1  0.0000000  0.6508444  3
   5752   5768   5746   5760     1  180.0000771  0.4184000  2
   5752   5768   5746   5760     1  0.0000000  1.6024720  3
   5756   5752   5751   5757     1  0.0000000  4.9162000  2
   5756   5752   5751   5757     1  0.0000000  0.6024960  3
   5757   5751   5750   5758     1  0.0000000  4.9162000  2
   5757   5751   5750   5758     1  0.0000000  0.6024960  3
   5757   5751   5752   5768     1  0.0000000  4.9162000  2
   5757   5751   5752   5768     1  0.0000000  0.6024960  3
   5758   5750   5747   5759     1  0.0000000  4.9162000  2
   5758   5750   5747   5759     1  0.0000000  0.6024960  3
   5759   5747   5746   5760     1  0.0000000  0.6508444  3
   5759   5747   5746   5768     1  0.0000000  4.9162000  2
   5759   5747   5746   5768     1  0.0000000  0.6024960  3
   5766   5760   5746   5768     1  0.0000000  4.9162000  2
   5766   5760   5746   5768     1  0.0000000  0.6024960  3
   5769   5770   5773   5774     1  180.0000771  0.8368000  1
   5769   5770   5773   5774     1  180.0000771  1.0460000  2
   5769   5770   5773   5774     1  0.0000000  0.7531200  3
   5769   5770   5773   5781     1  0.0000000  0.6508444  3
   5769   5791   5775   5779     1  180.0000771  5.6484000  1
   5769   5791   5775   5779     1  180.0000771  3.5564000  2
   5769   5791   5775   5779     1  0.0000000  0.4184000  3
   5769   5791   5775   5774     1  180.0000771  0.4184000  2
   5769   5791   5775   5774     1  0.0000000  1.6024720  3
   5770   5773   5774   5775     1  180.0000771  0.8368000  1
   5770   5773   5774   5775     1  180.0000771  1.0460000  2
   5770   5773   5774   5775     1  0.0000000  0.7531200  3
   5770   5773   5774   5780     1  0.0000000  0.6508444  3
   5770   5769   5783   5789     1  0.0000000  0.6508444  3
   5770   5769   5791   5775     1  180.0000771  0.4184000  2
   5770   5769   5791   5775     1  0.0000000  1.6024720  3
   5773   5774   5775   5779     1  0.0000000  0.6508444  3
   5773   5774   5775   5791     1  0.0000000  0.6508444  3
   5773   5770   5769   5783     1  180.0000771  0.8368000  1
   5773   5770   5769   5783     1  180.0000771  1.0460000  2
   5773   5770   5769   5783     1  0.0000000  0.7531200  3
   5773   5770   5769   5791     1  0.0000000  0.6508444  3
   5774   5773   5770   5782     1  0.0000000  0.6508444  3
   5775   5791   5769   5783     1  180.0000771  0.4184000  2
   5775   5791   5769   5783     1  0.0000000  1.6024720  3
   5775   5774   5773   5781     1  0.0000000  0.6508444  3
   5779   5775   5774   5780     1  0.0000000  4.9162000  2
   5779   5775   5774   5780     1  0.0000000  0.6024960  3
   5780   5774   5775   5791     1  0.0000000  4.9162000  2
   5780   5774   5775   5791     1  0.0000000  0.6024960  3
   5780   5774   5773   5781     1  0.0000000  4.9162000  2
   5780   5774   5773   5781     1  0.0000000  0.6024960  3
   5781   5773   5770   5782     1  0.0000000  4.9162000  2
   5781   5773   5770   5782     1  0.0000000  0.6024960  3
   5782   5770   5769   5783     1  0.0000000  0.6508444  3
   5782   5770   5769   5791     1  0.0000000  4.9162000  2
   5782   5770   5769   5791     1  0.0000000  0.6024960  3
   5789   5783   5769   5791     1  0.0000000  4.9162000  2
   5789   5783   5769   5791     1  0.0000000  0.6024960  3
   5792   5793   5796   5797     1  180.0000771  0.8368000  1
   5792   5793   5796   5797     1  180.0000771  1.0460000  2
   5792   5793   5796   5797     1  0.0000000  0.7531200  3
   5792   5793   5796   5804     1  0.0000000  0.6508444  3
   5792   5814   5798   5797     1  180.0000771  0.4184000  2
   5792   5814   5798   5797     1  0.0000000  1.6024720  3
   5792   5814   5798   5802     1  180.0000771  5.6484000  1
   5792   5814   5798   5802     1  180.0000771  3.5564000  2
   5792   5814   5798   5802     1  0.0000000  0.4184000  3
   5793   5792   5806   5812     1  0.0000000  0.6508444  3
   5793   5792   5814   5798     1  180.0000771  0.4184000  2
   5793   5792   5814   5798     1  0.0000000  1.6024720  3
   5793   5796   5797   5798     1  180.0000771  0.8368000  1
   5793   5796   5797   5798     1  180.0000771  1.0460000  2
   5793   5796   5797   5798     1  0.0000000  0.7531200  3
   5793   5796   5797   5803     1  0.0000000  0.6508444  3
   5796   5793   5792   5806     1  180.0000771  0.8368000  1
   5796   5793   5792   5806     1  180.0000771  1.0460000  2
   5796   5793   5792   5806     1  0.0000000  0.7531200  3
   5796   5793   5792   5814     1  0.0000000  0.6508444  3
   5796   5797   5798   5802     1  0.0000000  0.6508444  3
   5796   5797   5798   5814     1  0.0000000  0.6508444  3
   5797   5796   5793   5805     1  0.0000000  0.6508444  3
   5798   5797   5796   5804     1  0.0000000  0.6508444  3
   5798   5814   5792   5806     1  180.0000771  0.4184000  2
   5798   5814   5792   5806     1  0.0000000  1.6024720  3
   5802   5798   5797   5803     1  0.0000000  4.9162000  2
   5802   5798   5797   5803     1  0.0000000  0.6024960  3
   5803   5797   5796   5804     1  0.0000000  4.9162000  2
   5803   5797   5796   5804     1  0.0000000  0.6024960  3
   5803   5797   5798   5814     1  0.0000000  4.9162000  2
   5803   5797   5798   5814     1  0.0000000  0.6024960  3
   5804   5796   5793   5805     1  0.0000000  4.9162000  2
   5804   5796   5793   5805     1  0.0000000  0.6024960  3
   5805   5793   5792   5806     1  0.0000000  0.6508444  3
   5805   5793   5792   5814     1  0.0000000  4.9162000  2
   5805   5793   5792   5814     1  0.0000000  0.6024960  3
   5812   5806   5792   5814     1  0.0000000  4.9162000  2
   5812   5806   5792   5814     1  0.0000000  0.6024960  3
   5815   5816   5819   5820     1  180.0000771  0.8368000  1
   5815   5816   5819   5820     1  180.0000771  1.0460000  2
   5815   5816   5819   5820     1  0.0000000  0.7531200  3
   5815   5816   5819   5827     1  0.0000000  0.6508444  3
   5815   5837   5821   5825     1  180.0000771  5.6484000  1
   5815   5837   5821   5825     1  180.0000771  3.5564000  2
   5815   5837   5821   5825     1  0.0000000  0.4184000  3
   5815   5837   5821   5820     1  180.0000771  0.4184000  2
   5815   5837   5821   5820     1  0.0000000  1.6024720  3
   5816   5819   5820   5821     1  180.0000771  0.8368000  1
   5816   5819   5820   5821     1  180.0000771  1.0460000  2
   5816   5819   5820   5821     1  0.0000000  0.7531200  3
   5816   5819   5820   5826     1  0.0000000  0.6508444  3
   5816   5815   5829   5835     1  0.0000000  0.6508444  3
   5816   5815   5837   5821     1  180.0000771  0.4184000  2
   5816   5815   5837   5821     1  0.0000000  1.6024720  3
   5819   5820   5821   5825     1  0.0000000  0.6508444  3
   5819   5820   5821   5837     1  0.0000000  0.6508444  3
   5819   5816   5815   5829     1  180.0000771  0.8368000  1
   5819   5816   5815   5829     1  180.0000771  1.0460000  2
   5819   5816   5815   5829     1  0.0000000  0.7531200  3
   5819   5816   5815   5837     1  0.0000000  0.6508444  3
   5820   5819   5816   5828     1  0.0000000  0.6508444  3
   5821   5837   5815   5829     1  180.0000771  0.4184000  2
   5821   5837   5815   5829     1  0.0000000  1.6024720  3
   5821   5820   5819   5827     1  0.0000000  0.6508444  3
   5825   5821   5820   5826     1  0.0000000  4.9162000  2
   5825   5821   5820   5826     1  0.0000000  0.6024960  3
   5826   5820   5821   5837     1  0.0000000  4.9162000  2
   5826   5820   5821   5837     1  0.0000000  0.6024960  3
   5826   5820   5819   5827     1  0.0000000  4.9162000  2
   5826   5820   5819   5827     1  0.0000000  0.6024960  3
   5827   5819   5816   5828     1  0.0000000  4.9162000  2
   5827   5819   5816   5828     1  0.0000000  0.6024960  3
   5828   5816   5815   5829     1  0.0000000  0.6508444  3
   5828   5816   5815   5837     1  0.0000000  4.9162000  2
   5828   5816   5815   5837     1  0.0000000  0.6024960  3
   5835   5829   5815   5837     1  0.0000000  4.9162000  2
   5835   5829   5815   5837     1  0.0000000  0.6024960  3
   5838   5839   5842   5843     1  180.0000771  0.8368000  1
   5838   5839   5842   5843     1  180.0000771  1.0460000  2
   5838   5839   5842   5843     1  0.0000000  0.7531200  3
   5838   5839   5842   5850     1  0.0000000  0.6508444  3
   5838   5860   5844   5843     1  180.0000771  0.4184000  2
   5838   5860   5844   5843     1  0.0000000  1.6024720  3
   5838   5860   5844   5848     1  180.0000771  5.6484000  1
   5838   5860   5844   5848     1  180.0000771  3.5564000  2
   5838   5860   5844   5848     1  0.0000000  0.4184000  3
   5839   5838   5852   5858     1  0.0000000  0.6508444  3
   5839   5838   5860   5844     1  180.0000771  0.4184000  2
   5839   5838   5860   5844     1  0.0000000  1.6024720  3
   5839   5842   5843   5844     1  180.0000771  0.8368000  1
   5839   5842   5843   5844     1  180.0000771  1.0460000  2
   5839   5842   5843   5844     1  0.0000000  0.7531200  3
   5839   5842   5843   5849     1  0.0000000  0.6508444  3
   5842   5839   5838   5852     1  180.0000771  0.8368000  1
   5842   5839   5838   5852     1  180.0000771  1.0460000  2
   5842   5839   5838   5852     1  0.0000000  0.7531200  3
   5842   5839   5838   5860     1  0.0000000  0.6508444  3
   5842   5843   5844   5848     1  0.0000000  0.6508444  3
   5842   5843   5844   5860     1  0.0000000  0.6508444  3
   5843   5842   5839   5851     1  0.0000000  0.6508444  3
   5844   5843   5842   5850     1  0.0000000  0.6508444  3
   5844   5860   5838   5852     1  180.0000771  0.4184000  2
   5844   5860   5838   5852     1  0.0000000  1.6024720  3
   5848   5844   5843   5849     1  0.0000000  4.9162000  2
   5848   5844   5843   5849     1  0.0000000  0.6024960  3
   5849   5843   5842   5850     1  0.0000000  4.9162000  2
   5849   5843   5842   5850     1  0.0000000  0.6024960  3
   5849   5843   5844   5860     1  0.0000000  4.9162000  2
   5849   5843   5844   5860     1  0.0000000  0.6024960  3
   5850   5842   5839   5851     1  0.0000000  4.9162000  2
   5850   5842   5839   5851     1  0.0000000  0.6024960  3
   5851   5839   5838   5852     1  0.0000000  0.6508444  3
   5851   5839   5838   5860     1  0.0000000  4.9162000  2
   5851   5839   5838   5860     1  0.0000000  0.6024960  3
   5858   5852   5838   5860     1  0.0000000  4.9162000  2
   5858   5852   5838   5860     1  0.0000000  0.6024960  3
   5861   5862   5865   5866     1  180.0000771  0.8368000  1
   5861   5862   5865   5866     1  180.0000771  1.0460000  2
   5861   5862   5865   5866     1  0.0000000  0.7531200  3
   5861   5862   5865   5873     1  0.0000000  0.6508444  3
   5861   5883   5867   5871     1  180.0000771  5.6484000  1
   5861   5883   5867   5871     1  180.0000771  3.5564000  2
   5861   5883   5867   5871     1  0.0000000  0.4184000  3
   5861   5883   5867   5866     1  180.0000771  0.4184000  2
   5861   5883   5867   5866     1  0.0000000  1.6024720  3
   5862   5865   5866   5867     1  180.0000771  0.8368000  1
   5862   5865   5866   5867     1  180.0000771  1.0460000  2
   5862   5865   5866   5867     1  0.0000000  0.7531200  3
   5862   5865   5866   5872     1  0.0000000  0.6508444  3
   5862   5861   5875   5881     1  0.0000000  0.6508444  3
   5862   5861   5883   5867     1  180.0000771  0.4184000  2
   5862   5861   5883   5867     1  0.0000000  1.6024720  3
   5865   5866   5867   5871     1  0.0000000  0.6508444  3
   5865   5866   5867   5883     1  0.0000000  0.6508444  3
   5865   5862   5861   5875     1  180.0000771  0.8368000  1
   5865   5862   5861   5875     1  180.0000771  1.0460000  2
   5865   5862   5861   5875     1  0.0000000  0.7531200  3
   5865   5862   5861   5883     1  0.0000000  0.6508444  3
   5866   5865   5862   5874     1  0.0000000  0.6508444  3
   5867   5883   5861   5875     1  180.0000771  0.4184000  2
   5867   5883   5861   5875     1  0.0000000  1.6024720  3
   5867   5866   5865   5873     1  0.0000000  0.6508444  3
   5871   5867   5866   5872     1  0.0000000  4.9162000  2
   5871   5867   5866   5872     1  0.0000000  0.6024960  3
   5872   5866   5867   5883     1  0.0000000  4.9162000  2
   5872   5866   5867   5883     1  0.0000000  0.6024960  3
   5872   5866   5865   5873     1  0.0000000  4.9162000  2
   5872   5866   5865   5873     1  0.0000000  0.6024960  3
   5873   5865   5862   5874     1  0.0000000  4.9162000  2
   5873   5865   5862   5874     1  0.0000000  0.6024960  3
   5874   5862   5861   5875     1  0.0000000  0.6508444  3
   5874   5862   5861   5883     1  0.0000000  4.9162000  2
   5874   5862   5861   5883     1  0.0000000  0.6024960  3
   5881   5875   5861   5883     1  0.0000000  4.9162000  2
   5881   5875   5861   5883     1  0.0000000  0.6024960  3
   5884   5885   5888   5889     1  180.0000771  0.8368000  1
   5884   5885   5888   5889     1  180.0000771  1.0460000  2
   5884   5885   5888   5889     1  0.0000000  0.7531200  3
   5884   5885   5888   5896     1  0.0000000  0.6508444  3
   5884   5906   5890   5889     1  180.0000771  0.4184000  2
   5884   5906   5890   5889     1  0.0000000  1.6024720  3
   5884   5906   5890   5894     1  180.0000771  5.6484000  1
   5884   5906   5890   5894     1  180.0000771  3.5564000  2
   5884   5906   5890   5894     1  0.0000000  0.4184000  3
   5885   5884   5898   5904     1  0.0000000  0.6508444  3
   5885   5884   5906   5890     1  180.0000771  0.4184000  2
   5885   5884   5906   5890     1  0.0000000  1.6024720  3
   5885   5888   5889   5890     1  180.0000771  0.8368000  1
   5885   5888   5889   5890     1  180.0000771  1.0460000  2
   5885   5888   5889   5890     1  0.0000000  0.7531200  3
   5885   5888   5889   5895     1  0.0000000  0.6508444  3
   5888   5885   5884   5898     1  180.0000771  0.8368000  1
   5888   5885   5884   5898     1  180.0000771  1.0460000  2
   5888   5885   5884   5898     1  0.0000000  0.7531200  3
   5888   5885   5884   5906     1  0.0000000  0.6508444  3
   5888   5889   5890   5894     1  0.0000000  0.6508444  3
   5888   5889   5890   5906     1  0.0000000  0.6508444  3
   5889   5888   5885   5897     1  0.0000000  0.6508444  3
   5890   5889   5888   5896     1  0.0000000  0.6508444  3
   5890   5906   5884   5898     1  180.0000771  0.4184000  2
   5890   5906   5884   5898     1  0.0000000  1.6024720  3
   5894   5890   5889   5895     1  0.0000000  4.9162000  2
   5894   5890   5889   5895     1  0.0000000  0.6024960  3
   5895   5889   5888   5896     1  0.0000000  4.9162000  2
   5895   5889   5888   5896     1  0.0000000  0.6024960  3
   5895   5889   5890   5906     1  0.0000000  4.9162000  2
   5895   5889   5890   5906     1  0.0000000  0.6024960  3
   5896   5888   5885   5897     1  0.0000000  4.9162000  2
   5896   5888   5885   5897     1  0.0000000  0.6024960  3
   5897   5885   5884   5898     1  0.0000000  0.6508444  3
   5897   5885   5884   5906     1  0.0000000  4.9162000  2
   5897   5885   5884   5906     1  0.0000000  0.6024960  3
   5904   5898   5884   5906     1  0.0000000  4.9162000  2
   5904   5898   5884   5906     1  0.0000000  0.6024960  3
   5907   5908   5911   5912     1  180.0000771  0.8368000  1
   5907   5908   5911   5912     1  180.0000771  1.0460000  2
   5907   5908   5911   5912     1  0.0000000  0.7531200  3
   5907   5908   5911   5919     1  0.0000000  0.6508444  3
   5907   5929   5913   5917     1  180.0000771  5.6484000  1
   5907   5929   5913   5917     1  180.0000771  3.5564000  2
   5907   5929   5913   5917     1  0.0000000  0.4184000  3
   5907   5929   5913   5912     1  180.0000771  0.4184000  2
   5907   5929   5913   5912     1  0.0000000  1.6024720  3
   5908   5911   5912   5913     1  180.0000771  0.8368000  1
   5908   5911   5912   5913     1  180.0000771  1.0460000  2
   5908   5911   5912   5913     1  0.0000000  0.7531200  3
   5908   5911   5912   5918     1  0.0000000  0.6508444  3
   5908   5907   5921   5927     1  0.0000000  0.6508444  3
   5908   5907   5929   5913     1  180.0000771  0.4184000  2
   5908   5907   5929   5913     1  0.0000000  1.6024720  3
   5911   5912   5913   5917     1  0.0000000  0.6508444  3
   5911   5912   5913   5929     1  0.0000000  0.6508444  3
   5911   5908   5907   5921     1  180.0000771  0.8368000  1
   5911   5908   5907   5921     1  180.0000771  1.0460000  2
   5911   5908   5907   5921     1  0.0000000  0.7531200  3
   5911   5908   5907   5929     1  0.0000000  0.6508444  3
   5912   5911   5908   5920     1  0.0000000  0.6508444  3
   5913   5929   5907   5921     1  180.0000771  0.4184000  2
   5913   5929   5907   5921     1  0.0000000  1.6024720  3
   5913   5912   5911   5919     1  0.0000000  0.6508444  3
   5917   5913   5912   5918     1  0.0000000  4.9162000  2
   5917   5913   5912   5918     1  0.0000000  0.6024960  3
   5918   5912   5913   5929     1  0.0000000  4.9162000  2
   5918   5912   5913   5929     1  0.0000000  0.6024960  3
   5918   5912   5911   5919     1  0.0000000  4.9162000  2
   5918   5912   5911   5919     1  0.0000000  0.6024960  3
   5919   5911   5908   5920     1  0.0000000  4.9162000  2
   5919   5911   5908   5920     1  0.0000000  0.6024960  3
   5920   5908   5907   5921     1  0.0000000  0.6508444  3
   5920   5908   5907   5929     1  0.0000000  4.9162000  2
   5920   5908   5907   5929     1  0.0000000  0.6024960  3
   5927   5921   5907   5929     1  0.0000000  4.9162000  2
   5927   5921   5907   5929     1  0.0000000  0.6024960  3
   5930   5931   5934   5935     1  180.0000771  0.8368000  1
   5930   5931   5934   5935     1  180.0000771  1.0460000  2
   5930   5931   5934   5935     1  0.0000000  0.7531200  3
   5930   5931   5934   5942     1  0.0000000  0.6508444  3
   5930   5952   5936   5935     1  180.0000771  0.4184000  2
   5930   5952   5936   5935     1  0.0000000  1.6024720  3
   5930   5952   5936   5940     1  180.0000771  5.6484000  1
   5930   5952   5936   5940     1  180.0000771  3.5564000  2
   5930   5952   5936   5940     1  0.0000000  0.4184000  3
   5931   5930   5944   5950     1  0.0000000  0.6508444  3
   5931   5930   5952   5936     1  180.0000771  0.4184000  2
   5931   5930   5952   5936     1  0.0000000  1.6024720  3
   5931   5934   5935   5936     1  180.0000771  0.8368000  1
   5931   5934   5935   5936     1  180.0000771  1.0460000  2
   5931   5934   5935   5936     1  0.0000000  0.7531200  3
   5931   5934   5935   5941     1  0.0000000  0.6508444  3
   5934   5931   5930   5944     1  180.0000771  0.8368000  1
   5934   5931   5930   5944     1  180.0000771  1.0460000  2
   5934   5931   5930   5944     1  0.0000000  0.7531200  3
   5934   5931   5930   5952     1  0.0000000  0.6508444  3
   5934   5935   5936   5940     1  0.0000000  0.6508444  3
   5934   5935   5936   5952     1  0.0000000  0.6508444  3
   5935   5934   5931   5943     1  0.0000000  0.6508444  3
   5936   5935   5934   5942     1  0.0000000  0.6508444  3
   5936   5952   5930   5944     1  180.0000771  0.4184000  2
   5936   5952   5930   5944     1  0.0000000  1.6024720  3
   5940   5936   5935   5941     1  0.0000000  4.9162000  2
   5940   5936   5935   5941     1  0.0000000  0.6024960  3
   5941   5935   5934   5942     1  0.0000000  4.9162000  2
   5941   5935   5934   5942     1  0.0000000  0.6024960  3
   5941   5935   5936   5952     1  0.0000000  4.9162000  2
   5941   5935   5936   5952     1  0.0000000  0.6024960  3
   5942   5934   5931   5943     1  0.0000000  4.9162000  2
   5942   5934   5931   5943     1  0.0000000  0.6024960  3
   5943   5931   5930   5944     1  0.0000000  0.6508444  3
   5943   5931   5930   5952     1  0.0000000  4.9162000  2
   5943   5931   5930   5952     1  0.0000000  0.6024960  3
   5950   5944   5930   5952     1  0.0000000  4.9162000  2
   5950   5944   5930   5952     1  0.0000000  0.6024960  3
   5953   5954   5957   5958     1  180.0000771  0.8368000  1
   5953   5954   5957   5958     1  180.0000771  1.0460000  2
   5953   5954   5957   5958     1  0.0000000  0.7531200  3
   5953   5954   5957   5965     1  0.0000000  0.6508444  3
   5953   5975   5959   5963     1  180.0000771  5.6484000  1
   5953   5975   5959   5963     1  180.0000771  3.5564000  2
   5953   5975   5959   5963     1  0.0000000  0.4184000  3
   5953   5975   5959   5958     1  180.0000771  0.4184000  2
   5953   5975   5959   5958     1  0.0000000  1.6024720  3
   5954   5957   5958   5959     1  180.0000771  0.8368000  1
   5954   5957   5958   5959     1  180.0000771  1.0460000  2
   5954   5957   5958   5959     1  0.0000000  0.7531200  3
   5954   5957   5958   5964     1  0.0000000  0.6508444  3
   5954   5953   5967   5973     1  0.0000000  0.6508444  3
   5954   5953   5975   5959     1  180.0000771  0.4184000  2
   5954   5953   5975   5959     1  0.0000000  1.6024720  3
   5957   5958   5959   5963     1  0.0000000  0.6508444  3
   5957   5958   5959   5975     1  0.0000000  0.6508444  3
   5957   5954   5953   5967     1  180.0000771  0.8368000  1
   5957   5954   5953   5967     1  180.0000771  1.0460000  2
   5957   5954   5953   5967     1  0.0000000  0.7531200  3
   5957   5954   5953   5975     1  0.0000000  0.6508444  3
   5958   5957   5954   5966     1  0.0000000  0.6508444  3
   5959   5975   5953   5967     1  180.0000771  0.4184000  2
   5959   5975   5953   5967     1  0.0000000  1.6024720  3
   5959   5958   5957   5965     1  0.0000000  0.6508444  3
   5963   5959   5958   5964     1  0.0000000  4.9162000  2
   5963   5959   5958   5964     1  0.0000000  0.6024960  3
   5964   5958   5959   5975     1  0.0000000  4.9162000  2
   5964   5958   5959   5975     1  0.0000000  0.6024960  3
   5964   5958   5957   5965     1  0.0000000  4.9162000  2
   5964   5958   5957   5965     1  0.0000000  0.6024960  3
   5965   5957   5954   5966     1  0.0000000  4.9162000  2
   5965   5957   5954   5966     1  0.0000000  0.6024960  3
   5966   5954   5953   5967     1  0.0000000  0.6508444  3
   5966   5954   5953   5975     1  0.0000000  4.9162000  2
   5966   5954   5953   5975     1  0.0000000  0.6024960  3
   5973   5967   5953   5975     1  0.0000000  4.9162000  2
   5973   5967   5953   5975     1  0.0000000  0.6024960  3
   5976   5977   5980   5981     1  180.0000771  0.8368000  1
   5976   5977   5980   5981     1  180.0000771  1.0460000  2
   5976   5977   5980   5981     1  0.0000000  0.7531200  3
   5976   5977   5980   5988     1  0.0000000  0.6508444  3
   5976   5998   5982   5981     1  180.0000771  0.4184000  2
   5976   5998   5982   5981     1  0.0000000  1.6024720  3
   5976   5998   5982   5986     1  180.0000771  5.6484000  1
   5976   5998   5982   5986     1  180.0000771  3.5564000  2
   5976   5998   5982   5986     1  0.0000000  0.4184000  3
   5977   5976   5990   5996     1  0.0000000  0.6508444  3
   5977   5976   5998   5982     1  180.0000771  0.4184000  2
   5977   5976   5998   5982     1  0.0000000  1.6024720  3
   5977   5980   5981   5982     1  180.0000771  0.8368000  1
   5977   5980   5981   5982     1  180.0000771  1.0460000  2
   5977   5980   5981   5982     1  0.0000000  0.7531200  3
   5977   5980   5981   5987     1  0.0000000  0.6508444  3
   5980   5977   5976   5990     1  180.0000771  0.8368000  1
   5980   5977   5976   5990     1  180.0000771  1.0460000  2
   5980   5977   5976   5990     1  0.0000000  0.7531200  3
   5980   5977   5976   5998     1  0.0000000  0.6508444  3
   5980   5981   5982   5986     1  0.0000000  0.6508444  3
   5980   5981   5982   5998     1  0.0000000  0.6508444  3
   5981   5980   5977   5989     1  0.0000000  0.6508444  3
   5982   5981   5980   5988     1  0.0000000  0.6508444  3
   5982   5998   5976   5990     1  180.0000771  0.4184000  2
   5982   5998   5976   5990     1  0.0000000  1.6024720  3
   5986   5982   5981   5987     1  0.0000000  4.9162000  2
   5986   5982   5981   5987     1  0.0000000  0.6024960  3
   5987   5981   5980   5988     1  0.0000000  4.9162000  2
   5987   5981   5980   5988     1  0.0000000  0.6024960  3
   5987   5981   5982   5998     1  0.0000000  4.9162000  2
   5987   5981   5982   5998     1  0.0000000  0.6024960  3
   5988   5980   5977   5989     1  0.0000000  4.9162000  2
   5988   5980   5977   5989     1  0.0000000  0.6024960  3
   5989   5977   5976   5990     1  0.0000000  0.6508444  3
   5989   5977   5976   5998     1  0.0000000  4.9162000  2
   5989   5977   5976   5998     1  0.0000000  0.6024960  3
   5996   5990   5976   5998     1  0.0000000  4.9162000  2
   5996   5990   5976   5998     1  0.0000000  0.6024960  3
   5999   6000   6003   6004     1  180.0000771  0.8368000  1
   5999   6000   6003   6004     1  180.0000771  1.0460000  2
   5999   6000   6003   6004     1  0.0000000  0.7531200  3
   5999   6000   6003   6011     1  0.0000000  0.6508444  3
   5999   6021   6005   6009     1  180.0000771  5.6484000  1
   5999   6021   6005   6009     1  180.0000771  3.5564000  2
   5999   6021   6005   6009     1  0.0000000  0.4184000  3
   5999   6021   6005   6004     1  180.0000771  0.4184000  2
   5999   6021   6005   6004     1  0.0000000  1.6024720  3
   6000   6003   6004   6005     1  180.0000771  0.8368000  1
   6000   6003   6004   6005     1  180.0000771  1.0460000  2
   6000   6003   6004   6005     1  0.0000000  0.7531200  3
   6000   6003   6004   6010     1  0.0000000  0.6508444  3
   6000   5999   6013   6019     1  0.0000000  0.6508444  3
   6000   5999   6021   6005     1  180.0000771  0.4184000  2
   6000   5999   6021   6005     1  0.0000000  1.6024720  3
   6003   6004   6005   6009     1  0.0000000  0.6508444  3
   6003   6004   6005   6021     1  0.0000000  0.6508444  3
   6003   6000   5999   6013     1  180.0000771  0.8368000  1
   6003   6000   5999   6013     1  180.0000771  1.0460000  2
   6003   6000   5999   6013     1  0.0000000  0.7531200  3
   6003   6000   5999   6021     1  0.0000000  0.6508444  3
   6004   6003   6000   6012     1  0.0000000  0.6508444  3
   6005   6021   5999   6013     1  180.0000771  0.4184000  2
   6005   6021   5999   6013     1  0.0000000  1.6024720  3
   6005   6004   6003   6011     1  0.0000000  0.6508444  3
   6009   6005   6004   6010     1  0.0000000  4.9162000  2
   6009   6005   6004   6010     1  0.0000000  0.6024960  3
   6010   6004   6005   6021     1  0.0000000  4.9162000  2
   6010   6004   6005   6021     1  0.0000000  0.6024960  3
   6010   6004   6003   6011     1  0.0000000  4.9162000  2
   6010   6004   6003   6011     1  0.0000000  0.6024960  3
   6011   6003   6000   6012     1  0.0000000  4.9162000  2
   6011   6003   6000   6012     1  0.0000000  0.6024960  3
   6012   6000   5999   6013     1  0.0000000  0.6508444  3
   6012   6000   5999   6021     1  0.0000000  4.9162000  2
   6012   6000   5999   6021     1  0.0000000  0.6024960  3
   6019   6013   5999   6021     1  0.0000000  4.9162000  2
   6019   6013   5999   6021     1  0.0000000  0.6024960  3
   6022   6023   6026   6027     1  180.0000771  0.8368000  1
   6022   6023   6026   6027     1  180.0000771  1.0460000  2
   6022   6023   6026   6027     1  0.0000000  0.7531200  3
   6022   6023   6026   6034     1  0.0000000  0.6508444  3
   6022   6044   6028   6027     1  180.0000771  0.4184000  2
   6022   6044   6028   6027     1  0.0000000  1.6024720  3
   6022   6044   6028   6032     1  180.0000771  5.6484000  1
   6022   6044   6028   6032     1  180.0000771  3.5564000  2
   6022   6044   6028   6032     1  0.0000000  0.4184000  3
   6023   6022   6036   6042     1  0.0000000  0.6508444  3
   6023   6022   6044   6028     1  180.0000771  0.4184000  2
   6023   6022   6044   6028     1  0.0000000  1.6024720  3
   6023   6026   6027   6028     1  180.0000771  0.8368000  1
   6023   6026   6027   6028     1  180.0000771  1.0460000  2
   6023   6026   6027   6028     1  0.0000000  0.7531200  3
   6023   6026   6027   6033     1  0.0000000  0.6508444  3
   6026   6023   6022   6036     1  180.0000771  0.8368000  1
   6026   6023   6022   6036     1  180.0000771  1.0460000  2
   6026   6023   6022   6036     1  0.0000000  0.7531200  3
   6026   6023   6022   6044     1  0.0000000  0.6508444  3
   6026   6027   6028   6032     1  0.0000000  0.6508444  3
   6026   6027   6028   6044     1  0.0000000  0.6508444  3
   6027   6026   6023   6035     1  0.0000000  0.6508444  3
   6028   6027   6026   6034     1  0.0000000  0.6508444  3
   6028   6044   6022   6036     1  180.0000771  0.4184000  2
   6028   6044   6022   6036     1  0.0000000  1.6024720  3
   6032   6028   6027   6033     1  0.0000000  4.9162000  2
   6032   6028   6027   6033     1  0.0000000  0.6024960  3
   6033   6027   6026   6034     1  0.0000000  4.9162000  2
   6033   6027   6026   6034     1  0.0000000  0.6024960  3
   6033   6027   6028   6044     1  0.0000000  4.9162000  2
   6033   6027   6028   6044     1  0.0000000  0.6024960  3
   6034   6026   6023   6035     1  0.0000000  4.9162000  2
   6034   6026   6023   6035     1  0.0000000  0.6024960  3
   6035   6023   6022   6036     1  0.0000000  0.6508444  3
   6035   6023   6022   6044     1  0.0000000  4.9162000  2
   6035   6023   6022   6044     1  0.0000000  0.6024960  3
   6042   6036   6022   6044     1  0.0000000  4.9162000  2
   6042   6036   6022   6044     1  0.0000000  0.6024960  3
   6045   6046   6049   6050     1  180.0000771  0.8368000  1
   6045   6046   6049   6050     1  180.0000771  1.0460000  2
   6045   6046   6049   6050     1  0.0000000  0.7531200  3
   6045   6046   6049   6057     1  0.0000000  0.6508444  3
   6045   6067   6051   6055     1  180.0000771  5.6484000  1
   6045   6067   6051   6055     1  180.0000771  3.5564000  2
   6045   6067   6051   6055     1  0.0000000  0.4184000  3
   6045   6067   6051   6050     1  180.0000771  0.4184000  2
   6045   6067   6051   6050     1  0.0000000  1.6024720  3
   6046   6049   6050   6051     1  180.0000771  0.8368000  1
   6046   6049   6050   6051     1  180.0000771  1.0460000  2
   6046   6049   6050   6051     1  0.0000000  0.7531200  3
   6046   6049   6050   6056     1  0.0000000  0.6508444  3
   6046   6045   6059   6065     1  0.0000000  0.6508444  3
   6046   6045   6067   6051     1  180.0000771  0.4184000  2
   6046   6045   6067   6051     1  0.0000000  1.6024720  3
   6049   6050   6051   6055     1  0.0000000  0.6508444  3
   6049   6050   6051   6067     1  0.0000000  0.6508444  3
   6049   6046   6045   6059     1  180.0000771  0.8368000  1
   6049   6046   6045   6059     1  180.0000771  1.0460000  2
   6049   6046   6045   6059     1  0.0000000  0.7531200  3
   6049   6046   6045   6067     1  0.0000000  0.6508444  3
   6050   6049   6046   6058     1  0.0000000  0.6508444  3
   6051   6067   6045   6059     1  180.0000771  0.4184000  2
   6051   6067   6045   6059     1  0.0000000  1.6024720  3
   6051   6050   6049   6057     1  0.0000000  0.6508444  3
   6055   6051   6050   6056     1  0.0000000  4.9162000  2
   6055   6051   6050   6056     1  0.0000000  0.6024960  3
   6056   6050   6051   6067     1  0.0000000  4.9162000  2
   6056   6050   6051   6067     1  0.0000000  0.6024960  3
   6056   6050   6049   6057     1  0.0000000  4.9162000  2
   6056   6050   6049   6057     1  0.0000000  0.6024960  3
   6057   6049   6046   6058     1  0.0000000  4.9162000  2
   6057   6049   6046   6058     1  0.0000000  0.6024960  3
   6058   6046   6045   6059     1  0.0000000  0.6508444  3
   6058   6046   6045   6067     1  0.0000000  4.9162000  2
   6058   6046   6045   6067     1  0.0000000  0.6024960  3
   6065   6059   6045   6067     1  0.0000000  4.9162000  2
   6065   6059   6045   6067     1  0.0000000  0.6024960  3
   6068   6069   6072   6073     1  180.0000771  0.8368000  1
   6068   6069   6072   6073     1  180.0000771  1.0460000  2
   6068   6069   6072   6073     1  0.0000000  0.7531200  3
   6068   6069   6072   6080     1  0.0000000  0.6508444  3
   6068   6090   6074   6073     1  180.0000771  0.4184000  2
   6068   6090   6074   6073     1  0.0000000  1.6024720  3
   6068   6090   6074   6078     1  180.0000771  5.6484000  1
   6068   6090   6074   6078     1  180.0000771  3.5564000  2
   6068   6090   6074   6078     1  0.0000000  0.4184000  3
   6069   6068   6082   6088     1  0.0000000  0.6508444  3
   6069   6068   6090   6074     1  180.0000771  0.4184000  2
   6069   6068   6090   6074     1  0.0000000  1.6024720  3
   6069   6072   6073   6074     1  180.0000771  0.8368000  1
   6069   6072   6073   6074     1  180.0000771  1.0460000  2
   6069   6072   6073   6074     1  0.0000000  0.7531200  3
   6069   6072   6073   6079     1  0.0000000  0.6508444  3
   6072   6069   6068   6082     1  180.0000771  0.8368000  1
   6072   6069   6068   6082     1  180.0000771  1.0460000  2
   6072   6069   6068   6082     1  0.0000000  0.7531200  3
   6072   6069   6068   6090     1  0.0000000  0.6508444  3
   6072   6073   6074   6078     1  0.0000000  0.6508444  3
   6072   6073   6074   6090     1  0.0000000  0.6508444  3
   6073   6072   6069   6081     1  0.0000000  0.6508444  3
   6074   6073   6072   6080     1  0.0000000  0.6508444  3
   6074   6090   6068   6082     1  180.0000771  0.4184000  2
   6074   6090   6068   6082     1  0.0000000  1.6024720  3
   6078   6074   6073   6079     1  0.0000000  4.9162000  2
   6078   6074   6073   6079     1  0.0000000  0.6024960  3
   6079   6073   6072   6080     1  0.0000000  4.9162000  2
   6079   6073   6072   6080     1  0.0000000  0.6024960  3
   6079   6073   6074   6090     1  0.0000000  4.9162000  2
   6079   6073   6074   6090     1  0.0000000  0.6024960  3
   6080   6072   6069   6081     1  0.0000000  4.9162000  2
   6080   6072   6069   6081     1  0.0000000  0.6024960  3
   6081   6069   6068   6082     1  0.0000000  0.6508444  3
   6081   6069   6068   6090     1  0.0000000  4.9162000  2
   6081   6069   6068   6090     1  0.0000000  0.6024960  3
   6088   6082   6068   6090     1  0.0000000  4.9162000  2
   6088   6082   6068   6090     1  0.0000000  0.6024960  3
   6091   6092   6095   6096     1  180.0000771  0.8368000  1
   6091   6092   6095   6096     1  180.0000771  1.0460000  2
   6091   6092   6095   6096     1  0.0000000  0.7531200  3
   6091   6092   6095   6103     1  0.0000000  0.6508444  3
   6091   6113   6097   6101     1  180.0000771  5.6484000  1
   6091   6113   6097   6101     1  180.0000771  3.5564000  2
   6091   6113   6097   6101     1  0.0000000  0.4184000  3
   6091   6113   6097   6096     1  180.0000771  0.4184000  2
   6091   6113   6097   6096     1  0.0000000  1.6024720  3
   6092   6095   6096   6097     1  180.0000771  0.8368000  1
   6092   6095   6096   6097     1  180.0000771  1.0460000  2
   6092   6095   6096   6097     1  0.0000000  0.7531200  3
   6092   6095   6096   6102     1  0.0000000  0.6508444  3
   6092   6091   6105   6111     1  0.0000000  0.6508444  3
   6092   6091   6113   6097     1  180.0000771  0.4184000  2
   6092   6091   6113   6097     1  0.0000000  1.6024720  3
   6095   6096   6097   6101     1  0.0000000  0.6508444  3
   6095   6096   6097   6113     1  0.0000000  0.6508444  3
   6095   6092   6091   6105     1  180.0000771  0.8368000  1
   6095   6092   6091   6105     1  180.0000771  1.0460000  2
   6095   6092   6091   6105     1  0.0000000  0.7531200  3
   6095   6092   6091   6113     1  0.0000000  0.6508444  3
   6096   6095   6092   6104     1  0.0000000  0.6508444  3
   6097   6113   6091   6105     1  180.0000771  0.4184000  2
   6097   6113   6091   6105     1  0.0000000  1.6024720  3
   6097   6096   6095   6103     1  0.0000000  0.6508444  3
   6101   6097   6096   6102     1  0.0000000  4.9162000  2
   6101   6097   6096   6102     1  0.0000000  0.6024960  3
   6102   6096   6097   6113     1  0.0000000  4.9162000  2
   6102   6096   6097   6113     1  0.0000000  0.6024960  3
   6102   6096   6095   6103     1  0.0000000  4.9162000  2
   6102   6096   6095   6103     1  0.0000000  0.6024960  3
   6103   6095   6092   6104     1  0.0000000  4.9162000  2
   6103   6095   6092   6104     1  0.0000000  0.6024960  3
   6104   6092   6091   6105     1  0.0000000  0.6508444  3
   6104   6092   6091   6113     1  0.0000000  4.9162000  2
   6104   6092   6091   6113     1  0.0000000  0.6024960  3
   6111   6105   6091   6113     1  0.0000000  4.9162000  2
   6111   6105   6091   6113     1  0.0000000  0.6024960  3
   6114   6115   6118   6119     1  180.0000771  0.8368000  1
   6114   6115   6118   6119     1  180.0000771  1.0460000  2
   6114   6115   6118   6119     1  0.0000000  0.7531200  3
   6114   6115   6118   6126     1  0.0000000  0.6508444  3
   6114   6136   6120   6119     1  180.0000771  0.4184000  2
   6114   6136   6120   6119     1  0.0000000  1.6024720  3
   6114   6136   6120   6124     1  180.0000771  5.6484000  1
   6114   6136   6120   6124     1  180.0000771  3.5564000  2
   6114   6136   6120   6124     1  0.0000000  0.4184000  3
   6115   6114   6128   6134     1  0.0000000  0.6508444  3
   6115   6114   6136   6120     1  180.0000771  0.4184000  2
   6115   6114   6136   6120     1  0.0000000  1.6024720  3
   6115   6118   6119   6120     1  180.0000771  0.8368000  1
   6115   6118   6119   6120     1  180.0000771  1.0460000  2
   6115   6118   6119   6120     1  0.0000000  0.7531200  3
   6115   6118   6119   6125     1  0.0000000  0.6508444  3
   6118   6115   6114   6128     1  180.0000771  0.8368000  1
   6118   6115   6114   6128     1  180.0000771  1.0460000  2
   6118   6115   6114   6128     1  0.0000000  0.7531200  3
   6118   6115   6114   6136     1  0.0000000  0.6508444  3
   6118   6119   6120   6124     1  0.0000000  0.6508444  3
   6118   6119   6120   6136     1  0.0000000  0.6508444  3
   6119   6118   6115   6127     1  0.0000000  0.6508444  3
   6120   6119   6118   6126     1  0.0000000  0.6508444  3
   6120   6136   6114   6128     1  180.0000771  0.4184000  2
   6120   6136   6114   6128     1  0.0000000  1.6024720  3
   6124   6120   6119   6125     1  0.0000000  4.9162000  2
   6124   6120   6119   6125     1  0.0000000  0.6024960  3
   6125   6119   6118   6126     1  0.0000000  4.9162000  2
   6125   6119   6118   6126     1  0.0000000  0.6024960  3
   6125   6119   6120   6136     1  0.0000000  4.9162000  2
   6125   6119   6120   6136     1  0.0000000  0.6024960  3
   6126   6118   6115   6127     1  0.0000000  4.9162000  2
   6126   6118   6115   6127     1  0.0000000  0.6024960  3
   6127   6115   6114   6128     1  0.0000000  0.6508444  3
   6127   6115   6114   6136     1  0.0000000  4.9162000  2
   6127   6115   6114   6136     1  0.0000000  0.6024960  3
   6134   6128   6114   6136     1  0.0000000  4.9162000  2
   6134   6128   6114   6136     1  0.0000000  0.6024960  3
   6137   6138   6141   6142     1  180.0000771  0.8368000  1
   6137   6138   6141   6142     1  180.0000771  1.0460000  2
   6137   6138   6141   6142     1  0.0000000  0.7531200  3
   6137   6138   6141   6149     1  0.0000000  0.6508444  3
   6137   6159   6143   6147     1  180.0000771  5.6484000  1
   6137   6159   6143   6147     1  180.0000771  3.5564000  2
   6137   6159   6143   6147     1  0.0000000  0.4184000  3
   6137   6159   6143   6142     1  180.0000771  0.4184000  2
   6137   6159   6143   6142     1  0.0000000  1.6024720  3
   6138   6141   6142   6143     1  180.0000771  0.8368000  1
   6138   6141   6142   6143     1  180.0000771  1.0460000  2
   6138   6141   6142   6143     1  0.0000000  0.7531200  3
   6138   6141   6142   6148     1  0.0000000  0.6508444  3
   6138   6137   6151   6157     1  0.0000000  0.6508444  3
   6138   6137   6159   6143     1  180.0000771  0.4184000  2
   6138   6137   6159   6143     1  0.0000000  1.6024720  3
   6141   6142   6143   6147     1  0.0000000  0.6508444  3
   6141   6142   6143   6159     1  0.0000000  0.6508444  3
   6141   6138   6137   6151     1  180.0000771  0.8368000  1
   6141   6138   6137   6151     1  180.0000771  1.0460000  2
   6141   6138   6137   6151     1  0.0000000  0.7531200  3
   6141   6138   6137   6159     1  0.0000000  0.6508444  3
   6142   6141   6138   6150     1  0.0000000  0.6508444  3
   6143   6159   6137   6151     1  180.0000771  0.4184000  2
   6143   6159   6137   6151     1  0.0000000  1.6024720  3
   6143   6142   6141   6149     1  0.0000000  0.6508444  3
   6147   6143   6142   6148     1  0.0000000  4.9162000  2
   6147   6143   6142   6148     1  0.0000000  0.6024960  3
   6148   6142   6143   6159     1  0.0000000  4.9162000  2
   6148   6142   6143   6159     1  0.0000000  0.6024960  3
   6148   6142   6141   6149     1  0.0000000  4.9162000  2
   6148   6142   6141   6149     1  0.0000000  0.6024960  3
   6149   6141   6138   6150     1  0.0000000  4.9162000  2
   6149   6141   6138   6150     1  0.0000000  0.6024960  3
   6150   6138   6137   6151     1  0.0000000  0.6508444  3
   6150   6138   6137   6159     1  0.0000000  4.9162000  2
   6150   6138   6137   6159     1  0.0000000  0.6024960  3
   6157   6151   6137   6159     1  0.0000000  4.9162000  2
   6157   6151   6137   6159     1  0.0000000  0.6024960  3
   6160   6161   6164   6165     1  180.0000771  0.8368000  1
   6160   6161   6164   6165     1  180.0000771  1.0460000  2
   6160   6161   6164   6165     1  0.0000000  0.7531200  3
   6160   6161   6164   6172     1  0.0000000  0.6508444  3
   6160   6182   6166   6165     1  180.0000771  0.4184000  2
   6160   6182   6166   6165     1  0.0000000  1.6024720  3
   6160   6182   6166   6170     1  180.0000771  5.6484000  1
   6160   6182   6166   6170     1  180.0000771  3.5564000  2
   6160   6182   6166   6170     1  0.0000000  0.4184000  3
   6161   6160   6174   6180     1  0.0000000  0.6508444  3
   6161   6160   6182   6166     1  180.0000771  0.4184000  2
   6161   6160   6182   6166     1  0.0000000  1.6024720  3
   6161   6164   6165   6166     1  180.0000771  0.8368000  1
   6161   6164   6165   6166     1  180.0000771  1.0460000  2
   6161   6164   6165   6166     1  0.0000000  0.7531200  3
   6161   6164   6165   6171     1  0.0000000  0.6508444  3
   6164   6161   6160   6174     1  180.0000771  0.8368000  1
   6164   6161   6160   6174     1  180.0000771  1.0460000  2
   6164   6161   6160   6174     1  0.0000000  0.7531200  3
   6164   6161   6160   6182     1  0.0000000  0.6508444  3
   6164   6165   6166   6170     1  0.0000000  0.6508444  3
   6164   6165   6166   6182     1  0.0000000  0.6508444  3
   6165   6164   6161   6173     1  0.0000000  0.6508444  3
   6166   6165   6164   6172     1  0.0000000  0.6508444  3
   6166   6182   6160   6174     1  180.0000771  0.4184000  2
   6166   6182   6160   6174     1  0.0000000  1.6024720  3
   6170   6166   6165   6171     1  0.0000000  4.9162000  2
   6170   6166   6165   6171     1  0.0000000  0.6024960  3
   6171   6165   6164   6172     1  0.0000000  4.9162000  2
   6171   6165   6164   6172     1  0.0000000  0.6024960  3
   6171   6165   6166   6182     1  0.0000000  4.9162000  2
   6171   6165   6166   6182     1  0.0000000  0.6024960  3
   6172   6164   6161   6173     1  0.0000000  4.9162000  2
   6172   6164   6161   6173     1  0.0000000  0.6024960  3
   6173   6161   6160   6174     1  0.0000000  0.6508444  3
   6173   6161   6160   6182     1  0.0000000  4.9162000  2
   6173   6161   6160   6182     1  0.0000000  0.6024960  3
   6180   6174   6160   6182     1  0.0000000  4.9162000  2
   6180   6174   6160   6182     1  0.0000000  0.6024960  3
   6183   6184   6187   6188     1  180.0000771  0.8368000  1
   6183   6184   6187   6188     1  180.0000771  1.0460000  2
   6183   6184   6187   6188     1  0.0000000  0.7531200  3
   6183   6184   6187   6195     1  0.0000000  0.6508444  3
   6183   6205   6189   6193     1  180.0000771  5.6484000  1
   6183   6205   6189   6193     1  180.0000771  3.5564000  2
   6183   6205   6189   6193     1  0.0000000  0.4184000  3
   6183   6205   6189   6188     1  180.0000771  0.4184000  2
   6183   6205   6189   6188     1  0.0000000  1.6024720  3
   6184   6187   6188   6189     1  180.0000771  0.8368000  1
   6184   6187   6188   6189     1  180.0000771  1.0460000  2
   6184   6187   6188   6189     1  0.0000000  0.7531200  3
   6184   6187   6188   6194     1  0.0000000  0.6508444  3
   6184   6183   6197   6203     1  0.0000000  0.6508444  3
   6184   6183   6205   6189     1  180.0000771  0.4184000  2
   6184   6183   6205   6189     1  0.0000000  1.6024720  3
   6187   6188   6189   6193     1  0.0000000  0.6508444  3
   6187   6188   6189   6205     1  0.0000000  0.6508444  3
   6187   6184   6183   6197     1  180.0000771  0.8368000  1
   6187   6184   6183   6197     1  180.0000771  1.0460000  2
   6187   6184   6183   6197     1  0.0000000  0.7531200  3
   6187   6184   6183   6205     1  0.0000000  0.6508444  3
   6188   6187   6184   6196     1  0.0000000  0.6508444  3
   6189   6205   6183   6197     1  180.0000771  0.4184000  2
   6189   6205   6183   6197     1  0.0000000  1.6024720  3
   6189   6188   6187   6195     1  0.0000000  0.6508444  3
   6193   6189   6188   6194     1  0.0000000  4.9162000  2
   6193   6189   6188   6194     1  0.0000000  0.6024960  3
   6194   6188   6189   6205     1  0.0000000  4.9162000  2
   6194   6188   6189   6205     1  0.0000000  0.6024960  3
   6194   6188   6187   6195     1  0.0000000  4.9162000  2
   6194   6188   6187   6195     1  0.0000000  0.6024960  3
   6195   6187   6184   6196     1  0.0000000  4.9162000  2
   6195   6187   6184   6196     1  0.0000000  0.6024960  3
   6196   6184   6183   6197     1  0.0000000  0.6508444  3
   6196   6184   6183   6205     1  0.0000000  4.9162000  2
   6196   6184   6183   6205     1  0.0000000  0.6024960  3
   6203   6197   6183   6205     1  0.0000000  4.9162000  2
   6203   6197   6183   6205     1  0.0000000  0.6024960  3
   6206   6207   6210   6211     1  180.0000771  0.8368000  1
   6206   6207   6210   6211     1  180.0000771  1.0460000  2
   6206   6207   6210   6211     1  0.0000000  0.7531200  3
   6206   6207   6210   6218     1  0.0000000  0.6508444  3
   6206   6228   6212   6211     1  180.0000771  0.4184000  2
   6206   6228   6212   6211     1  0.0000000  1.6024720  3
   6206   6228   6212   6216     1  180.0000771  5.6484000  1
   6206   6228   6212   6216     1  180.0000771  3.5564000  2
   6206   6228   6212   6216     1  0.0000000  0.4184000  3
   6207   6206   6220   6226     1  0.0000000  0.6508444  3
   6207   6206   6228   6212     1  180.0000771  0.4184000  2
   6207   6206   6228   6212     1  0.0000000  1.6024720  3
   6207   6210   6211   6212     1  180.0000771  0.8368000  1
   6207   6210   6211   6212     1  180.0000771  1.0460000  2
   6207   6210   6211   6212     1  0.0000000  0.7531200  3
   6207   6210   6211   6217     1  0.0000000  0.6508444  3
   6210   6207   6206   6220     1  180.0000771  0.8368000  1
   6210   6207   6206   6220     1  180.0000771  1.0460000  2
   6210   6207   6206   6220     1  0.0000000  0.7531200  3
   6210   6207   6206   6228     1  0.0000000  0.6508444  3
   6210   6211   6212   6216     1  0.0000000  0.6508444  3
   6210   6211   6212   6228     1  0.0000000  0.6508444  3
   6211   6210   6207   6219     1  0.0000000  0.6508444  3
   6212   6211   6210   6218     1  0.0000000  0.6508444  3
   6212   6228   6206   6220     1  180.0000771  0.4184000  2
   6212   6228   6206   6220     1  0.0000000  1.6024720  3
   6216   6212   6211   6217     1  0.0000000  4.9162000  2
   6216   6212   6211   6217     1  0.0000000  0.6024960  3
   6217   6211   6210   6218     1  0.0000000  4.9162000  2
   6217   6211   6210   6218     1  0.0000000  0.6024960  3
   6217   6211   6212   6228     1  0.0000000  4.9162000  2
   6217   6211   6212   6228     1  0.0000000  0.6024960  3
   6218   6210   6207   6219     1  0.0000000  4.9162000  2
   6218   6210   6207   6219     1  0.0000000  0.6024960  3
   6219   6207   6206   6220     1  0.0000000  0.6508444  3
   6219   6207   6206   6228     1  0.0000000  4.9162000  2
   6219   6207   6206   6228     1  0.0000000  0.6024960  3
   6226   6220   6206   6228     1  0.0000000  4.9162000  2
   6226   6220   6206   6228     1  0.0000000  0.6024960  3
   6229   6230   6233   6234     1  180.0000771  0.8368000  1
   6229   6230   6233   6234     1  180.0000771  1.0460000  2
   6229   6230   6233   6234     1  0.0000000  0.7531200  3
   6229   6230   6233   6241     1  0.0000000  0.6508444  3
   6229   6251   6235   6239     1  180.0000771  5.6484000  1
   6229   6251   6235   6239     1  180.0000771  3.5564000  2
   6229   6251   6235   6239     1  0.0000000  0.4184000  3
   6229   6251   6235   6234     1  180.0000771  0.4184000  2
   6229   6251   6235   6234     1  0.0000000  1.6024720  3
   6230   6233   6234   6235     1  180.0000771  0.8368000  1
   6230   6233   6234   6235     1  180.0000771  1.0460000  2
   6230   6233   6234   6235     1  0.0000000  0.7531200  3
   6230   6233   6234   6240     1  0.0000000  0.6508444  3
   6230   6229   6243   6249     1  0.0000000  0.6508444  3
   6230   6229   6251   6235     1  180.0000771  0.4184000  2
   6230   6229   6251   6235     1  0.0000000  1.6024720  3
   6233   6234   6235   6239     1  0.0000000  0.6508444  3
   6233   6234   6235   6251     1  0.0000000  0.6508444  3
   6233   6230   6229   6243     1  180.0000771  0.8368000  1
   6233   6230   6229   6243     1  180.0000771  1.0460000  2
   6233   6230   6229   6243     1  0.0000000  0.7531200  3
   6233   6230   6229   6251     1  0.0000000  0.6508444  3
   6234   6233   6230   6242     1  0.0000000  0.6508444  3
   6235   6251   6229   6243     1  180.0000771  0.4184000  2
   6235   6251   6229   6243     1  0.0000000  1.6024720  3
   6235   6234   6233   6241     1  0.0000000  0.6508444  3
   6239   6235   6234   6240     1  0.0000000  4.9162000  2
   6239   6235   6234   6240     1  0.0000000  0.6024960  3
   6240   6234   6235   6251     1  0.0000000  4.9162000  2
   6240   6234   6235   6251     1  0.0000000  0.6024960  3
   6240   6234   6233   6241     1  0.0000000  4.9162000  2
   6240   6234   6233   6241     1  0.0000000  0.6024960  3
   6241   6233   6230   6242     1  0.0000000  4.9162000  2
   6241   6233   6230   6242     1  0.0000000  0.6024960  3
   6242   6230   6229   6243     1  0.0000000  0.6508444  3
   6242   6230   6229   6251     1  0.0000000  4.9162000  2
   6242   6230   6229   6251     1  0.0000000  0.6024960  3
   6249   6243   6229   6251     1  0.0000000  4.9162000  2
   6249   6243   6229   6251     1  0.0000000  0.6024960  3
   6252   6253   6256   6257     1  180.0000771  0.8368000  1
   6252   6253   6256   6257     1  180.0000771  1.0460000  2
   6252   6253   6256   6257     1  0.0000000  0.7531200  3
   6252   6253   6256   6264     1  0.0000000  0.6508444  3
   6252   6274   6258   6257     1  180.0000771  0.4184000  2
   6252   6274   6258   6257     1  0.0000000  1.6024720  3
   6252   6274   6258   6262     1  180.0000771  5.6484000  1
   6252   6274   6258   6262     1  180.0000771  3.5564000  2
   6252   6274   6258   6262     1  0.0000000  0.4184000  3
   6253   6252   6266   6272     1  0.0000000  0.6508444  3
   6253   6252   6274   6258     1  180.0000771  0.4184000  2
   6253   6252   6274   6258     1  0.0000000  1.6024720  3
   6253   6256   6257   6258     1  180.0000771  0.8368000  1
   6253   6256   6257   6258     1  180.0000771  1.0460000  2
   6253   6256   6257   6258     1  0.0000000  0.7531200  3
   6253   6256   6257   6263     1  0.0000000  0.6508444  3
   6256   6253   6252   6266     1  180.0000771  0.8368000  1
   6256   6253   6252   6266     1  180.0000771  1.0460000  2
   6256   6253   6252   6266     1  0.0000000  0.7531200  3
   6256   6253   6252   6274     1  0.0000000  0.6508444  3
   6256   6257   6258   6262     1  0.0000000  0.6508444  3
   6256   6257   6258   6274     1  0.0000000  0.6508444  3
   6257   6256   6253   6265     1  0.0000000  0.6508444  3
   6258   6257   6256   6264     1  0.0000000  0.6508444  3
   6258   6274   6252   6266     1  180.0000771  0.4184000  2
   6258   6274   6252   6266     1  0.0000000  1.6024720  3
   6262   6258   6257   6263     1  0.0000000  4.9162000  2
   6262   6258   6257   6263     1  0.0000000  0.6024960  3
   6263   6257   6256   6264     1  0.0000000  4.9162000  2
   6263   6257   6256   6264     1  0.0000000  0.6024960  3
   6263   6257   6258   6274     1  0.0000000  4.9162000  2
   6263   6257   6258   6274     1  0.0000000  0.6024960  3
   6264   6256   6253   6265     1  0.0000000  4.9162000  2
   6264   6256   6253   6265     1  0.0000000  0.6024960  3
   6265   6253   6252   6266     1  0.0000000  0.6508444  3
   6265   6253   6252   6274     1  0.0000000  4.9162000  2
   6265   6253   6252   6274     1  0.0000000  0.6024960  3
   6272   6266   6252   6274     1  0.0000000  4.9162000  2
   6272   6266   6252   6274     1  0.0000000  0.6024960  3
   6275   6276   6279   6280     1  180.0000771  0.8368000  1
   6275   6276   6279   6280     1  180.0000771  1.0460000  2
   6275   6276   6279   6280     1  0.0000000  0.7531200  3
   6275   6276   6279   6287     1  0.0000000  0.6508444  3
   6275   6297   6281   6285     1  180.0000771  5.6484000  1
   6275   6297   6281   6285     1  180.0000771  3.5564000  2
   6275   6297   6281   6285     1  0.0000000  0.4184000  3
   6275   6297   6281   6280     1  180.0000771  0.4184000  2
   6275   6297   6281   6280     1  0.0000000  1.6024720  3
   6276   6279   6280   6281     1  180.0000771  0.8368000  1
   6276   6279   6280   6281     1  180.0000771  1.0460000  2
   6276   6279   6280   6281     1  0.0000000  0.7531200  3
   6276   6279   6280   6286     1  0.0000000  0.6508444  3
   6276   6275   6289   6295     1  0.0000000  0.6508444  3
   6276   6275   6297   6281     1  180.0000771  0.4184000  2
   6276   6275   6297   6281     1  0.0000000  1.6024720  3
   6279   6280   6281   6285     1  0.0000000  0.6508444  3
   6279   6280   6281   6297     1  0.0000000  0.6508444  3
   6279   6276   6275   6289     1  180.0000771  0.8368000  1
   6279   6276   6275   6289     1  180.0000771  1.0460000  2
   6279   6276   6275   6289     1  0.0000000  0.7531200  3
   6279   6276   6275   6297     1  0.0000000  0.6508444  3
   6280   6279   6276   6288     1  0.0000000  0.6508444  3
   6281   6297   6275   6289     1  180.0000771  0.4184000  2
   6281   6297   6275   6289     1  0.0000000  1.6024720  3
   6281   6280   6279   6287     1  0.0000000  0.6508444  3
   6285   6281   6280   6286     1  0.0000000  4.9162000  2
   6285   6281   6280   6286     1  0.0000000  0.6024960  3
   6286   6280   6281   6297     1  0.0000000  4.9162000  2
   6286   6280   6281   6297     1  0.0000000  0.6024960  3
   6286   6280   6279   6287     1  0.0000000  4.9162000  2
   6286   6280   6279   6287     1  0.0000000  0.6024960  3
   6287   6279   6276   6288     1  0.0000000  4.9162000  2
   6287   6279   6276   6288     1  0.0000000  0.6024960  3
   6288   6276   6275   6289     1  0.0000000  0.6508444  3
   6288   6276   6275   6297     1  0.0000000  4.9162000  2
   6288   6276   6275   6297     1  0.0000000  0.6024960  3
   6295   6289   6275   6297     1  0.0000000  4.9162000  2
   6295   6289   6275   6297     1  0.0000000  0.6024960  3
   6298   6299   6302   6303     1  180.0000771  0.8368000  1
   6298   6299   6302   6303     1  180.0000771  1.0460000  2
   6298   6299   6302   6303     1  0.0000000  0.7531200  3
   6298   6299   6302   6310     1  0.0000000  0.6508444  3
   6298   6320   6304   6303     1  180.0000771  0.4184000  2
   6298   6320   6304   6303     1  0.0000000  1.6024720  3
   6298   6320   6304   6308     1  180.0000771  5.6484000  1
   6298   6320   6304   6308     1  180.0000771  3.5564000  2
   6298   6320   6304   6308     1  0.0000000  0.4184000  3
   6299   6298   6312   6318     1  0.0000000  0.6508444  3
   6299   6298   6320   6304     1  180.0000771  0.4184000  2
   6299   6298   6320   6304     1  0.0000000  1.6024720  3
   6299   6302   6303   6304     1  180.0000771  0.8368000  1
   6299   6302   6303   6304     1  180.0000771  1.0460000  2
   6299   6302   6303   6304     1  0.0000000  0.7531200  3
   6299   6302   6303   6309     1  0.0000000  0.6508444  3
   6302   6299   6298   6312     1  180.0000771  0.8368000  1
   6302   6299   6298   6312     1  180.0000771  1.0460000  2
   6302   6299   6298   6312     1  0.0000000  0.7531200  3
   6302   6299   6298   6320     1  0.0000000  0.6508444  3
   6302   6303   6304   6308     1  0.0000000  0.6508444  3
   6302   6303   6304   6320     1  0.0000000  0.6508444  3
   6303   6302   6299   6311     1  0.0000000  0.6508444  3
   6304   6303   6302   6310     1  0.0000000  0.6508444  3
   6304   6320   6298   6312     1  180.0000771  0.4184000  2
   6304   6320   6298   6312     1  0.0000000  1.6024720  3
   6308   6304   6303   6309     1  0.0000000  4.9162000  2
   6308   6304   6303   6309     1  0.0000000  0.6024960  3
   6309   6303   6302   6310     1  0.0000000  4.9162000  2
   6309   6303   6302   6310     1  0.0000000  0.6024960  3
   6309   6303   6304   6320     1  0.0000000  4.9162000  2
   6309   6303   6304   6320     1  0.0000000  0.6024960  3
   6310   6302   6299   6311     1  0.0000000  4.9162000  2
   6310   6302   6299   6311     1  0.0000000  0.6024960  3
   6311   6299   6298   6312     1  0.0000000  0.6508444  3
   6311   6299   6298   6320     1  0.0000000  4.9162000  2
   6311   6299   6298   6320     1  0.0000000  0.6024960  3
   6318   6312   6298   6320     1  0.0000000  4.9162000  2
   6318   6312   6298   6320     1  0.0000000  0.6024960  3
   6321   6322   6325   6326     1  180.0000771  0.8368000  1
   6321   6322   6325   6326     1  180.0000771  1.0460000  2
   6321   6322   6325   6326     1  0.0000000  0.7531200  3
   6321   6322   6325   6333     1  0.0000000  0.6508444  3
   6321   6343   6327   6331     1  180.0000771  5.6484000  1
   6321   6343   6327   6331     1  180.0000771  3.5564000  2
   6321   6343   6327   6331     1  0.0000000  0.4184000  3
   6321   6343   6327   6326     1  180.0000771  0.4184000  2
   6321   6343   6327   6326     1  0.0000000  1.6024720  3
   6322   6325   6326   6327     1  180.0000771  0.8368000  1
   6322   6325   6326   6327     1  180.0000771  1.0460000  2
   6322   6325   6326   6327     1  0.0000000  0.7531200  3
   6322   6325   6326   6332     1  0.0000000  0.6508444  3
   6322   6321   6335   6341     1  0.0000000  0.6508444  3
   6322   6321   6343   6327     1  180.0000771  0.4184000  2
   6322   6321   6343   6327     1  0.0000000  1.6024720  3
   6325   6326   6327   6331     1  0.0000000  0.6508444  3
   6325   6326   6327   6343     1  0.0000000  0.6508444  3
   6325   6322   6321   6335     1  180.0000771  0.8368000  1
   6325   6322   6321   6335     1  180.0000771  1.0460000  2
   6325   6322   6321   6335     1  0.0000000  0.7531200  3
   6325   6322   6321   6343     1  0.0000000  0.6508444  3
   6326   6325   6322   6334     1  0.0000000  0.6508444  3
   6327   6343   6321   6335     1  180.0000771  0.4184000  2
   6327   6343   6321   6335     1  0.0000000  1.6024720  3
   6327   6326   6325   6333     1  0.0000000  0.6508444  3
   6331   6327   6326   6332     1  0.0000000  4.9162000  2
   6331   6327   6326   6332     1  0.0000000  0.6024960  3
   6332   6326   6327   6343     1  0.0000000  4.9162000  2
   6332   6326   6327   6343     1  0.0000000  0.6024960  3
   6332   6326   6325   6333     1  0.0000000  4.9162000  2
   6332   6326   6325   6333     1  0.0000000  0.6024960  3
   6333   6325   6322   6334     1  0.0000000  4.9162000  2
   6333   6325   6322   6334     1  0.0000000  0.6024960  3
   6334   6322   6321   6335     1  0.0000000  0.6508444  3
   6334   6322   6321   6343     1  0.0000000  4.9162000  2
   6334   6322   6321   6343     1  0.0000000  0.6024960  3
   6341   6335   6321   6343     1  0.0000000  4.9162000  2
   6341   6335   6321   6343     1  0.0000000  0.6024960  3
   6344   6345   6348   6349     1  180.0000771  0.8368000  1
   6344   6345   6348   6349     1  180.0000771  1.0460000  2
   6344   6345   6348   6349     1  0.0000000  0.7531200  3
   6344   6345   6348   6356     1  0.0000000  0.6508444  3
   6344   6366   6350   6349     1  180.0000771  0.4184000  2
   6344   6366   6350   6349     1  0.0000000  1.6024720  3
   6344   6366   6350   6354     1  180.0000771  5.6484000  1
   6344   6366   6350   6354     1  180.0000771  3.5564000  2
   6344   6366   6350   6354     1  0.0000000  0.4184000  3
   6345   6344   6358   6364     1  0.0000000  0.6508444  3
   6345   6344   6366   6350     1  180.0000771  0.4184000  2
   6345   6344   6366   6350     1  0.0000000  1.6024720  3
   6345   6348   6349   6350     1  180.0000771  0.8368000  1
   6345   6348   6349   6350     1  180.0000771  1.0460000  2
   6345   6348   6349   6350     1  0.0000000  0.7531200  3
   6345   6348   6349   6355     1  0.0000000  0.6508444  3
   6348   6345   6344   6358     1  180.0000771  0.8368000  1
   6348   6345   6344   6358     1  180.0000771  1.0460000  2
   6348   6345   6344   6358     1  0.0000000  0.7531200  3
   6348   6345   6344   6366     1  0.0000000  0.6508444  3
   6348   6349   6350   6354     1  0.0000000  0.6508444  3
   6348   6349   6350   6366     1  0.0000000  0.6508444  3
   6349   6348   6345   6357     1  0.0000000  0.6508444  3
   6350   6349   6348   6356     1  0.0000000  0.6508444  3
   6350   6366   6344   6358     1  180.0000771  0.4184000  2
   6350   6366   6344   6358     1  0.0000000  1.6024720  3
   6354   6350   6349   6355     1  0.0000000  4.9162000  2
   6354   6350   6349   6355     1  0.0000000  0.6024960  3
   6355   6349   6348   6356     1  0.0000000  4.9162000  2
   6355   6349   6348   6356     1  0.0000000  0.6024960  3
   6355   6349   6350   6366     1  0.0000000  4.9162000  2
   6355   6349   6350   6366     1  0.0000000  0.6024960  3
   6356   6348   6345   6357     1  0.0000000  4.9162000  2
   6356   6348   6345   6357     1  0.0000000  0.6024960  3
   6357   6345   6344   6358     1  0.0000000  0.6508444  3
   6357   6345   6344   6366     1  0.0000000  4.9162000  2
   6357   6345   6344   6366     1  0.0000000  0.6024960  3
   6364   6358   6344   6366     1  0.0000000  4.9162000  2
   6364   6358   6344   6366     1  0.0000000  0.6024960  3
   6367   6368   6371   6372     1  180.0000771  0.8368000  1
   6367   6368   6371   6372     1  180.0000771  1.0460000  2
   6367   6368   6371   6372     1  0.0000000  0.7531200  3
   6367   6368   6371   6379     1  0.0000000  0.6508444  3
   6367   6389   6373   6377     1  180.0000771  5.6484000  1
   6367   6389   6373   6377     1  180.0000771  3.5564000  2
   6367   6389   6373   6377     1  0.0000000  0.4184000  3
   6367   6389   6373   6372     1  180.0000771  0.4184000  2
   6367   6389   6373   6372     1  0.0000000  1.6024720  3
   6368   6371   6372   6373     1  180.0000771  0.8368000  1
   6368   6371   6372   6373     1  180.0000771  1.0460000  2
   6368   6371   6372   6373     1  0.0000000  0.7531200  3
   6368   6371   6372   6378     1  0.0000000  0.6508444  3
   6368   6367   6381   6387     1  0.0000000  0.6508444  3
   6368   6367   6389   6373     1  180.0000771  0.4184000  2
   6368   6367   6389   6373     1  0.0000000  1.6024720  3
   6371   6372   6373   6377     1  0.0000000  0.6508444  3
   6371   6372   6373   6389     1  0.0000000  0.6508444  3
   6371   6368   6367   6381     1  180.0000771  0.8368000  1
   6371   6368   6367   6381     1  180.0000771  1.0460000  2
   6371   6368   6367   6381     1  0.0000000  0.7531200  3
   6371   6368   6367   6389     1  0.0000000  0.6508444  3
   6372   6371   6368   6380     1  0.0000000  0.6508444  3
   6373   6389   6367   6381     1  180.0000771  0.4184000  2
   6373   6389   6367   6381     1  0.0000000  1.6024720  3
   6373   6372   6371   6379     1  0.0000000  0.6508444  3
   6377   6373   6372   6378     1  0.0000000  4.9162000  2
   6377   6373   6372   6378     1  0.0000000  0.6024960  3
   6378   6372   6373   6389     1  0.0000000  4.9162000  2
   6378   6372   6373   6389     1  0.0000000  0.6024960  3
   6378   6372   6371   6379     1  0.0000000  4.9162000  2
   6378   6372   6371   6379     1  0.0000000  0.6024960  3
   6379   6371   6368   6380     1  0.0000000  4.9162000  2
   6379   6371   6368   6380     1  0.0000000  0.6024960  3
   6380   6368   6367   6381     1  0.0000000  0.6508444  3
   6380   6368   6367   6389     1  0.0000000  4.9162000  2
   6380   6368   6367   6389     1  0.0000000  0.6024960  3
   6387   6381   6367   6389     1  0.0000000  4.9162000  2
   6387   6381   6367   6389     1  0.0000000  0.6024960  3
   6390   6391   6394   6395     1  180.0000771  0.8368000  1
   6390   6391   6394   6395     1  180.0000771  1.0460000  2
   6390   6391   6394   6395     1  0.0000000  0.7531200  3
   6390   6391   6394   6402     1  0.0000000  0.6508444  3
   6390   6412   6396   6395     1  180.0000771  0.4184000  2
   6390   6412   6396   6395     1  0.0000000  1.6024720  3
   6390   6412   6396   6400     1  180.0000771  5.6484000  1
   6390   6412   6396   6400     1  180.0000771  3.5564000  2
   6390   6412   6396   6400     1  0.0000000  0.4184000  3
   6391   6390   6404   6410     1  0.0000000  0.6508444  3
   6391   6390   6412   6396     1  180.0000771  0.4184000  2
   6391   6390   6412   6396     1  0.0000000  1.6024720  3
   6391   6394   6395   6396     1  180.0000771  0.8368000  1
   6391   6394   6395   6396     1  180.0000771  1.0460000  2
   6391   6394   6395   6396     1  0.0000000  0.7531200  3
   6391   6394   6395   6401     1  0.0000000  0.6508444  3
   6394   6391   6390   6404     1  180.0000771  0.8368000  1
   6394   6391   6390   6404     1  180.0000771  1.0460000  2
   6394   6391   6390   6404     1  0.0000000  0.7531200  3
   6394   6391   6390   6412     1  0.0000000  0.6508444  3
   6394   6395   6396   6400     1  0.0000000  0.6508444  3
   6394   6395   6396   6412     1  0.0000000  0.6508444  3
   6395   6394   6391   6403     1  0.0000000  0.6508444  3
   6396   6395   6394   6402     1  0.0000000  0.6508444  3
   6396   6412   6390   6404     1  180.0000771  0.4184000  2
   6396   6412   6390   6404     1  0.0000000  1.6024720  3
   6400   6396   6395   6401     1  0.0000000  4.9162000  2
   6400   6396   6395   6401     1  0.0000000  0.6024960  3
   6401   6395   6394   6402     1  0.0000000  4.9162000  2
   6401   6395   6394   6402     1  0.0000000  0.6024960  3
   6401   6395   6396   6412     1  0.0000000  4.9162000  2
   6401   6395   6396   6412     1  0.0000000  0.6024960  3
   6402   6394   6391   6403     1  0.0000000  4.9162000  2
   6402   6394   6391   6403     1  0.0000000  0.6024960  3
   6403   6391   6390   6404     1  0.0000000  0.6508444  3
   6403   6391   6390   6412     1  0.0000000  4.9162000  2
   6403   6391   6390   6412     1  0.0000000  0.6024960  3
   6410   6404   6390   6412     1  0.0000000  4.9162000  2
   6410   6404   6390   6412     1  0.0000000  0.6024960  3
   6413   6414   6417   6418     1  180.0000771  0.8368000  1
   6413   6414   6417   6418     1  180.0000771  1.0460000  2
   6413   6414   6417   6418     1  0.0000000  0.7531200  3
   6413   6414   6417   6425     1  0.0000000  0.6508444  3
   6413   6435   6419   6423     1  180.0000771  5.6484000  1
   6413   6435   6419   6423     1  180.0000771  3.5564000  2
   6413   6435   6419   6423     1  0.0000000  0.4184000  3
   6413   6435   6419   6418     1  180.0000771  0.4184000  2
   6413   6435   6419   6418     1  0.0000000  1.6024720  3
   6414   6417   6418   6419     1  180.0000771  0.8368000  1
   6414   6417   6418   6419     1  180.0000771  1.0460000  2
   6414   6417   6418   6419     1  0.0000000  0.7531200  3
   6414   6417   6418   6424     1  0.0000000  0.6508444  3
   6414   6413   6427   6433     1  0.0000000  0.6508444  3
   6414   6413   6435   6419     1  180.0000771  0.4184000  2
   6414   6413   6435   6419     1  0.0000000  1.6024720  3
   6417   6418   6419   6423     1  0.0000000  0.6508444  3
   6417   6418   6419   6435     1  0.0000000  0.6508444  3
   6417   6414   6413   6427     1  180.0000771  0.8368000  1
   6417   6414   6413   6427     1  180.0000771  1.0460000  2
   6417   6414   6413   6427     1  0.0000000  0.7531200  3
   6417   6414   6413   6435     1  0.0000000  0.6508444  3
   6418   6417   6414   6426     1  0.0000000  0.6508444  3
   6419   6435   6413   6427     1  180.0000771  0.4184000  2
   6419   6435   6413   6427     1  0.0000000  1.6024720  3
   6419   6418   6417   6425     1  0.0000000  0.6508444  3
   6423   6419   6418   6424     1  0.0000000  4.9162000  2
   6423   6419   6418   6424     1  0.0000000  0.6024960  3
   6424   6418   6419   6435     1  0.0000000  4.9162000  2
   6424   6418   6419   6435     1  0.0000000  0.6024960  3
   6424   6418   6417   6425     1  0.0000000  4.9162000  2
   6424   6418   6417   6425     1  0.0000000  0.6024960  3
   6425   6417   6414   6426     1  0.0000000  4.9162000  2
   6425   6417   6414   6426     1  0.0000000  0.6024960  3
   6426   6414   6413   6427     1  0.0000000  0.6508444  3
   6426   6414   6413   6435     1  0.0000000  4.9162000  2
   6426   6414   6413   6435     1  0.0000000  0.6024960  3
   6433   6427   6413   6435     1  0.0000000  4.9162000  2
   6433   6427   6413   6435     1  0.0000000  0.6024960  3
   6436   6437   6440   6441     1  180.0000771  0.8368000  1
   6436   6437   6440   6441     1  180.0000771  1.0460000  2
   6436   6437   6440   6441     1  0.0000000  0.7531200  3
   6436   6437   6440   6448     1  0.0000000  0.6508444  3
   6436   6458   6442   6441     1  180.0000771  0.4184000  2
   6436   6458   6442   6441     1  0.0000000  1.6024720  3
   6436   6458   6442   6446     1  180.0000771  5.6484000  1
   6436   6458   6442   6446     1  180.0000771  3.5564000  2
   6436   6458   6442   6446     1  0.0000000  0.4184000  3
   6437   6436   6450   6456     1  0.0000000  0.6508444  3
   6437   6436   6458   6442     1  180.0000771  0.4184000  2
   6437   6436   6458   6442     1  0.0000000  1.6024720  3
   6437   6440   6441   6442     1  180.0000771  0.8368000  1
   6437   6440   6441   6442     1  180.0000771  1.0460000  2
   6437   6440   6441   6442     1  0.0000000  0.7531200  3
   6437   6440   6441   6447     1  0.0000000  0.6508444  3
   6440   6437   6436   6450     1  180.0000771  0.8368000  1
   6440   6437   6436   6450     1  180.0000771  1.0460000  2
   6440   6437   6436   6450     1  0.0000000  0.7531200  3
   6440   6437   6436   6458     1  0.0000000  0.6508444  3
   6440   6441   6442   6446     1  0.0000000  0.6508444  3
   6440   6441   6442   6458     1  0.0000000  0.6508444  3
   6441   6440   6437   6449     1  0.0000000  0.6508444  3
   6442   6441   6440   6448     1  0.0000000  0.6508444  3
   6442   6458   6436   6450     1  180.0000771  0.4184000  2
   6442   6458   6436   6450     1  0.0000000  1.6024720  3
   6446   6442   6441   6447     1  0.0000000  4.9162000  2
   6446   6442   6441   6447     1  0.0000000  0.6024960  3
   6447   6441   6440   6448     1  0.0000000  4.9162000  2
   6447   6441   6440   6448     1  0.0000000  0.6024960  3
   6447   6441   6442   6458     1  0.0000000  4.9162000  2
   6447   6441   6442   6458     1  0.0000000  0.6024960  3
   6448   6440   6437   6449     1  0.0000000  4.9162000  2
   6448   6440   6437   6449     1  0.0000000  0.6024960  3
   6449   6437   6436   6450     1  0.0000000  0.6508444  3
   6449   6437   6436   6458     1  0.0000000  4.9162000  2
   6449   6437   6436   6458     1  0.0000000  0.6024960  3
   6456   6450   6436   6458     1  0.0000000  4.9162000  2
   6456   6450   6436   6458     1  0.0000000  0.6024960  3
   6459   6460   6463   6464     1  180.0000771  0.8368000  1
   6459   6460   6463   6464     1  180.0000771  1.0460000  2
   6459   6460   6463   6464     1  0.0000000  0.7531200  3
   6459   6460   6463   6471     1  0.0000000  0.6508444  3
   6459   6481   6465   6469     1  180.0000771  5.6484000  1
   6459   6481   6465   6469     1  180.0000771  3.5564000  2
   6459   6481   6465   6469     1  0.0000000  0.4184000  3
   6459   6481   6465   6464     1  180.0000771  0.4184000  2
   6459   6481   6465   6464     1  0.0000000  1.6024720  3
   6460   6463   6464   6465     1  180.0000771  0.8368000  1
   6460   6463   6464   6465     1  180.0000771  1.0460000  2
   6460   6463   6464   6465     1  0.0000000  0.7531200  3
   6460   6463   6464   6470     1  0.0000000  0.6508444  3
   6460   6459   6473   6479     1  0.0000000  0.6508444  3
   6460   6459   6481   6465     1  180.0000771  0.4184000  2
   6460   6459   6481   6465     1  0.0000000  1.6024720  3
   6463   6464   6465   6469     1  0.0000000  0.6508444  3
   6463   6464   6465   6481     1  0.0000000  0.6508444  3
   6463   6460   6459   6473     1  180.0000771  0.8368000  1
   6463   6460   6459   6473     1  180.0000771  1.0460000  2
   6463   6460   6459   6473     1  0.0000000  0.7531200  3
   6463   6460   6459   6481     1  0.0000000  0.6508444  3
   6464   6463   6460   6472     1  0.0000000  0.6508444  3
   6465   6481   6459   6473     1  180.0000771  0.4184000  2
   6465   6481   6459   6473     1  0.0000000  1.6024720  3
   6465   6464   6463   6471     1  0.0000000  0.6508444  3
   6469   6465   6464   6470     1  0.0000000  4.9162000  2
   6469   6465   6464   6470     1  0.0000000  0.6024960  3
   6470   6464   6465   6481     1  0.0000000  4.9162000  2
   6470   6464   6465   6481     1  0.0000000  0.6024960  3
   6470   6464   6463   6471     1  0.0000000  4.9162000  2
   6470   6464   6463   6471     1  0.0000000  0.6024960  3
   6471   6463   6460   6472     1  0.0000000  4.9162000  2
   6471   6463   6460   6472     1  0.0000000  0.6024960  3
   6472   6460   6459   6473     1  0.0000000  0.6508444  3
   6472   6460   6459   6481     1  0.0000000  4.9162000  2
   6472   6460   6459   6481     1  0.0000000  0.6024960  3
   6479   6473   6459   6481     1  0.0000000  4.9162000  2
   6479   6473   6459   6481     1  0.0000000  0.6024960  3
   6482   6483   6486   6487     1  180.0000771  0.8368000  1
   6482   6483   6486   6487     1  180.0000771  1.0460000  2
   6482   6483   6486   6487     1  0.0000000  0.7531200  3
   6482   6483   6486   6494     1  0.0000000  0.6508444  3
   6482   6504   6488   6487     1  180.0000771  0.4184000  2
   6482   6504   6488   6487     1  0.0000000  1.6024720  3
   6482   6504   6488   6492     1  180.0000771  5.6484000  1
   6482   6504   6488   6492     1  180.0000771  3.5564000  2
   6482   6504   6488   6492     1  0.0000000  0.4184000  3
   6483   6482   6496   6502     1  0.0000000  0.6508444  3
   6483   6482   6504   6488     1  180.0000771  0.4184000  2
   6483   6482   6504   6488     1  0.0000000  1.6024720  3
   6483   6486   6487   6488     1  180.0000771  0.8368000  1
   6483   6486   6487   6488     1  180.0000771  1.0460000  2
   6483   6486   6487   6488     1  0.0000000  0.7531200  3
   6483   6486   6487   6493     1  0.0000000  0.6508444  3
   6486   6483   6482   6496     1  180.0000771  0.8368000  1
   6486   6483   6482   6496     1  180.0000771  1.0460000  2
   6486   6483   6482   6496     1  0.0000000  0.7531200  3
   6486   6483   6482   6504     1  0.0000000  0.6508444  3
   6486   6487   6488   6492     1  0.0000000  0.6508444  3
   6486   6487   6488   6504     1  0.0000000  0.6508444  3
   6487   6486   6483   6495     1  0.0000000  0.6508444  3
   6488   6487   6486   6494     1  0.0000000  0.6508444  3
   6488   6504   6482   6496     1  180.0000771  0.4184000  2
   6488   6504   6482   6496     1  0.0000000  1.6024720  3
   6492   6488   6487   6493     1  0.0000000  4.9162000  2
   6492   6488   6487   6493     1  0.0000000  0.6024960  3
   6493   6487   6486   6494     1  0.0000000  4.9162000  2
   6493   6487   6486   6494     1  0.0000000  0.6024960  3
   6493   6487   6488   6504     1  0.0000000  4.9162000  2
   6493   6487   6488   6504     1  0.0000000  0.6024960  3
   6494   6486   6483   6495     1  0.0000000  4.9162000  2
   6494   6486   6483   6495     1  0.0000000  0.6024960  3
   6495   6483   6482   6496     1  0.0000000  0.6508444  3
   6495   6483   6482   6504     1  0.0000000  4.9162000  2
   6495   6483   6482   6504     1  0.0000000  0.6024960  3
   6502   6496   6482   6504     1  0.0000000  4.9162000  2
   6502   6496   6482   6504     1  0.0000000  0.6024960  3
   6505   6506   6509   6510     1  180.0000771  0.8368000  1
   6505   6506   6509   6510     1  180.0000771  1.0460000  2
   6505   6506   6509   6510     1  0.0000000  0.7531200  3
   6505   6506   6509   6517     1  0.0000000  0.6508444  3
   6505   6527   6511   6515     1  180.0000771  5.6484000  1
   6505   6527   6511   6515     1  180.0000771  3.5564000  2
   6505   6527   6511   6515     1  0.0000000  0.4184000  3
   6505   6527   6511   6510     1  180.0000771  0.4184000  2
   6505   6527   6511   6510     1  0.0000000  1.6024720  3
   6506   6509   6510   6511     1  180.0000771  0.8368000  1
   6506   6509   6510   6511     1  180.0000771  1.0460000  2
   6506   6509   6510   6511     1  0.0000000  0.7531200  3
   6506   6509   6510   6516     1  0.0000000  0.6508444  3
   6506   6505   6519   6525     1  0.0000000  0.6508444  3
   6506   6505   6527   6511     1  180.0000771  0.4184000  2
   6506   6505   6527   6511     1  0.0000000  1.6024720  3
   6509   6510   6511   6515     1  0.0000000  0.6508444  3
   6509   6510   6511   6527     1  0.0000000  0.6508444  3
   6509   6506   6505   6519     1  180.0000771  0.8368000  1
   6509   6506   6505   6519     1  180.0000771  1.0460000  2
   6509   6506   6505   6519     1  0.0000000  0.7531200  3
   6509   6506   6505   6527     1  0.0000000  0.6508444  3
   6510   6509   6506   6518     1  0.0000000  0.6508444  3
   6511   6527   6505   6519     1  180.0000771  0.4184000  2
   6511   6527   6505   6519     1  0.0000000  1.6024720  3
   6511   6510   6509   6517     1  0.0000000  0.6508444  3
   6515   6511   6510   6516     1  0.0000000  4.9162000  2
   6515   6511   6510   6516     1  0.0000000  0.6024960  3
   6516   6510   6511   6527     1  0.0000000  4.9162000  2
   6516   6510   6511   6527     1  0.0000000  0.6024960  3
   6516   6510   6509   6517     1  0.0000000  4.9162000  2
   6516   6510   6509   6517     1  0.0000000  0.6024960  3
   6517   6509   6506   6518     1  0.0000000  4.9162000  2
   6517   6509   6506   6518     1  0.0000000  0.6024960  3
   6518   6506   6505   6519     1  0.0000000  0.6508444  3
   6518   6506   6505   6527     1  0.0000000  4.9162000  2
   6518   6506   6505   6527     1  0.0000000  0.6024960  3
   6525   6519   6505   6527     1  0.0000000  4.9162000  2
   6525   6519   6505   6527     1  0.0000000  0.6024960  3
   6528   6529   6532   6533     1  180.0000771  0.8368000  1
   6528   6529   6532   6533     1  180.0000771  1.0460000  2
   6528   6529   6532   6533     1  0.0000000  0.7531200  3
   6528   6529   6532   6540     1  0.0000000  0.6508444  3
   6528   6550   6534   6533     1  180.0000771  0.4184000  2
   6528   6550   6534   6533     1  0.0000000  1.6024720  3
   6528   6550   6534   6538     1  180.0000771  5.6484000  1
   6528   6550   6534   6538     1  180.0000771  3.5564000  2
   6528   6550   6534   6538     1  0.0000000  0.4184000  3
   6529   6528   6542   6548     1  0.0000000  0.6508444  3
   6529   6528   6550   6534     1  180.0000771  0.4184000  2
   6529   6528   6550   6534     1  0.0000000  1.6024720  3
   6529   6532   6533   6534     1  180.0000771  0.8368000  1
   6529   6532   6533   6534     1  180.0000771  1.0460000  2
   6529   6532   6533   6534     1  0.0000000  0.7531200  3
   6529   6532   6533   6539     1  0.0000000  0.6508444  3
   6532   6529   6528   6542     1  180.0000771  0.8368000  1
   6532   6529   6528   6542     1  180.0000771  1.0460000  2
   6532   6529   6528   6542     1  0.0000000  0.7531200  3
   6532   6529   6528   6550     1  0.0000000  0.6508444  3
   6532   6533   6534   6538     1  0.0000000  0.6508444  3
   6532   6533   6534   6550     1  0.0000000  0.6508444  3
   6533   6532   6529   6541     1  0.0000000  0.6508444  3
   6534   6533   6532   6540     1  0.0000000  0.6508444  3
   6534   6550   6528   6542     1  180.0000771  0.4184000  2
   6534   6550   6528   6542     1  0.0000000  1.6024720  3
   6538   6534   6533   6539     1  0.0000000  4.9162000  2
   6538   6534   6533   6539     1  0.0000000  0.6024960  3
   6539   6533   6532   6540     1  0.0000000  4.9162000  2
   6539   6533   6532   6540     1  0.0000000  0.6024960  3
   6539   6533   6534   6550     1  0.0000000  4.9162000  2
   6539   6533   6534   6550     1  0.0000000  0.6024960  3
   6540   6532   6529   6541     1  0.0000000  4.9162000  2
   6540   6532   6529   6541     1  0.0000000  0.6024960  3
   6541   6529   6528   6542     1  0.0000000  0.6508444  3
   6541   6529   6528   6550     1  0.0000000  4.9162000  2
   6541   6529   6528   6550     1  0.0000000  0.6024960  3
   6548   6542   6528   6550     1  0.0000000  4.9162000  2
   6548   6542   6528   6550     1  0.0000000  0.6024960  3
   6551   6552   6555   6556     1  180.0000771  0.8368000  1
   6551   6552   6555   6556     1  180.0000771  1.0460000  2
   6551   6552   6555   6556     1  0.0000000  0.7531200  3
   6551   6552   6555   6563     1  0.0000000  0.6508444  3
   6551   6573   6557   6561     1  180.0000771  5.6484000  1
   6551   6573   6557   6561     1  180.0000771  3.5564000  2
   6551   6573   6557   6561     1  0.0000000  0.4184000  3
   6551   6573   6557   6556     1  180.0000771  0.4184000  2
   6551   6573   6557   6556     1  0.0000000  1.6024720  3
   6552   6555   6556   6557     1  180.0000771  0.8368000  1
   6552   6555   6556   6557     1  180.0000771  1.0460000  2
   6552   6555   6556   6557     1  0.0000000  0.7531200  3
   6552   6555   6556   6562     1  0.0000000  0.6508444  3
   6552   6551   6565   6571     1  0.0000000  0.6508444  3
   6552   6551   6573   6557     1  180.0000771  0.4184000  2
   6552   6551   6573   6557     1  0.0000000  1.6024720  3
   6555   6556   6557   6561     1  0.0000000  0.6508444  3
   6555   6556   6557   6573     1  0.0000000  0.6508444  3
   6555   6552   6551   6565     1  180.0000771  0.8368000  1
   6555   6552   6551   6565     1  180.0000771  1.0460000  2
   6555   6552   6551   6565     1  0.0000000  0.7531200  3
   6555   6552   6551   6573     1  0.0000000  0.6508444  3
   6556   6555   6552   6564     1  0.0000000  0.6508444  3
   6557   6573   6551   6565     1  180.0000771  0.4184000  2
   6557   6573   6551   6565     1  0.0000000  1.6024720  3
   6557   6556   6555   6563     1  0.0000000  0.6508444  3
   6561   6557   6556   6562     1  0.0000000  4.9162000  2
   6561   6557   6556   6562     1  0.0000000  0.6024960  3
   6562   6556   6557   6573     1  0.0000000  4.9162000  2
   6562   6556   6557   6573     1  0.0000000  0.6024960  3
   6562   6556   6555   6563     1  0.0000000  4.9162000  2
   6562   6556   6555   6563     1  0.0000000  0.6024960  3
   6563   6555   6552   6564     1  0.0000000  4.9162000  2
   6563   6555   6552   6564     1  0.0000000  0.6024960  3
   6564   6552   6551   6565     1  0.0000000  0.6508444  3
   6564   6552   6551   6573     1  0.0000000  4.9162000  2
   6564   6552   6551   6573     1  0.0000000  0.6024960  3
   6571   6565   6551   6573     1  0.0000000  4.9162000  2
   6571   6565   6551   6573     1  0.0000000  0.6024960  3
   6574   6575   6578   6579     1  180.0000771  0.8368000  1
   6574   6575   6578   6579     1  180.0000771  1.0460000  2
   6574   6575   6578   6579     1  0.0000000  0.7531200  3
   6574   6575   6578   6586     1  0.0000000  0.6508444  3
   6574   6596   6580   6579     1  180.0000771  0.4184000  2
   6574   6596   6580   6579     1  0.0000000  1.6024720  3
   6574   6596   6580   6584     1  180.0000771  5.6484000  1
   6574   6596   6580   6584     1  180.0000771  3.5564000  2
   6574   6596   6580   6584     1  0.0000000  0.4184000  3
   6575   6574   6588   6594     1  0.0000000  0.6508444  3
   6575   6574   6596   6580     1  180.0000771  0.4184000  2
   6575   6574   6596   6580     1  0.0000000  1.6024720  3
   6575   6578   6579   6580     1  180.0000771  0.8368000  1
   6575   6578   6579   6580     1  180.0000771  1.0460000  2
   6575   6578   6579   6580     1  0.0000000  0.7531200  3
   6575   6578   6579   6585     1  0.0000000  0.6508444  3
   6578   6575   6574   6588     1  180.0000771  0.8368000  1
   6578   6575   6574   6588     1  180.0000771  1.0460000  2
   6578   6575   6574   6588     1  0.0000000  0.7531200  3
   6578   6575   6574   6596     1  0.0000000  0.6508444  3
   6578   6579   6580   6584     1  0.0000000  0.6508444  3
   6578   6579   6580   6596     1  0.0000000  0.6508444  3
   6579   6578   6575   6587     1  0.0000000  0.6508444  3
   6580   6579   6578   6586     1  0.0000000  0.6508444  3
   6580   6596   6574   6588     1  180.0000771  0.4184000  2
   6580   6596   6574   6588     1  0.0000000  1.6024720  3
   6584   6580   6579   6585     1  0.0000000  4.9162000  2
   6584   6580   6579   6585     1  0.0000000  0.6024960  3
   6585   6579   6578   6586     1  0.0000000  4.9162000  2
   6585   6579   6578   6586     1  0.0000000  0.6024960  3
   6585   6579   6580   6596     1  0.0000000  4.9162000  2
   6585   6579   6580   6596     1  0.0000000  0.6024960  3
   6586   6578   6575   6587     1  0.0000000  4.9162000  2
   6586   6578   6575   6587     1  0.0000000  0.6024960  3
   6587   6575   6574   6588     1  0.0000000  0.6508444  3
   6587   6575   6574   6596     1  0.0000000  4.9162000  2
   6587   6575   6574   6596     1  0.0000000  0.6024960  3
   6594   6588   6574   6596     1  0.0000000  4.9162000  2
   6594   6588   6574   6596     1  0.0000000  0.6024960  3
   6597   6598   6601   6602     1  180.0000771  0.8368000  1
   6597   6598   6601   6602     1  180.0000771  1.0460000  2
   6597   6598   6601   6602     1  0.0000000  0.7531200  3
   6597   6598   6601   6609     1  0.0000000  0.6508444  3
   6597   6619   6603   6607     1  180.0000771  5.6484000  1
   6597   6619   6603   6607     1  180.0000771  3.5564000  2
   6597   6619   6603   6607     1  0.0000000  0.4184000  3
   6597   6619   6603   6602     1  180.0000771  0.4184000  2
   6597   6619   6603   6602     1  0.0000000  1.6024720  3
   6598   6601   6602   6603     1  180.0000771  0.8368000  1
   6598   6601   6602   6603     1  180.0000771  1.0460000  2
   6598   6601   6602   6603     1  0.0000000  0.7531200  3
   6598   6601   6602   6608     1  0.0000000  0.6508444  3
   6598   6597   6611   6617     1  0.0000000  0.6508444  3
   6598   6597   6619   6603     1  180.0000771  0.4184000  2
   6598   6597   6619   6603     1  0.0000000  1.6024720  3
   6601   6602   6603   6607     1  0.0000000  0.6508444  3
   6601   6602   6603   6619     1  0.0000000  0.6508444  3
   6601   6598   6597   6611     1  180.0000771  0.8368000  1
   6601   6598   6597   6611     1  180.0000771  1.0460000  2
   6601   6598   6597   6611     1  0.0000000  0.7531200  3
   6601   6598   6597   6619     1  0.0000000  0.6508444  3
   6602   6601   6598   6610     1  0.0000000  0.6508444  3
   6603   6619   6597   6611     1  180.0000771  0.4184000  2
   6603   6619   6597   6611     1  0.0000000  1.6024720  3
   6603   6602   6601   6609     1  0.0000000  0.6508444  3
   6607   6603   6602   6608     1  0.0000000  4.9162000  2
   6607   6603   6602   6608     1  0.0000000  0.6024960  3
   6608   6602   6603   6619     1  0.0000000  4.9162000  2
   6608   6602   6603   6619     1  0.0000000  0.6024960  3
   6608   6602   6601   6609     1  0.0000000  4.9162000  2
   6608   6602   6601   6609     1  0.0000000  0.6024960  3
   6609   6601   6598   6610     1  0.0000000  4.9162000  2
   6609   6601   6598   6610     1  0.0000000  0.6024960  3
   6610   6598   6597   6611     1  0.0000000  0.6508444  3
   6610   6598   6597   6619     1  0.0000000  4.9162000  2
   6610   6598   6597   6619     1  0.0000000  0.6024960  3
   6617   6611   6597   6619     1  0.0000000  4.9162000  2
   6617   6611   6597   6619     1  0.0000000  0.6024960  3
   6620   6621   6624   6625     1  180.0000771  0.8368000  1
   6620   6621   6624   6625     1  180.0000771  1.0460000  2
   6620   6621   6624   6625     1  0.0000000  0.7531200  3
   6620   6621   6624   6632     1  0.0000000  0.6508444  3
   6620   6642   6626   6625     1  180.0000771  0.4184000  2
   6620   6642   6626   6625     1  0.0000000  1.6024720  3
   6620   6642   6626   6630     1  180.0000771  5.6484000  1
   6620   6642   6626   6630     1  180.0000771  3.5564000  2
   6620   6642   6626   6630     1  0.0000000  0.4184000  3
   6621   6620   6634   6640     1  0.0000000  0.6508444  3
   6621   6620   6642   6626     1  180.0000771  0.4184000  2
   6621   6620   6642   6626     1  0.0000000  1.6024720  3
   6621   6624   6625   6626     1  180.0000771  0.8368000  1
   6621   6624   6625   6626     1  180.0000771  1.0460000  2
   6621   6624   6625   6626     1  0.0000000  0.7531200  3
   6621   6624   6625   6631     1  0.0000000  0.6508444  3
   6624   6621   6620   6634     1  180.0000771  0.8368000  1
   6624   6621   6620   6634     1  180.0000771  1.0460000  2
   6624   6621   6620   6634     1  0.0000000  0.7531200  3
   6624   6621   6620   6642     1  0.0000000  0.6508444  3
   6624   6625   6626   6630     1  0.0000000  0.6508444  3
   6624   6625   6626   6642     1  0.0000000  0.6508444  3
   6625   6624   6621   6633     1  0.0000000  0.6508444  3
   6626   6625   6624   6632     1  0.0000000  0.6508444  3
   6626   6642   6620   6634     1  180.0000771  0.4184000  2
   6626   6642   6620   6634     1  0.0000000  1.6024720  3
   6630   6626   6625   6631     1  0.0000000  4.9162000  2
   6630   6626   6625   6631     1  0.0000000  0.6024960  3
   6631   6625   6624   6632     1  0.0000000  4.9162000  2
   6631   6625   6624   6632     1  0.0000000  0.6024960  3
   6631   6625   6626   6642     1  0.0000000  4.9162000  2
   6631   6625   6626   6642     1  0.0000000  0.6024960  3
   6632   6624   6621   6633     1  0.0000000  4.9162000  2
   6632   6624   6621   6633     1  0.0000000  0.6024960  3
   6633   6621   6620   6634     1  0.0000000  0.6508444  3
   6633   6621   6620   6642     1  0.0000000  4.9162000  2
   6633   6621   6620   6642     1  0.0000000  0.6024960  3
   6640   6634   6620   6642     1  0.0000000  4.9162000  2
   6640   6634   6620   6642     1  0.0000000  0.6024960  3
   6643   6644   6647   6648     1  180.0000771  0.8368000  1
   6643   6644   6647   6648     1  180.0000771  1.0460000  2
   6643   6644   6647   6648     1  0.0000000  0.7531200  3
   6643   6644   6647   6655     1  0.0000000  0.6508444  3
   6643   6665   6649   6653     1  180.0000771  5.6484000  1
   6643   6665   6649   6653     1  180.0000771  3.5564000  2
   6643   6665   6649   6653     1  0.0000000  0.4184000  3
   6643   6665   6649   6648     1  180.0000771  0.4184000  2
   6643   6665   6649   6648     1  0.0000000  1.6024720  3
   6644   6647   6648   6649     1  180.0000771  0.8368000  1
   6644   6647   6648   6649     1  180.0000771  1.0460000  2
   6644   6647   6648   6649     1  0.0000000  0.7531200  3
   6644   6647   6648   6654     1  0.0000000  0.6508444  3
   6644   6643   6657   6663     1  0.0000000  0.6508444  3
   6644   6643   6665   6649     1  180.0000771  0.4184000  2
   6644   6643   6665   6649     1  0.0000000  1.6024720  3
   6647   6648   6649   6653     1  0.0000000  0.6508444  3
   6647   6648   6649   6665     1  0.0000000  0.6508444  3
   6647   6644   6643   6657     1  180.0000771  0.8368000  1
   6647   6644   6643   6657     1  180.0000771  1.0460000  2
   6647   6644   6643   6657     1  0.0000000  0.7531200  3
   6647   6644   6643   6665     1  0.0000000  0.6508444  3
   6648   6647   6644   6656     1  0.0000000  0.6508444  3
   6649   6665   6643   6657     1  180.0000771  0.4184000  2
   6649   6665   6643   6657     1  0.0000000  1.6024720  3
   6649   6648   6647   6655     1  0.0000000  0.6508444  3
   6653   6649   6648   6654     1  0.0000000  4.9162000  2
   6653   6649   6648   6654     1  0.0000000  0.6024960  3
   6654   6648   6649   6665     1  0.0000000  4.9162000  2
   6654   6648   6649   6665     1  0.0000000  0.6024960  3
   6654   6648   6647   6655     1  0.0000000  4.9162000  2
   6654   6648   6647   6655     1  0.0000000  0.6024960  3
   6655   6647   6644   6656     1  0.0000000  4.9162000  2
   6655   6647   6644   6656     1  0.0000000  0.6024960  3
   6656   6644   6643   6657     1  0.0000000  0.6508444  3
   6656   6644   6643   6665     1  0.0000000  4.9162000  2
   6656   6644   6643   6665     1  0.0000000  0.6024960  3
   6663   6657   6643   6665     1  0.0000000  4.9162000  2
   6663   6657   6643   6665     1  0.0000000  0.6024960  3
   6666   6667   6670   6671     1  180.0000771  0.8368000  1
   6666   6667   6670   6671     1  180.0000771  1.0460000  2
   6666   6667   6670   6671     1  0.0000000  0.7531200  3
   6666   6667   6670   6678     1  0.0000000  0.6508444  3
   6666   6688   6672   6671     1  180.0000771  0.4184000  2
   6666   6688   6672   6671     1  0.0000000  1.6024720  3
   6666   6688   6672   6676     1  180.0000771  5.6484000  1
   6666   6688   6672   6676     1  180.0000771  3.5564000  2
   6666   6688   6672   6676     1  0.0000000  0.4184000  3
   6667   6666   6680   6686     1  0.0000000  0.6508444  3
   6667   6666   6688   6672     1  180.0000771  0.4184000  2
   6667   6666   6688   6672     1  0.0000000  1.6024720  3
   6667   6670   6671   6672     1  180.0000771  0.8368000  1
   6667   6670   6671   6672     1  180.0000771  1.0460000  2
   6667   6670   6671   6672     1  0.0000000  0.7531200  3
   6667   6670   6671   6677     1  0.0000000  0.6508444  3
   6670   6667   6666   6680     1  180.0000771  0.8368000  1
   6670   6667   6666   6680     1  180.0000771  1.0460000  2
   6670   6667   6666   6680     1  0.0000000  0.7531200  3
   6670   6667   6666   6688     1  0.0000000  0.6508444  3
   6670   6671   6672   6676     1  0.0000000  0.6508444  3
   6670   6671   6672   6688     1  0.0000000  0.6508444  3
   6671   6670   6667   6679     1  0.0000000  0.6508444  3
   6672   6671   6670   6678     1  0.0000000  0.6508444  3
   6672   6688   6666   6680     1  180.0000771  0.4184000  2
   6672   6688   6666   6680     1  0.0000000  1.6024720  3
   6676   6672   6671   6677     1  0.0000000  4.9162000  2
   6676   6672   6671   6677     1  0.0000000  0.6024960  3
   6677   6671   6670   6678     1  0.0000000  4.9162000  2
   6677   6671   6670   6678     1  0.0000000  0.6024960  3
   6677   6671   6672   6688     1  0.0000000  4.9162000  2
   6677   6671   6672   6688     1  0.0000000  0.6024960  3
   6678   6670   6667   6679     1  0.0000000  4.9162000  2
   6678   6670   6667   6679     1  0.0000000  0.6024960  3
   6679   6667   6666   6680     1  0.0000000  0.6508444  3
   6679   6667   6666   6688     1  0.0000000  4.9162000  2
   6679   6667   6666   6688     1  0.0000000  0.6024960  3
   6686   6680   6666   6688     1  0.0000000  4.9162000  2
   6686   6680   6666   6688     1  0.0000000  0.6024960  3
   6689   6690   6693   6694     1  180.0000771  0.8368000  1
   6689   6690   6693   6694     1  180.0000771  1.0460000  2
   6689   6690   6693   6694     1  0.0000000  0.7531200  3
   6689   6690   6693   6701     1  0.0000000  0.6508444  3
   6689   6711   6695   6699     1  180.0000771  5.6484000  1
   6689   6711   6695   6699     1  180.0000771  3.5564000  2
   6689   6711   6695   6699     1  0.0000000  0.4184000  3
   6689   6711   6695   6694     1  180.0000771  0.4184000  2
   6689   6711   6695   6694     1  0.0000000  1.6024720  3
   6690   6693   6694   6695     1  180.0000771  0.8368000  1
   6690   6693   6694   6695     1  180.0000771  1.0460000  2
   6690   6693   6694   6695     1  0.0000000  0.7531200  3
   6690   6693   6694   6700     1  0.0000000  0.6508444  3
   6690   6689   6703   6709     1  0.0000000  0.6508444  3
   6690   6689   6711   6695     1  180.0000771  0.4184000  2
   6690   6689   6711   6695     1  0.0000000  1.6024720  3
   6693   6694   6695   6699     1  0.0000000  0.6508444  3
   6693   6694   6695   6711     1  0.0000000  0.6508444  3
   6693   6690   6689   6703     1  180.0000771  0.8368000  1
   6693   6690   6689   6703     1  180.0000771  1.0460000  2
   6693   6690   6689   6703     1  0.0000000  0.7531200  3
   6693   6690   6689   6711     1  0.0000000  0.6508444  3
   6694   6693   6690   6702     1  0.0000000  0.6508444  3
   6695   6711   6689   6703     1  180.0000771  0.4184000  2
   6695   6711   6689   6703     1  0.0000000  1.6024720  3
   6695   6694   6693   6701     1  0.0000000  0.6508444  3
   6699   6695   6694   6700     1  0.0000000  4.9162000  2
   6699   6695   6694   6700     1  0.0000000  0.6024960  3
   6700   6694   6695   6711     1  0.0000000  4.9162000  2
   6700   6694   6695   6711     1  0.0000000  0.6024960  3
   6700   6694   6693   6701     1  0.0000000  4.9162000  2
   6700   6694   6693   6701     1  0.0000000  0.6024960  3
   6701   6693   6690   6702     1  0.0000000  4.9162000  2
   6701   6693   6690   6702     1  0.0000000  0.6024960  3
   6702   6690   6689   6703     1  0.0000000  0.6508444  3
   6702   6690   6689   6711     1  0.0000000  4.9162000  2
   6702   6690   6689   6711     1  0.0000000  0.6024960  3
   6709   6703   6689   6711     1  0.0000000  4.9162000  2
   6709   6703   6689   6711     1  0.0000000  0.6024960  3
   6712   6713   6716   6717     1  180.0000771  0.8368000  1
   6712   6713   6716   6717     1  180.0000771  1.0460000  2
   6712   6713   6716   6717     1  0.0000000  0.7531200  3
   6712   6713   6716   6724     1  0.0000000  0.6508444  3
   6712   6734   6718   6717     1  180.0000771  0.4184000  2
   6712   6734   6718   6717     1  0.0000000  1.6024720  3
   6712   6734   6718   6722     1  180.0000771  5.6484000  1
   6712   6734   6718   6722     1  180.0000771  3.5564000  2
   6712   6734   6718   6722     1  0.0000000  0.4184000  3
   6713   6712   6726   6732     1  0.0000000  0.6508444  3
   6713   6712   6734   6718     1  180.0000771  0.4184000  2
   6713   6712   6734   6718     1  0.0000000  1.6024720  3
   6713   6716   6717   6718     1  180.0000771  0.8368000  1
   6713   6716   6717   6718     1  180.0000771  1.0460000  2
   6713   6716   6717   6718     1  0.0000000  0.7531200  3
   6713   6716   6717   6723     1  0.0000000  0.6508444  3
   6716   6713   6712   6726     1  180.0000771  0.8368000  1
   6716   6713   6712   6726     1  180.0000771  1.0460000  2
   6716   6713   6712   6726     1  0.0000000  0.7531200  3
   6716   6713   6712   6734     1  0.0000000  0.6508444  3
   6716   6717   6718   6722     1  0.0000000  0.6508444  3
   6716   6717   6718   6734     1  0.0000000  0.6508444  3
   6717   6716   6713   6725     1  0.0000000  0.6508444  3
   6718   6717   6716   6724     1  0.0000000  0.6508444  3
   6718   6734   6712   6726     1  180.0000771  0.4184000  2
   6718   6734   6712   6726     1  0.0000000  1.6024720  3
   6722   6718   6717   6723     1  0.0000000  4.9162000  2
   6722   6718   6717   6723     1  0.0000000  0.6024960  3
   6723   6717   6716   6724     1  0.0000000  4.9162000  2
   6723   6717   6716   6724     1  0.0000000  0.6024960  3
   6723   6717   6718   6734     1  0.0000000  4.9162000  2
   6723   6717   6718   6734     1  0.0000000  0.6024960  3
   6724   6716   6713   6725     1  0.0000000  4.9162000  2
   6724   6716   6713   6725     1  0.0000000  0.6024960  3
   6725   6713   6712   6726     1  0.0000000  0.6508444  3
   6725   6713   6712   6734     1  0.0000000  4.9162000  2
   6725   6713   6712   6734     1  0.0000000  0.6024960  3
   6732   6726   6712   6734     1  0.0000000  4.9162000  2
   6732   6726   6712   6734     1  0.0000000  0.6024960  3
   6735   6736   6739   6740     1  180.0000771  0.8368000  1
   6735   6736   6739   6740     1  180.0000771  1.0460000  2
   6735   6736   6739   6740     1  0.0000000  0.7531200  3
   6735   6736   6739   6747     1  0.0000000  0.6508444  3
   6735   6757   6741   6745     1  180.0000771  5.6484000  1
   6735   6757   6741   6745     1  180.0000771  3.5564000  2
   6735   6757   6741   6745     1  0.0000000  0.4184000  3
   6735   6757   6741   6740     1  180.0000771  0.4184000  2
   6735   6757   6741   6740     1  0.0000000  1.6024720  3
   6736   6739   6740   6741     1  180.0000771  0.8368000  1
   6736   6739   6740   6741     1  180.0000771  1.0460000  2
   6736   6739   6740   6741     1  0.0000000  0.7531200  3
   6736   6739   6740   6746     1  0.0000000  0.6508444  3
   6736   6735   6749   6755     1  0.0000000  0.6508444  3
   6736   6735   6757   6741     1  180.0000771  0.4184000  2
   6736   6735   6757   6741     1  0.0000000  1.6024720  3
   6739   6740   6741   6745     1  0.0000000  0.6508444  3
   6739   6740   6741   6757     1  0.0000000  0.6508444  3
   6739   6736   6735   6749     1  180.0000771  0.8368000  1
   6739   6736   6735   6749     1  180.0000771  1.0460000  2
   6739   6736   6735   6749     1  0.0000000  0.7531200  3
   6739   6736   6735   6757     1  0.0000000  0.6508444  3
   6740   6739   6736   6748     1  0.0000000  0.6508444  3
   6741   6757   6735   6749     1  180.0000771  0.4184000  2
   6741   6757   6735   6749     1  0.0000000  1.6024720  3
   6741   6740   6739   6747     1  0.0000000  0.6508444  3
   6745   6741   6740   6746     1  0.0000000  4.9162000  2
   6745   6741   6740   6746     1  0.0000000  0.6024960  3
   6746   6740   6741   6757     1  0.0000000  4.9162000  2
   6746   6740   6741   6757     1  0.0000000  0.6024960  3
   6746   6740   6739   6747     1  0.0000000  4.9162000  2
   6746   6740   6739   6747     1  0.0000000  0.6024960  3
   6747   6739   6736   6748     1  0.0000000  4.9162000  2
   6747   6739   6736   6748     1  0.0000000  0.6024960  3
   6748   6736   6735   6749     1  0.0000000  0.6508444  3
   6748   6736   6735   6757     1  0.0000000  4.9162000  2
   6748   6736   6735   6757     1  0.0000000  0.6024960  3
   6755   6749   6735   6757     1  0.0000000  4.9162000  2
   6755   6749   6735   6757     1  0.0000000  0.6024960  3
   6758   6759   6762   6763     1  180.0000771  0.8368000  1
   6758   6759   6762   6763     1  180.0000771  1.0460000  2
   6758   6759   6762   6763     1  0.0000000  0.7531200  3
   6758   6759   6762   6770     1  0.0000000  0.6508444  3
   6758   6780   6764   6763     1  180.0000771  0.4184000  2
   6758   6780   6764   6763     1  0.0000000  1.6024720  3
   6758   6780   6764   6768     1  180.0000771  5.6484000  1
   6758   6780   6764   6768     1  180.0000771  3.5564000  2
   6758   6780   6764   6768     1  0.0000000  0.4184000  3
   6759   6758   6772   6778     1  0.0000000  0.6508444  3
   6759   6758   6780   6764     1  180.0000771  0.4184000  2
   6759   6758   6780   6764     1  0.0000000  1.6024720  3
   6759   6762   6763   6764     1  180.0000771  0.8368000  1
   6759   6762   6763   6764     1  180.0000771  1.0460000  2
   6759   6762   6763   6764     1  0.0000000  0.7531200  3
   6759   6762   6763   6769     1  0.0000000  0.6508444  3
   6762   6759   6758   6772     1  180.0000771  0.8368000  1
   6762   6759   6758   6772     1  180.0000771  1.0460000  2
   6762   6759   6758   6772     1  0.0000000  0.7531200  3
   6762   6759   6758   6780     1  0.0000000  0.6508444  3
   6762   6763   6764   6768     1  0.0000000  0.6508444  3
   6762   6763   6764   6780     1  0.0000000  0.6508444  3
   6763   6762   6759   6771     1  0.0000000  0.6508444  3
   6764   6763   6762   6770     1  0.0000000  0.6508444  3
   6764   6780   6758   6772     1  180.0000771  0.4184000  2
   6764   6780   6758   6772     1  0.0000000  1.6024720  3
   6768   6764   6763   6769     1  0.0000000  4.9162000  2
   6768   6764   6763   6769     1  0.0000000  0.6024960  3
   6769   6763   6762   6770     1  0.0000000  4.9162000  2
   6769   6763   6762   6770     1  0.0000000  0.6024960  3
   6769   6763   6764   6780     1  0.0000000  4.9162000  2
   6769   6763   6764   6780     1  0.0000000  0.6024960  3
   6770   6762   6759   6771     1  0.0000000  4.9162000  2
   6770   6762   6759   6771     1  0.0000000  0.6024960  3
   6771   6759   6758   6772     1  0.0000000  0.6508444  3
   6771   6759   6758   6780     1  0.0000000  4.9162000  2
   6771   6759   6758   6780     1  0.0000000  0.6024960  3
   6778   6772   6758   6780     1  0.0000000  4.9162000  2
   6778   6772   6758   6780     1  0.0000000  0.6024960  3
   6781   6782   6785   6786     1  180.0000771  0.8368000  1
   6781   6782   6785   6786     1  180.0000771  1.0460000  2
   6781   6782   6785   6786     1  0.0000000  0.7531200  3
   6781   6782   6785   6793     1  0.0000000  0.6508444  3
   6781   6803   6787   6791     1  180.0000771  5.6484000  1
   6781   6803   6787   6791     1  180.0000771  3.5564000  2
   6781   6803   6787   6791     1  0.0000000  0.4184000  3
   6781   6803   6787   6786     1  180.0000771  0.4184000  2
   6781   6803   6787   6786     1  0.0000000  1.6024720  3
   6782   6785   6786   6787     1  180.0000771  0.8368000  1
   6782   6785   6786   6787     1  180.0000771  1.0460000  2
   6782   6785   6786   6787     1  0.0000000  0.7531200  3
   6782   6785   6786   6792     1  0.0000000  0.6508444  3
   6782   6781   6795   6801     1  0.0000000  0.6508444  3
   6782   6781   6803   6787     1  180.0000771  0.4184000  2
   6782   6781   6803   6787     1  0.0000000  1.6024720  3
   6785   6786   6787   6791     1  0.0000000  0.6508444  3
   6785   6786   6787   6803     1  0.0000000  0.6508444  3
   6785   6782   6781   6795     1  180.0000771  0.8368000  1
   6785   6782   6781   6795     1  180.0000771  1.0460000  2
   6785   6782   6781   6795     1  0.0000000  0.7531200  3
   6785   6782   6781   6803     1  0.0000000  0.6508444  3
   6786   6785   6782   6794     1  0.0000000  0.6508444  3
   6787   6803   6781   6795     1  180.0000771  0.4184000  2
   6787   6803   6781   6795     1  0.0000000  1.6024720  3
   6787   6786   6785   6793     1  0.0000000  0.6508444  3
   6791   6787   6786   6792     1  0.0000000  4.9162000  2
   6791   6787   6786   6792     1  0.0000000  0.6024960  3
   6792   6786   6787   6803     1  0.0000000  4.9162000  2
   6792   6786   6787   6803     1  0.0000000  0.6024960  3
   6792   6786   6785   6793     1  0.0000000  4.9162000  2
   6792   6786   6785   6793     1  0.0000000  0.6024960  3
   6793   6785   6782   6794     1  0.0000000  4.9162000  2
   6793   6785   6782   6794     1  0.0000000  0.6024960  3
   6794   6782   6781   6795     1  0.0000000  0.6508444  3
   6794   6782   6781   6803     1  0.0000000  4.9162000  2
   6794   6782   6781   6803     1  0.0000000  0.6024960  3
   6801   6795   6781   6803     1  0.0000000  4.9162000  2
   6801   6795   6781   6803     1  0.0000000  0.6024960  3
   6804   6805   6808   6809     1  180.0000771  0.8368000  1
   6804   6805   6808   6809     1  180.0000771  1.0460000  2
   6804   6805   6808   6809     1  0.0000000  0.7531200  3
   6804   6805   6808   6816     1  0.0000000  0.6508444  3
   6804   6826   6810   6809     1  180.0000771  0.4184000  2
   6804   6826   6810   6809     1  0.0000000  1.6024720  3
   6804   6826   6810   6814     1  180.0000771  5.6484000  1
   6804   6826   6810   6814     1  180.0000771  3.5564000  2
   6804   6826   6810   6814     1  0.0000000  0.4184000  3
   6805   6804   6818   6824     1  0.0000000  0.6508444  3
   6805   6804   6826   6810     1  180.0000771  0.4184000  2
   6805   6804   6826   6810     1  0.0000000  1.6024720  3
   6805   6808   6809   6810     1  180.0000771  0.8368000  1
   6805   6808   6809   6810     1  180.0000771  1.0460000  2
   6805   6808   6809   6810     1  0.0000000  0.7531200  3
   6805   6808   6809   6815     1  0.0000000  0.6508444  3
   6808   6805   6804   6818     1  180.0000771  0.8368000  1
   6808   6805   6804   6818     1  180.0000771  1.0460000  2
   6808   6805   6804   6818     1  0.0000000  0.7531200  3
   6808   6805   6804   6826     1  0.0000000  0.6508444  3
   6808   6809   6810   6814     1  0.0000000  0.6508444  3
   6808   6809   6810   6826     1  0.0000000  0.6508444  3
   6809   6808   6805   6817     1  0.0000000  0.6508444  3
   6810   6809   6808   6816     1  0.0000000  0.6508444  3
   6810   6826   6804   6818     1  180.0000771  0.4184000  2
   6810   6826   6804   6818     1  0.0000000  1.6024720  3
   6814   6810   6809   6815     1  0.0000000  4.9162000  2
   6814   6810   6809   6815     1  0.0000000  0.6024960  3
   6815   6809   6808   6816     1  0.0000000  4.9162000  2
   6815   6809   6808   6816     1  0.0000000  0.6024960  3
   6815   6809   6810   6826     1  0.0000000  4.9162000  2
   6815   6809   6810   6826     1  0.0000000  0.6024960  3
   6816   6808   6805   6817     1  0.0000000  4.9162000  2
   6816   6808   6805   6817     1  0.0000000  0.6024960  3
   6817   6805   6804   6818     1  0.0000000  0.6508444  3
   6817   6805   6804   6826     1  0.0000000  4.9162000  2
   6817   6805   6804   6826     1  0.0000000  0.6024960  3
   6824   6818   6804   6826     1  0.0000000  4.9162000  2
   6824   6818   6804   6826     1  0.0000000  0.6024960  3
   6827   6828   6831   6832     1  180.0000771  0.8368000  1
   6827   6828   6831   6832     1  180.0000771  1.0460000  2
   6827   6828   6831   6832     1  0.0000000  0.7531200  3
   6827   6828   6831   6839     1  0.0000000  0.6508444  3
   6827   6849   6833   6837     1  180.0000771  5.6484000  1
   6827   6849   6833   6837     1  180.0000771  3.5564000  2
   6827   6849   6833   6837     1  0.0000000  0.4184000  3
   6827   6849   6833   6832     1  180.0000771  0.4184000  2
   6827   6849   6833   6832     1  0.0000000  1.6024720  3
   6828   6831   6832   6833     1  180.0000771  0.8368000  1
   6828   6831   6832   6833     1  180.0000771  1.0460000  2
   6828   6831   6832   6833     1  0.0000000  0.7531200  3
   6828   6831   6832   6838     1  0.0000000  0.6508444  3
   6828   6827   6841   6847     1  0.0000000  0.6508444  3
   6828   6827   6849   6833     1  180.0000771  0.4184000  2
   6828   6827   6849   6833     1  0.0000000  1.6024720  3
   6831   6832   6833   6837     1  0.0000000  0.6508444  3
   6831   6832   6833   6849     1  0.0000000  0.6508444  3
   6831   6828   6827   6841     1  180.0000771  0.8368000  1
   6831   6828   6827   6841     1  180.0000771  1.0460000  2
   6831   6828   6827   6841     1  0.0000000  0.7531200  3
   6831   6828   6827   6849     1  0.0000000  0.6508444  3
   6832   6831   6828   6840     1  0.0000000  0.6508444  3
   6833   6849   6827   6841     1  180.0000771  0.4184000  2
   6833   6849   6827   6841     1  0.0000000  1.6024720  3
   6833   6832   6831   6839     1  0.0000000  0.6508444  3
   6837   6833   6832   6838     1  0.0000000  4.9162000  2
   6837   6833   6832   6838     1  0.0000000  0.6024960  3
   6838   6832   6833   6849     1  0.0000000  4.9162000  2
   6838   6832   6833   6849     1  0.0000000  0.6024960  3
   6838   6832   6831   6839     1  0.0000000  4.9162000  2
   6838   6832   6831   6839     1  0.0000000  0.6024960  3
   6839   6831   6828   6840     1  0.0000000  4.9162000  2
   6839   6831   6828   6840     1  0.0000000  0.6024960  3
   6840   6828   6827   6841     1  0.0000000  0.6508444  3
   6840   6828   6827   6849     1  0.0000000  4.9162000  2
   6840   6828   6827   6849     1  0.0000000  0.6024960  3
   6847   6841   6827   6849     1  0.0000000  4.9162000  2
   6847   6841   6827   6849     1  0.0000000  0.6024960  3
   6850   6851   6854   6855     1  180.0000771  0.8368000  1
   6850   6851   6854   6855     1  180.0000771  1.0460000  2
   6850   6851   6854   6855     1  0.0000000  0.7531200  3
   6850   6851   6854   6862     1  0.0000000  0.6508444  3
   6850   6872   6856   6855     1  180.0000771  0.4184000  2
   6850   6872   6856   6855     1  0.0000000  1.6024720  3
   6850   6872   6856   6860     1  180.0000771  5.6484000  1
   6850   6872   6856   6860     1  180.0000771  3.5564000  2
   6850   6872   6856   6860     1  0.0000000  0.4184000  3
   6851   6850   6864   6870     1  0.0000000  0.6508444  3
   6851   6850   6872   6856     1  180.0000771  0.4184000  2
   6851   6850   6872   6856     1  0.0000000  1.6024720  3
   6851   6854   6855   6856     1  180.0000771  0.8368000  1
   6851   6854   6855   6856     1  180.0000771  1.0460000  2
   6851   6854   6855   6856     1  0.0000000  0.7531200  3
   6851   6854   6855   6861     1  0.0000000  0.6508444  3
   6854   6851   6850   6864     1  180.0000771  0.8368000  1
   6854   6851   6850   6864     1  180.0000771  1.0460000  2
   6854   6851   6850   6864     1  0.0000000  0.7531200  3
   6854   6851   6850   6872     1  0.0000000  0.6508444  3
   6854   6855   6856   6860     1  0.0000000  0.6508444  3
   6854   6855   6856   6872     1  0.0000000  0.6508444  3
   6855   6854   6851   6863     1  0.0000000  0.6508444  3
   6856   6855   6854   6862     1  0.0000000  0.6508444  3
   6856   6872   6850   6864     1  180.0000771  0.4184000  2
   6856   6872   6850   6864     1  0.0000000  1.6024720  3
   6860   6856   6855   6861     1  0.0000000  4.9162000  2
   6860   6856   6855   6861     1  0.0000000  0.6024960  3
   6861   6855   6854   6862     1  0.0000000  4.9162000  2
   6861   6855   6854   6862     1  0.0000000  0.6024960  3
   6861   6855   6856   6872     1  0.0000000  4.9162000  2
   6861   6855   6856   6872     1  0.0000000  0.6024960  3
   6862   6854   6851   6863     1  0.0000000  4.9162000  2
   6862   6854   6851   6863     1  0.0000000  0.6024960  3
   6863   6851   6850   6864     1  0.0000000  0.6508444  3
   6863   6851   6850   6872     1  0.0000000  4.9162000  2
   6863   6851   6850   6872     1  0.0000000  0.6024960  3
   6870   6864   6850   6872     1  0.0000000  4.9162000  2
   6870   6864   6850   6872     1  0.0000000  0.6024960  3
   6873   6874   6877   6878     1  180.0000771  0.8368000  1
   6873   6874   6877   6878     1  180.0000771  1.0460000  2
   6873   6874   6877   6878     1  0.0000000  0.7531200  3
   6873   6874   6877   6885     1  0.0000000  0.6508444  3
   6873   6895   6879   6883     1  180.0000771  5.6484000  1
   6873   6895   6879   6883     1  180.0000771  3.5564000  2
   6873   6895   6879   6883     1  0.0000000  0.4184000  3
   6873   6895   6879   6878     1  180.0000771  0.4184000  2
   6873   6895   6879   6878     1  0.0000000  1.6024720  3
   6874   6877   6878   6879     1  180.0000771  0.8368000  1
   6874   6877   6878   6879     1  180.0000771  1.0460000  2
   6874   6877   6878   6879     1  0.0000000  0.7531200  3
   6874   6877   6878   6884     1  0.0000000  0.6508444  3
   6874   6873   6887   6893     1  0.0000000  0.6508444  3
   6874   6873   6895   6879     1  180.0000771  0.4184000  2
   6874   6873   6895   6879     1  0.0000000  1.6024720  3
   6877   6878   6879   6883     1  0.0000000  0.6508444  3
   6877   6878   6879   6895     1  0.0000000  0.6508444  3
   6877   6874   6873   6887     1  180.0000771  0.8368000  1
   6877   6874   6873   6887     1  180.0000771  1.0460000  2
   6877   6874   6873   6887     1  0.0000000  0.7531200  3
   6877   6874   6873   6895     1  0.0000000  0.6508444  3
   6878   6877   6874   6886     1  0.0000000  0.6508444  3
   6879   6895   6873   6887     1  180.0000771  0.4184000  2
   6879   6895   6873   6887     1  0.0000000  1.6024720  3
   6879   6878   6877   6885     1  0.0000000  0.6508444  3
   6883   6879   6878   6884     1  0.0000000  4.9162000  2
   6883   6879   6878   6884     1  0.0000000  0.6024960  3
   6884   6878   6879   6895     1  0.0000000  4.9162000  2
   6884   6878   6879   6895     1  0.0000000  0.6024960  3
   6884   6878   6877   6885     1  0.0000000  4.9162000  2
   6884   6878   6877   6885     1  0.0000000  0.6024960  3
   6885   6877   6874   6886     1  0.0000000  4.9162000  2
   6885   6877   6874   6886     1  0.0000000  0.6024960  3
   6886   6874   6873   6887     1  0.0000000  0.6508444  3
   6886   6874   6873   6895     1  0.0000000  4.9162000  2
   6886   6874   6873   6895     1  0.0000000  0.6024960  3
   6893   6887   6873   6895     1  0.0000000  4.9162000  2
   6893   6887   6873   6895     1  0.0000000  0.6024960  3
   6896   6897   6900   6901     1  180.0000771  0.8368000  1
   6896   6897   6900   6901     1  180.0000771  1.0460000  2
   6896   6897   6900   6901     1  0.0000000  0.7531200  3
   6896   6897   6900   6908     1  0.0000000  0.6508444  3
   6896   6918   6902   6901     1  180.0000771  0.4184000  2
   6896   6918   6902   6901     1  0.0000000  1.6024720  3
   6896   6918   6902   6906     1  180.0000771  5.6484000  1
   6896   6918   6902   6906     1  180.0000771  3.5564000  2
   6896   6918   6902   6906     1  0.0000000  0.4184000  3
   6897   6896   6910   6916     1  0.0000000  0.6508444  3
   6897   6896   6918   6902     1  180.0000771  0.4184000  2
   6897   6896   6918   6902     1  0.0000000  1.6024720  3
   6897   6900   6901   6902     1  180.0000771  0.8368000  1
   6897   6900   6901   6902     1  180.0000771  1.0460000  2
   6897   6900   6901   6902     1  0.0000000  0.7531200  3
   6897   6900   6901   6907     1  0.0000000  0.6508444  3
   6900   6897   6896   6910     1  180.0000771  0.8368000  1
   6900   6897   6896   6910     1  180.0000771  1.0460000  2
   6900   6897   6896   6910     1  0.0000000  0.7531200  3
   6900   6897   6896   6918     1  0.0000000  0.6508444  3
   6900   6901   6902   6906     1  0.0000000  0.6508444  3
   6900   6901   6902   6918     1  0.0000000  0.6508444  3
   6901   6900   6897   6909     1  0.0000000  0.6508444  3
   6902   6901   6900   6908     1  0.0000000  0.6508444  3
   6902   6918   6896   6910     1  180.0000771  0.4184000  2
   6902   6918   6896   6910     1  0.0000000  1.6024720  3
   6906   6902   6901   6907     1  0.0000000  4.9162000  2
   6906   6902   6901   6907     1  0.0000000  0.6024960  3
   6907   6901   6900   6908     1  0.0000000  4.9162000  2
   6907   6901   6900   6908     1  0.0000000  0.6024960  3
   6907   6901   6902   6918     1  0.0000000  4.9162000  2
   6907   6901   6902   6918     1  0.0000000  0.6024960  3
   6908   6900   6897   6909     1  0.0000000  4.9162000  2
   6908   6900   6897   6909     1  0.0000000  0.6024960  3
   6909   6897   6896   6910     1  0.0000000  0.6508444  3
   6909   6897   6896   6918     1  0.0000000  4.9162000  2
   6909   6897   6896   6918     1  0.0000000  0.6024960  3
   6916   6910   6896   6918     1  0.0000000  4.9162000  2
   6916   6910   6896   6918     1  0.0000000  0.6024960  3
   6919   6920   6923   6924     1  180.0000771  0.8368000  1
   6919   6920   6923   6924     1  180.0000771  1.0460000  2
   6919   6920   6923   6924     1  0.0000000  0.7531200  3
   6919   6920   6923   6931     1  0.0000000  0.6508444  3
   6919   6941   6925   6929     1  180.0000771  5.6484000  1
   6919   6941   6925   6929     1  180.0000771  3.5564000  2
   6919   6941   6925   6929     1  0.0000000  0.4184000  3
   6919   6941   6925   6924     1  180.0000771  0.4184000  2
   6919   6941   6925   6924     1  0.0000000  1.6024720  3
   6920   6923   6924   6925     1  180.0000771  0.8368000  1
   6920   6923   6924   6925     1  180.0000771  1.0460000  2
   6920   6923   6924   6925     1  0.0000000  0.7531200  3
   6920   6923   6924   6930     1  0.0000000  0.6508444  3
   6920   6919   6933   6939     1  0.0000000  0.6508444  3
   6920   6919   6941   6925     1  180.0000771  0.4184000  2
   6920   6919   6941   6925     1  0.0000000  1.6024720  3
   6923   6924   6925   6929     1  0.0000000  0.6508444  3
   6923   6924   6925   6941     1  0.0000000  0.6508444  3
   6923   6920   6919   6933     1  180.0000771  0.8368000  1
   6923   6920   6919   6933     1  180.0000771  1.0460000  2
   6923   6920   6919   6933     1  0.0000000  0.7531200  3
   6923   6920   6919   6941     1  0.0000000  0.6508444  3
   6924   6923   6920   6932     1  0.0000000  0.6508444  3
   6925   6941   6919   6933     1  180.0000771  0.4184000  2
   6925   6941   6919   6933     1  0.0000000  1.6024720  3
   6925   6924   6923   6931     1  0.0000000  0.6508444  3
   6929   6925   6924   6930     1  0.0000000  4.9162000  2
   6929   6925   6924   6930     1  0.0000000  0.6024960  3
   6930   6924   6925   6941     1  0.0000000  4.9162000  2
   6930   6924   6925   6941     1  0.0000000  0.6024960  3
   6930   6924   6923   6931     1  0.0000000  4.9162000  2
   6930   6924   6923   6931     1  0.0000000  0.6024960  3
   6931   6923   6920   6932     1  0.0000000  4.9162000  2
   6931   6923   6920   6932     1  0.0000000  0.6024960  3
   6932   6920   6919   6933     1  0.0000000  0.6508444  3
   6932   6920   6919   6941     1  0.0000000  4.9162000  2
   6932   6920   6919   6941     1  0.0000000  0.6024960  3
   6939   6933   6919   6941     1  0.0000000  4.9162000  2
   6939   6933   6919   6941     1  0.0000000  0.6024960  3
   6942   6943   6946   6947     1  180.0000771  0.8368000  1
   6942   6943   6946   6947     1  180.0000771  1.0460000  2
   6942   6943   6946   6947     1  0.0000000  0.7531200  3
   6942   6943   6946   6954     1  0.0000000  0.6508444  3
   6942   6964   6948   6947     1  180.0000771  0.4184000  2
   6942   6964   6948   6947     1  0.0000000  1.6024720  3
   6942   6964   6948   6952     1  180.0000771  5.6484000  1
   6942   6964   6948   6952     1  180.0000771  3.5564000  2
   6942   6964   6948   6952     1  0.0000000  0.4184000  3
   6943   6942   6956   6962     1  0.0000000  0.6508444  3
   6943   6942   6964   6948     1  180.0000771  0.4184000  2
   6943   6942   6964   6948     1  0.0000000  1.6024720  3
   6943   6946   6947   6948     1  180.0000771  0.8368000  1
   6943   6946   6947   6948     1  180.0000771  1.0460000  2
   6943   6946   6947   6948     1  0.0000000  0.7531200  3
   6943   6946   6947   6953     1  0.0000000  0.6508444  3
   6946   6943   6942   6956     1  180.0000771  0.8368000  1
   6946   6943   6942   6956     1  180.0000771  1.0460000  2
   6946   6943   6942   6956     1  0.0000000  0.7531200  3
   6946   6943   6942   6964     1  0.0000000  0.6508444  3
   6946   6947   6948   6952     1  0.0000000  0.6508444  3
   6946   6947   6948   6964     1  0.0000000  0.6508444  3
   6947   6946   6943   6955     1  0.0000000  0.6508444  3
   6948   6947   6946   6954     1  0.0000000  0.6508444  3
   6948   6964   6942   6956     1  180.0000771  0.4184000  2
   6948   6964   6942   6956     1  0.0000000  1.6024720  3
   6952   6948   6947   6953     1  0.0000000  4.9162000  2
   6952   6948   6947   6953     1  0.0000000  0.6024960  3
   6953   6947   6946   6954     1  0.0000000  4.9162000  2
   6953   6947   6946   6954     1  0.0000000  0.6024960  3
   6953   6947   6948   6964     1  0.0000000  4.9162000  2
   6953   6947   6948   6964     1  0.0000000  0.6024960  3
   6954   6946   6943   6955     1  0.0000000  4.9162000  2
   6954   6946   6943   6955     1  0.0000000  0.6024960  3
   6955   6943   6942   6956     1  0.0000000  0.6508444  3
   6955   6943   6942   6964     1  0.0000000  4.9162000  2
   6955   6943   6942   6964     1  0.0000000  0.6024960  3
   6962   6956   6942   6964     1  0.0000000  4.9162000  2
   6962   6956   6942   6964     1  0.0000000  0.6024960  3
   6965   6966   6969   6970     1  180.0000771  0.8368000  1
   6965   6966   6969   6970     1  180.0000771  1.0460000  2
   6965   6966   6969   6970     1  0.0000000  0.7531200  3
   6965   6966   6969   6977     1  0.0000000  0.6508444  3
   6965   6987   6971   6975     1  180.0000771  5.6484000  1
   6965   6987   6971   6975     1  180.0000771  3.5564000  2
   6965   6987   6971   6975     1  0.0000000  0.4184000  3
   6965   6987   6971   6970     1  180.0000771  0.4184000  2
   6965   6987   6971   6970     1  0.0000000  1.6024720  3
   6966   6969   6970   6971     1  180.0000771  0.8368000  1
   6966   6969   6970   6971     1  180.0000771  1.0460000  2
   6966   6969   6970   6971     1  0.0000000  0.7531200  3
   6966   6969   6970   6976     1  0.0000000  0.6508444  3
   6966   6965   6979   6985     1  0.0000000  0.6508444  3
   6966   6965   6987   6971     1  180.0000771  0.4184000  2
   6966   6965   6987   6971     1  0.0000000  1.6024720  3
   6969   6970   6971   6975     1  0.0000000  0.6508444  3
   6969   6970   6971   6987     1  0.0000000  0.6508444  3
   6969   6966   6965   6979     1  180.0000771  0.8368000  1
   6969   6966   6965   6979     1  180.0000771  1.0460000  2
   6969   6966   6965   6979     1  0.0000000  0.7531200  3
   6969   6966   6965   6987     1  0.0000000  0.6508444  3
   6970   6969   6966   6978     1  0.0000000  0.6508444  3
   6971   6987   6965   6979     1  180.0000771  0.4184000  2
   6971   6987   6965   6979     1  0.0000000  1.6024720  3
   6971   6970   6969   6977     1  0.0000000  0.6508444  3
   6975   6971   6970   6976     1  0.0000000  4.9162000  2
   6975   6971   6970   6976     1  0.0000000  0.6024960  3
   6976   6970   6971   6987     1  0.0000000  4.9162000  2
   6976   6970   6971   6987     1  0.0000000  0.6024960  3
   6976   6970   6969   6977     1  0.0000000  4.9162000  2
   6976   6970   6969   6977     1  0.0000000  0.6024960  3
   6977   6969   6966   6978     1  0.0000000  4.9162000  2
   6977   6969   6966   6978     1  0.0000000  0.6024960  3
   6978   6966   6965   6979     1  0.0000000  0.6508444  3
   6978   6966   6965   6987     1  0.0000000  4.9162000  2
   6978   6966   6965   6987     1  0.0000000  0.6024960  3
   6985   6979   6965   6987     1  0.0000000  4.9162000  2
   6985   6979   6965   6987     1  0.0000000  0.6024960  3
   6988   6989   6992   6993     1  180.0000771  0.8368000  1
   6988   6989   6992   6993     1  180.0000771  1.0460000  2
   6988   6989   6992   6993     1  0.0000000  0.7531200  3
   6988   6989   6992   7000     1  0.0000000  0.6508444  3
   6988   7010   6994   6993     1  180.0000771  0.4184000  2
   6988   7010   6994   6993     1  0.0000000  1.6024720  3
   6988   7010   6994   6998     1  180.0000771  5.6484000  1
   6988   7010   6994   6998     1  180.0000771  3.5564000  2
   6988   7010   6994   6998     1  0.0000000  0.4184000  3
   6989   6988   7002   7008     1  0.0000000  0.6508444  3
   6989   6988   7010   6994     1  180.0000771  0.4184000  2
   6989   6988   7010   6994     1  0.0000000  1.6024720  3
   6989   6992   6993   6994     1  180.0000771  0.8368000  1
   6989   6992   6993   6994     1  180.0000771  1.0460000  2
   6989   6992   6993   6994     1  0.0000000  0.7531200  3
   6989   6992   6993   6999     1  0.0000000  0.6508444  3
   6992   6989   6988   7002     1  180.0000771  0.8368000  1
   6992   6989   6988   7002     1  180.0000771  1.0460000  2
   6992   6989   6988   7002     1  0.0000000  0.7531200  3
   6992   6989   6988   7010     1  0.0000000  0.6508444  3
   6992   6993   6994   6998     1  0.0000000  0.6508444  3
   6992   6993   6994   7010     1  0.0000000  0.6508444  3
   6993   6992   6989   7001     1  0.0000000  0.6508444  3
   6994   6993   6992   7000     1  0.0000000  0.6508444  3
   6994   7010   6988   7002     1  180.0000771  0.4184000  2
   6994   7010   6988   7002     1  0.0000000  1.6024720  3
   6998   6994   6993   6999     1  0.0000000  4.9162000  2
   6998   6994   6993   6999     1  0.0000000  0.6024960  3
   6999   6993   6992   7000     1  0.0000000  4.9162000  2
   6999   6993   6992   7000     1  0.0000000  0.6024960  3
   6999   6993   6994   7010     1  0.0000000  4.9162000  2
   6999   6993   6994   7010     1  0.0000000  0.6024960  3
   7000   6992   6989   7001     1  0.0000000  4.9162000  2
   7000   6992   6989   7001     1  0.0000000  0.6024960  3
   7001   6989   6988   7002     1  0.0000000  0.6508444  3
   7001   6989   6988   7010     1  0.0000000  4.9162000  2
   7001   6989   6988   7010     1  0.0000000  0.6024960  3
   7008   7002   6988   7010     1  0.0000000  4.9162000  2
   7008   7002   6988   7010     1  0.0000000  0.6024960  3
   7011   7012   7015   7016     1  180.0000771  0.8368000  1
   7011   7012   7015   7016     1  180.0000771  1.0460000  2
   7011   7012   7015   7016     1  0.0000000  0.7531200  3
   7011   7012   7015   7023     1  0.0000000  0.6508444  3
   7011   7033   7017   7021     1  180.0000771  5.6484000  1
   7011   7033   7017   7021     1  180.0000771  3.5564000  2
   7011   7033   7017   7021     1  0.0000000  0.4184000  3
   7011   7033   7017   7016     1  180.0000771  0.4184000  2
   7011   7033   7017   7016     1  0.0000000  1.6024720  3
   7012   7015   7016   7017     1  180.0000771  0.8368000  1
   7012   7015   7016   7017     1  180.0000771  1.0460000  2
   7012   7015   7016   7017     1  0.0000000  0.7531200  3
   7012   7015   7016   7022     1  0.0000000  0.6508444  3
   7012   7011   7025   7031     1  0.0000000  0.6508444  3
   7012   7011   7033   7017     1  180.0000771  0.4184000  2
   7012   7011   7033   7017     1  0.0000000  1.6024720  3
   7015   7016   7017   7021     1  0.0000000  0.6508444  3
   7015   7016   7017   7033     1  0.0000000  0.6508444  3
   7015   7012   7011   7025     1  180.0000771  0.8368000  1
   7015   7012   7011   7025     1  180.0000771  1.0460000  2
   7015   7012   7011   7025     1  0.0000000  0.7531200  3
   7015   7012   7011   7033     1  0.0000000  0.6508444  3
   7016   7015   7012   7024     1  0.0000000  0.6508444  3
   7017   7033   7011   7025     1  180.0000771  0.4184000  2
   7017   7033   7011   7025     1  0.0000000  1.6024720  3
   7017   7016   7015   7023     1  0.0000000  0.6508444  3
   7021   7017   7016   7022     1  0.0000000  4.9162000  2
   7021   7017   7016   7022     1  0.0000000  0.6024960  3
   7022   7016   7017   7033     1  0.0000000  4.9162000  2
   7022   7016   7017   7033     1  0.0000000  0.6024960  3
   7022   7016   7015   7023     1  0.0000000  4.9162000  2
   7022   7016   7015   7023     1  0.0000000  0.6024960  3
   7023   7015   7012   7024     1  0.0000000  4.9162000  2
   7023   7015   7012   7024     1  0.0000000  0.6024960  3
   7024   7012   7011   7025     1  0.0000000  0.6508444  3
   7024   7012   7011   7033     1  0.0000000  4.9162000  2
   7024   7012   7011   7033     1  0.0000000  0.6024960  3
   7031   7025   7011   7033     1  0.0000000  4.9162000  2
   7031   7025   7011   7033     1  0.0000000  0.6024960  3
   7034   7035   7038   7039     1  180.0000771  0.8368000  1
   7034   7035   7038   7039     1  180.0000771  1.0460000  2
   7034   7035   7038   7039     1  0.0000000  0.7531200  3
   7034   7035   7038   7046     1  0.0000000  0.6508444  3
   7034   7056   7040   7039     1  180.0000771  0.4184000  2
   7034   7056   7040   7039     1  0.0000000  1.6024720  3
   7034   7056   7040   7044     1  180.0000771  5.6484000  1
   7034   7056   7040   7044     1  180.0000771  3.5564000  2
   7034   7056   7040   7044     1  0.0000000  0.4184000  3
   7035   7034   7048   7054     1  0.0000000  0.6508444  3
   7035   7034   7056   7040     1  180.0000771  0.4184000  2
   7035   7034   7056   7040     1  0.0000000  1.6024720  3
   7035   7038   7039   7040     1  180.0000771  0.8368000  1
   7035   7038   7039   7040     1  180.0000771  1.0460000  2
   7035   7038   7039   7040     1  0.0000000  0.7531200  3
   7035   7038   7039   7045     1  0.0000000  0.6508444  3
   7038   7035   7034   7048     1  180.0000771  0.8368000  1
   7038   7035   7034   7048     1  180.0000771  1.0460000  2
   7038   7035   7034   7048     1  0.0000000  0.7531200  3
   7038   7035   7034   7056     1  0.0000000  0.6508444  3
   7038   7039   7040   7044     1  0.0000000  0.6508444  3
   7038   7039   7040   7056     1  0.0000000  0.6508444  3
   7039   7038   7035   7047     1  0.0000000  0.6508444  3
   7040   7039   7038   7046     1  0.0000000  0.6508444  3
   7040   7056   7034   7048     1  180.0000771  0.4184000  2
   7040   7056   7034   7048     1  0.0000000  1.6024720  3
   7044   7040   7039   7045     1  0.0000000  4.9162000  2
   7044   7040   7039   7045     1  0.0000000  0.6024960  3
   7045   7039   7038   7046     1  0.0000000  4.9162000  2
   7045   7039   7038   7046     1  0.0000000  0.6024960  3
   7045   7039   7040   7056     1  0.0000000  4.9162000  2
   7045   7039   7040   7056     1  0.0000000  0.6024960  3
   7046   7038   7035   7047     1  0.0000000  4.9162000  2
   7046   7038   7035   7047     1  0.0000000  0.6024960  3
   7047   7035   7034   7048     1  0.0000000  0.6508444  3
   7047   7035   7034   7056     1  0.0000000  4.9162000  2
   7047   7035   7034   7056     1  0.0000000  0.6024960  3
   7054   7048   7034   7056     1  0.0000000  4.9162000  2
   7054   7048   7034   7056     1  0.0000000  0.6024960  3
   7057   7058   7061   7062     1  180.0000771  0.8368000  1
   7057   7058   7061   7062     1  180.0000771  1.0460000  2
   7057   7058   7061   7062     1  0.0000000  0.7531200  3
   7057   7058   7061   7069     1  0.0000000  0.6508444  3
   7057   7079   7063   7067     1  180.0000771  5.6484000  1
   7057   7079   7063   7067     1  180.0000771  3.5564000  2
   7057   7079   7063   7067     1  0.0000000  0.4184000  3
   7057   7079   7063   7062     1  180.0000771  0.4184000  2
   7057   7079   7063   7062     1  0.0000000  1.6024720  3
   7058   7061   7062   7063     1  180.0000771  0.8368000  1
   7058   7061   7062   7063     1  180.0000771  1.0460000  2
   7058   7061   7062   7063     1  0.0000000  0.7531200  3
   7058   7061   7062   7068     1  0.0000000  0.6508444  3
   7058   7057   7071   7077     1  0.0000000  0.6508444  3
   7058   7057   7079   7063     1  180.0000771  0.4184000  2
   7058   7057   7079   7063     1  0.0000000  1.6024720  3
   7061   7062   7063   7067     1  0.0000000  0.6508444  3
   7061   7062   7063   7079     1  0.0000000  0.6508444  3
   7061   7058   7057   7071     1  180.0000771  0.8368000  1
   7061   7058   7057   7071     1  180.0000771  1.0460000  2
   7061   7058   7057   7071     1  0.0000000  0.7531200  3
   7061   7058   7057   7079     1  0.0000000  0.6508444  3
   7062   7061   7058   7070     1  0.0000000  0.6508444  3
   7063   7079   7057   7071     1  180.0000771  0.4184000  2
   7063   7079   7057   7071     1  0.0000000  1.6024720  3
   7063   7062   7061   7069     1  0.0000000  0.6508444  3
   7067   7063   7062   7068     1  0.0000000  4.9162000  2
   7067   7063   7062   7068     1  0.0000000  0.6024960  3
   7068   7062   7063   7079     1  0.0000000  4.9162000  2
   7068   7062   7063   7079     1  0.0000000  0.6024960  3
   7068   7062   7061   7069     1  0.0000000  4.9162000  2
   7068   7062   7061   7069     1  0.0000000  0.6024960  3
   7069   7061   7058   7070     1  0.0000000  4.9162000  2
   7069   7061   7058   7070     1  0.0000000  0.6024960  3
   7070   7058   7057   7071     1  0.0000000  0.6508444  3
   7070   7058   7057   7079     1  0.0000000  4.9162000  2
   7070   7058   7057   7079     1  0.0000000  0.6024960  3
   7077   7071   7057   7079     1  0.0000000  4.9162000  2
   7077   7071   7057   7079     1  0.0000000  0.6024960  3
   7080   7081   7084   7085     1  180.0000771  0.8368000  1
   7080   7081   7084   7085     1  180.0000771  1.0460000  2
   7080   7081   7084   7085     1  0.0000000  0.7531200  3
   7080   7081   7084   7092     1  0.0000000  0.6508444  3
   7080   7102   7086   7085     1  180.0000771  0.4184000  2
   7080   7102   7086   7085     1  0.0000000  1.6024720  3
   7080   7102   7086   7090     1  180.0000771  5.6484000  1
   7080   7102   7086   7090     1  180.0000771  3.5564000  2
   7080   7102   7086   7090     1  0.0000000  0.4184000  3
   7081   7080   7094   7100     1  0.0000000  0.6508444  3
   7081   7080   7102   7086     1  180.0000771  0.4184000  2
   7081   7080   7102   7086     1  0.0000000  1.6024720  3
   7081   7084   7085   7086     1  180.0000771  0.8368000  1
   7081   7084   7085   7086     1  180.0000771  1.0460000  2
   7081   7084   7085   7086     1  0.0000000  0.7531200  3
   7081   7084   7085   7091     1  0.0000000  0.6508444  3
   7084   7081   7080   7094     1  180.0000771  0.8368000  1
   7084   7081   7080   7094     1  180.0000771  1.0460000  2
   7084   7081   7080   7094     1  0.0000000  0.7531200  3
   7084   7081   7080   7102     1  0.0000000  0.6508444  3
   7084   7085   7086   7090     1  0.0000000  0.6508444  3
   7084   7085   7086   7102     1  0.0000000  0.6508444  3
   7085   7084   7081   7093     1  0.0000000  0.6508444  3
   7086   7085   7084   7092     1  0.0000000  0.6508444  3
   7086   7102   7080   7094     1  180.0000771  0.4184000  2
   7086   7102   7080   7094     1  0.0000000  1.6024720  3
   7090   7086   7085   7091     1  0.0000000  4.9162000  2
   7090   7086   7085   7091     1  0.0000000  0.6024960  3
   7091   7085   7084   7092     1  0.0000000  4.9162000  2
   7091   7085   7084   7092     1  0.0000000  0.6024960  3
   7091   7085   7086   7102     1  0.0000000  4.9162000  2
   7091   7085   7086   7102     1  0.0000000  0.6024960  3
   7092   7084   7081   7093     1  0.0000000  4.9162000  2
   7092   7084   7081   7093     1  0.0000000  0.6024960  3
   7093   7081   7080   7094     1  0.0000000  0.6508444  3
   7093   7081   7080   7102     1  0.0000000  4.9162000  2
   7093   7081   7080   7102     1  0.0000000  0.6024960  3
   7100   7094   7080   7102     1  0.0000000  4.9162000  2
   7100   7094   7080   7102     1  0.0000000  0.6024960  3
   7103   7104   7107   7108     1  180.0000771  0.8368000  1
   7103   7104   7107   7108     1  180.0000771  1.0460000  2
   7103   7104   7107   7108     1  0.0000000  0.7531200  3
   7103   7104   7107   7115     1  0.0000000  0.6508444  3
   7103   7125   7109   7113     1  180.0000771  5.6484000  1
   7103   7125   7109   7113     1  180.0000771  3.5564000  2
   7103   7125   7109   7113     1  0.0000000  0.4184000  3
   7103   7125   7109   7108     1  180.0000771  0.4184000  2
   7103   7125   7109   7108     1  0.0000000  1.6024720  3
   7104   7107   7108   7109     1  180.0000771  0.8368000  1
   7104   7107   7108   7109     1  180.0000771  1.0460000  2
   7104   7107   7108   7109     1  0.0000000  0.7531200  3
   7104   7107   7108   7114     1  0.0000000  0.6508444  3
   7104   7103   7117   7123     1  0.0000000  0.6508444  3
   7104   7103   7125   7109     1  180.0000771  0.4184000  2
   7104   7103   7125   7109     1  0.0000000  1.6024720  3
   7107   7108   7109   7113     1  0.0000000  0.6508444  3
   7107   7108   7109   7125     1  0.0000000  0.6508444  3
   7107   7104   7103   7117     1  180.0000771  0.8368000  1
   7107   7104   7103   7117     1  180.0000771  1.0460000  2
   7107   7104   7103   7117     1  0.0000000  0.7531200  3
   7107   7104   7103   7125     1  0.0000000  0.6508444  3
   7108   7107   7104   7116     1  0.0000000  0.6508444  3
   7109   7125   7103   7117     1  180.0000771  0.4184000  2
   7109   7125   7103   7117     1  0.0000000  1.6024720  3
   7109   7108   7107   7115     1  0.0000000  0.6508444  3
   7113   7109   7108   7114     1  0.0000000  4.9162000  2
   7113   7109   7108   7114     1  0.0000000  0.6024960  3
   7114   7108   7109   7125     1  0.0000000  4.9162000  2
   7114   7108   7109   7125     1  0.0000000  0.6024960  3
   7114   7108   7107   7115     1  0.0000000  4.9162000  2
   7114   7108   7107   7115     1  0.0000000  0.6024960  3
   7115   7107   7104   7116     1  0.0000000  4.9162000  2
   7115   7107   7104   7116     1  0.0000000  0.6024960  3
   7116   7104   7103   7117     1  0.0000000  0.6508444  3
   7116   7104   7103   7125     1  0.0000000  4.9162000  2
   7116   7104   7103   7125     1  0.0000000  0.6024960  3
   7123   7117   7103   7125     1  0.0000000  4.9162000  2
   7123   7117   7103   7125     1  0.0000000  0.6024960  3
   7126   7127   7130   7131     1  180.0000771  0.8368000  1
   7126   7127   7130   7131     1  180.0000771  1.0460000  2
   7126   7127   7130   7131     1  0.0000000  0.7531200  3
   7126   7127   7130   7138     1  0.0000000  0.6508444  3
   7126   7148   7132   7131     1  180.0000771  0.4184000  2
   7126   7148   7132   7131     1  0.0000000  1.6024720  3
   7126   7148   7132   7136     1  180.0000771  5.6484000  1
   7126   7148   7132   7136     1  180.0000771  3.5564000  2
   7126   7148   7132   7136     1  0.0000000  0.4184000  3
   7127   7126   7140   7146     1  0.0000000  0.6508444  3
   7127   7126   7148   7132     1  180.0000771  0.4184000  2
   7127   7126   7148   7132     1  0.0000000  1.6024720  3
   7127   7130   7131   7132     1  180.0000771  0.8368000  1
   7127   7130   7131   7132     1  180.0000771  1.0460000  2
   7127   7130   7131   7132     1  0.0000000  0.7531200  3
   7127   7130   7131   7137     1  0.0000000  0.6508444  3
   7130   7127   7126   7140     1  180.0000771  0.8368000  1
   7130   7127   7126   7140     1  180.0000771  1.0460000  2
   7130   7127   7126   7140     1  0.0000000  0.7531200  3
   7130   7127   7126   7148     1  0.0000000  0.6508444  3
   7130   7131   7132   7136     1  0.0000000  0.6508444  3
   7130   7131   7132   7148     1  0.0000000  0.6508444  3
   7131   7130   7127   7139     1  0.0000000  0.6508444  3
   7132   7131   7130   7138     1  0.0000000  0.6508444  3
   7132   7148   7126   7140     1  180.0000771  0.4184000  2
   7132   7148   7126   7140     1  0.0000000  1.6024720  3
   7136   7132   7131   7137     1  0.0000000  4.9162000  2
   7136   7132   7131   7137     1  0.0000000  0.6024960  3
   7137   7131   7130   7138     1  0.0000000  4.9162000  2
   7137   7131   7130   7138     1  0.0000000  0.6024960  3
   7137   7131   7132   7148     1  0.0000000  4.9162000  2
   7137   7131   7132   7148     1  0.0000000  0.6024960  3
   7138   7130   7127   7139     1  0.0000000  4.9162000  2
   7138   7130   7127   7139     1  0.0000000  0.6024960  3
   7139   7127   7126   7140     1  0.0000000  0.6508444  3
   7139   7127   7126   7148     1  0.0000000  4.9162000  2
   7139   7127   7126   7148     1  0.0000000  0.6024960  3
   7146   7140   7126   7148     1  0.0000000  4.9162000  2
   7146   7140   7126   7148     1  0.0000000  0.6024960  3
   7149   7150   7153   7154     1  180.0000771  0.8368000  1
   7149   7150   7153   7154     1  180.0000771  1.0460000  2
   7149   7150   7153   7154     1  0.0000000  0.7531200  3
   7149   7150   7153   7161     1  0.0000000  0.6508444  3
   7149   7171   7155   7159     1  180.0000771  5.6484000  1
   7149   7171   7155   7159     1  180.0000771  3.5564000  2
   7149   7171   7155   7159     1  0.0000000  0.4184000  3
   7149   7171   7155   7154     1  180.0000771  0.4184000  2
   7149   7171   7155   7154     1  0.0000000  1.6024720  3
   7150   7153   7154   7155     1  180.0000771  0.8368000  1
   7150   7153   7154   7155     1  180.0000771  1.0460000  2
   7150   7153   7154   7155     1  0.0000000  0.7531200  3
   7150   7153   7154   7160     1  0.0000000  0.6508444  3
   7150   7149   7163   7169     1  0.0000000  0.6508444  3
   7150   7149   7171   7155     1  180.0000771  0.4184000  2
   7150   7149   7171   7155     1  0.0000000  1.6024720  3
   7153   7154   7155   7159     1  0.0000000  0.6508444  3
   7153   7154   7155   7171     1  0.0000000  0.6508444  3
   7153   7150   7149   7163     1  180.0000771  0.8368000  1
   7153   7150   7149   7163     1  180.0000771  1.0460000  2
   7153   7150   7149   7163     1  0.0000000  0.7531200  3
   7153   7150   7149   7171     1  0.0000000  0.6508444  3
   7154   7153   7150   7162     1  0.0000000  0.6508444  3
   7155   7171   7149   7163     1  180.0000771  0.4184000  2
   7155   7171   7149   7163     1  0.0000000  1.6024720  3
   7155   7154   7153   7161     1  0.0000000  0.6508444  3
   7159   7155   7154   7160     1  0.0000000  4.9162000  2
   7159   7155   7154   7160     1  0.0000000  0.6024960  3
   7160   7154   7155   7171     1  0.0000000  4.9162000  2
   7160   7154   7155   7171     1  0.0000000  0.6024960  3
   7160   7154   7153   7161     1  0.0000000  4.9162000  2
   7160   7154   7153   7161     1  0.0000000  0.6024960  3
   7161   7153   7150   7162     1  0.0000000  4.9162000  2
   7161   7153   7150   7162     1  0.0000000  0.6024960  3
   7162   7150   7149   7163     1  0.0000000  0.6508444  3
   7162   7150   7149   7171     1  0.0000000  4.9162000  2
   7162   7150   7149   7171     1  0.0000000  0.6024960  3
   7169   7163   7149   7171     1  0.0000000  4.9162000  2
   7169   7163   7149   7171     1  0.0000000  0.6024960  3
   7172   7173   7176   7177     1  180.0000771  0.8368000  1
   7172   7173   7176   7177     1  180.0000771  1.0460000  2
   7172   7173   7176   7177     1  0.0000000  0.7531200  3
   7172   7173   7176   7184     1  0.0000000  0.6508444  3
   7172   7194   7178   7177     1  180.0000771  0.4184000  2
   7172   7194   7178   7177     1  0.0000000  1.6024720  3
   7172   7194   7178   7182     1  180.0000771  5.6484000  1
   7172   7194   7178   7182     1  180.0000771  3.5564000  2
   7172   7194   7178   7182     1  0.0000000  0.4184000  3
   7173   7172   7186   7192     1  0.0000000  0.6508444  3
   7173   7172   7194   7178     1  180.0000771  0.4184000  2
   7173   7172   7194   7178     1  0.0000000  1.6024720  3
   7173   7176   7177   7178     1  180.0000771  0.8368000  1
   7173   7176   7177   7178     1  180.0000771  1.0460000  2
   7173   7176   7177   7178     1  0.0000000  0.7531200  3
   7173   7176   7177   7183     1  0.0000000  0.6508444  3
   7176   7173   7172   7186     1  180.0000771  0.8368000  1
   7176   7173   7172   7186     1  180.0000771  1.0460000  2
   7176   7173   7172   7186     1  0.0000000  0.7531200  3
   7176   7173   7172   7194     1  0.0000000  0.6508444  3
   7176   7177   7178   7182     1  0.0000000  0.6508444  3
   7176   7177   7178   7194     1  0.0000000  0.6508444  3
   7177   7176   7173   7185     1  0.0000000  0.6508444  3
   7178   7177   7176   7184     1  0.0000000  0.6508444  3
   7178   7194   7172   7186     1  180.0000771  0.4184000  2
   7178   7194   7172   7186     1  0.0000000  1.6024720  3
   7182   7178   7177   7183     1  0.0000000  4.9162000  2
   7182   7178   7177   7183     1  0.0000000  0.6024960  3
   7183   7177   7176   7184     1  0.0000000  4.9162000  2
   7183   7177   7176   7184     1  0.0000000  0.6024960  3
   7183   7177   7178   7194     1  0.0000000  4.9162000  2
   7183   7177   7178   7194     1  0.0000000  0.6024960  3
   7184   7176   7173   7185     1  0.0000000  4.9162000  2
   7184   7176   7173   7185     1  0.0000000  0.6024960  3
   7185   7173   7172   7186     1  0.0000000  0.6508444  3
   7185   7173   7172   7194     1  0.0000000  4.9162000  2
   7185   7173   7172   7194     1  0.0000000  0.6024960  3
   7192   7186   7172   7194     1  0.0000000  4.9162000  2
   7192   7186   7172   7194     1  0.0000000  0.6024960  3
   7195   7196   7199   7200     1  180.0000771  0.8368000  1
   7195   7196   7199   7200     1  180.0000771  1.0460000  2
   7195   7196   7199   7200     1  0.0000000  0.7531200  3
   7195   7196   7199   7207     1  0.0000000  0.6508444  3
   7195   7217   7201   7205     1  180.0000771  5.6484000  1
   7195   7217   7201   7205     1  180.0000771  3.5564000  2
   7195   7217   7201   7205     1  0.0000000  0.4184000  3
   7195   7217   7201   7200     1  180.0000771  0.4184000  2
   7195   7217   7201   7200     1  0.0000000  1.6024720  3
   7196   7199   7200   7201     1  180.0000771  0.8368000  1
   7196   7199   7200   7201     1  180.0000771  1.0460000  2
   7196   7199   7200   7201     1  0.0000000  0.7531200  3
   7196   7199   7200   7206     1  0.0000000  0.6508444  3
   7196   7195   7209   7215     1  0.0000000  0.6508444  3
   7196   7195   7217   7201     1  180.0000771  0.4184000  2
   7196   7195   7217   7201     1  0.0000000  1.6024720  3
   7199   7200   7201   7205     1  0.0000000  0.6508444  3
   7199   7200   7201   7217     1  0.0000000  0.6508444  3
   7199   7196   7195   7209     1  180.0000771  0.8368000  1
   7199   7196   7195   7209     1  180.0000771  1.0460000  2
   7199   7196   7195   7209     1  0.0000000  0.7531200  3
   7199   7196   7195   7217     1  0.0000000  0.6508444  3
   7200   7199   7196   7208     1  0.0000000  0.6508444  3
   7201   7217   7195   7209     1  180.0000771  0.4184000  2
   7201   7217   7195   7209     1  0.0000000  1.6024720  3
   7201   7200   7199   7207     1  0.0000000  0.6508444  3
   7205   7201   7200   7206     1  0.0000000  4.9162000  2
   7205   7201   7200   7206     1  0.0000000  0.6024960  3
   7206   7200   7201   7217     1  0.0000000  4.9162000  2
   7206   7200   7201   7217     1  0.0000000  0.6024960  3
   7206   7200   7199   7207     1  0.0000000  4.9162000  2
   7206   7200   7199   7207     1  0.0000000  0.6024960  3
   7207   7199   7196   7208     1  0.0000000  4.9162000  2
   7207   7199   7196   7208     1  0.0000000  0.6024960  3
   7208   7196   7195   7209     1  0.0000000  0.6508444  3
   7208   7196   7195   7217     1  0.0000000  4.9162000  2
   7208   7196   7195   7217     1  0.0000000  0.6024960  3
   7215   7209   7195   7217     1  0.0000000  4.9162000  2
   7215   7209   7195   7217     1  0.0000000  0.6024960  3
   7218   7219   7222   7223     1  180.0000771  0.8368000  1
   7218   7219   7222   7223     1  180.0000771  1.0460000  2
   7218   7219   7222   7223     1  0.0000000  0.7531200  3
   7218   7219   7222   7230     1  0.0000000  0.6508444  3
   7218   7240   7224   7223     1  180.0000771  0.4184000  2
   7218   7240   7224   7223     1  0.0000000  1.6024720  3
   7218   7240   7224   7228     1  180.0000771  5.6484000  1
   7218   7240   7224   7228     1  180.0000771  3.5564000  2
   7218   7240   7224   7228     1  0.0000000  0.4184000  3
   7219   7218   7232   7238     1  0.0000000  0.6508444  3
   7219   7218   7240   7224     1  180.0000771  0.4184000  2
   7219   7218   7240   7224     1  0.0000000  1.6024720  3
   7219   7222   7223   7224     1  180.0000771  0.8368000  1
   7219   7222   7223   7224     1  180.0000771  1.0460000  2
   7219   7222   7223   7224     1  0.0000000  0.7531200  3
   7219   7222   7223   7229     1  0.0000000  0.6508444  3
   7222   7219   7218   7232     1  180.0000771  0.8368000  1
   7222   7219   7218   7232     1  180.0000771  1.0460000  2
   7222   7219   7218   7232     1  0.0000000  0.7531200  3
   7222   7219   7218   7240     1  0.0000000  0.6508444  3
   7222   7223   7224   7228     1  0.0000000  0.6508444  3
   7222   7223   7224   7240     1  0.0000000  0.6508444  3
   7223   7222   7219   7231     1  0.0000000  0.6508444  3
   7224   7223   7222   7230     1  0.0000000  0.6508444  3
   7224   7240   7218   7232     1  180.0000771  0.4184000  2
   7224   7240   7218   7232     1  0.0000000  1.6024720  3
   7228   7224   7223   7229     1  0.0000000  4.9162000  2
   7228   7224   7223   7229     1  0.0000000  0.6024960  3
   7229   7223   7222   7230     1  0.0000000  4.9162000  2
   7229   7223   7222   7230     1  0.0000000  0.6024960  3
   7229   7223   7224   7240     1  0.0000000  4.9162000  2
   7229   7223   7224   7240     1  0.0000000  0.6024960  3
   7230   7222   7219   7231     1  0.0000000  4.9162000  2
   7230   7222   7219   7231     1  0.0000000  0.6024960  3
   7231   7219   7218   7232     1  0.0000000  0.6508444  3
   7231   7219   7218   7240     1  0.0000000  4.9162000  2
   7231   7219   7218   7240     1  0.0000000  0.6024960  3
   7238   7232   7218   7240     1  0.0000000  4.9162000  2
   7238   7232   7218   7240     1  0.0000000  0.6024960  3
   7241   7242   7245   7246     1  180.0000771  0.8368000  1
   7241   7242   7245   7246     1  180.0000771  1.0460000  2
   7241   7242   7245   7246     1  0.0000000  0.7531200  3
   7241   7242   7245   7253     1  0.0000000  0.6508444  3
   7241   7263   7247   7251     1  180.0000771  5.6484000  1
   7241   7263   7247   7251     1  180.0000771  3.5564000  2
   7241   7263   7247   7251     1  0.0000000  0.4184000  3
   7241   7263   7247   7246     1  180.0000771  0.4184000  2
   7241   7263   7247   7246     1  0.0000000  1.6024720  3
   7242   7245   7246   7247     1  180.0000771  0.8368000  1
   7242   7245   7246   7247     1  180.0000771  1.0460000  2
   7242   7245   7246   7247     1  0.0000000  0.7531200  3
   7242   7245   7246   7252     1  0.0000000  0.6508444  3
   7242   7241   7255   7261     1  0.0000000  0.6508444  3
   7242   7241   7263   7247     1  180.0000771  0.4184000  2
   7242   7241   7263   7247     1  0.0000000  1.6024720  3
   7245   7246   7247   7251     1  0.0000000  0.6508444  3
   7245   7246   7247   7263     1  0.0000000  0.6508444  3
   7245   7242   7241   7255     1  180.0000771  0.8368000  1
   7245   7242   7241   7255     1  180.0000771  1.0460000  2
   7245   7242   7241   7255     1  0.0000000  0.7531200  3
   7245   7242   7241   7263     1  0.0000000  0.6508444  3
   7246   7245   7242   7254     1  0.0000000  0.6508444  3
   7247   7263   7241   7255     1  180.0000771  0.4184000  2
   7247   7263   7241   7255     1  0.0000000  1.6024720  3
   7247   7246   7245   7253     1  0.0000000  0.6508444  3
   7251   7247   7246   7252     1  0.0000000  4.9162000  2
   7251   7247   7246   7252     1  0.0000000  0.6024960  3
   7252   7246   7247   7263     1  0.0000000  4.9162000  2
   7252   7246   7247   7263     1  0.0000000  0.6024960  3
   7252   7246   7245   7253     1  0.0000000  4.9162000  2
   7252   7246   7245   7253     1  0.0000000  0.6024960  3
   7253   7245   7242   7254     1  0.0000000  4.9162000  2
   7253   7245   7242   7254     1  0.0000000  0.6024960  3
   7254   7242   7241   7255     1  0.0000000  0.6508444  3
   7254   7242   7241   7263     1  0.0000000  4.9162000  2
   7254   7242   7241   7263     1  0.0000000  0.6024960  3
   7261   7255   7241   7263     1  0.0000000  4.9162000  2
   7261   7255   7241   7263     1  0.0000000  0.6024960  3
   7264   7265   7268   7269     1  180.0000771  0.8368000  1
   7264   7265   7268   7269     1  180.0000771  1.0460000  2
   7264   7265   7268   7269     1  0.0000000  0.7531200  3
   7264   7265   7268   7276     1  0.0000000  0.6508444  3
   7264   7286   7270   7269     1  180.0000771  0.4184000  2
   7264   7286   7270   7269     1  0.0000000  1.6024720  3
   7264   7286   7270   7274     1  180.0000771  5.6484000  1
   7264   7286   7270   7274     1  180.0000771  3.5564000  2
   7264   7286   7270   7274     1  0.0000000  0.4184000  3
   7265   7264   7278   7284     1  0.0000000  0.6508444  3
   7265   7264   7286   7270     1  180.0000771  0.4184000  2
   7265   7264   7286   7270     1  0.0000000  1.6024720  3
   7265   7268   7269   7270     1  180.0000771  0.8368000  1
   7265   7268   7269   7270     1  180.0000771  1.0460000  2
   7265   7268   7269   7270     1  0.0000000  0.7531200  3
   7265   7268   7269   7275     1  0.0000000  0.6508444  3
   7268   7265   7264   7278     1  180.0000771  0.8368000  1
   7268   7265   7264   7278     1  180.0000771  1.0460000  2
   7268   7265   7264   7278     1  0.0000000  0.7531200  3
   7268   7265   7264   7286     1  0.0000000  0.6508444  3
   7268   7269   7270   7274     1  0.0000000  0.6508444  3
   7268   7269   7270   7286     1  0.0000000  0.6508444  3
   7269   7268   7265   7277     1  0.0000000  0.6508444  3
   7270   7269   7268   7276     1  0.0000000  0.6508444  3
   7270   7286   7264   7278     1  180.0000771  0.4184000  2
   7270   7286   7264   7278     1  0.0000000  1.6024720  3
   7274   7270   7269   7275     1  0.0000000  4.9162000  2
   7274   7270   7269   7275     1  0.0000000  0.6024960  3
   7275   7269   7268   7276     1  0.0000000  4.9162000  2
   7275   7269   7268   7276     1  0.0000000  0.6024960  3
   7275   7269   7270   7286     1  0.0000000  4.9162000  2
   7275   7269   7270   7286     1  0.0000000  0.6024960  3
   7276   7268   7265   7277     1  0.0000000  4.9162000  2
   7276   7268   7265   7277     1  0.0000000  0.6024960  3
   7277   7265   7264   7278     1  0.0000000  0.6508444  3
   7277   7265   7264   7286     1  0.0000000  4.9162000  2
   7277   7265   7264   7286     1  0.0000000  0.6024960  3
   7284   7278   7264   7286     1  0.0000000  4.9162000  2
   7284   7278   7264   7286     1  0.0000000  0.6024960  3
   7287   7288   7291   7292     1  180.0000771  0.8368000  1
   7287   7288   7291   7292     1  180.0000771  1.0460000  2
   7287   7288   7291   7292     1  0.0000000  0.7531200  3
   7287   7288   7291   7299     1  0.0000000  0.6508444  3
   7287   7309   7293   7297     1  180.0000771  5.6484000  1
   7287   7309   7293   7297     1  180.0000771  3.5564000  2
   7287   7309   7293   7297     1  0.0000000  0.4184000  3
   7287   7309   7293   7292     1  180.0000771  0.4184000  2
   7287   7309   7293   7292     1  0.0000000  1.6024720  3
   7288   7291   7292   7293     1  180.0000771  0.8368000  1
   7288   7291   7292   7293     1  180.0000771  1.0460000  2
   7288   7291   7292   7293     1  0.0000000  0.7531200  3
   7288   7291   7292   7298     1  0.0000000  0.6508444  3
   7288   7287   7301   7307     1  0.0000000  0.6508444  3
   7288   7287   7309   7293     1  180.0000771  0.4184000  2
   7288   7287   7309   7293     1  0.0000000  1.6024720  3
   7291   7292   7293   7297     1  0.0000000  0.6508444  3
   7291   7292   7293   7309     1  0.0000000  0.6508444  3
   7291   7288   7287   7301     1  180.0000771  0.8368000  1
   7291   7288   7287   7301     1  180.0000771  1.0460000  2
   7291   7288   7287   7301     1  0.0000000  0.7531200  3
   7291   7288   7287   7309     1  0.0000000  0.6508444  3
   7292   7291   7288   7300     1  0.0000000  0.6508444  3
   7293   7309   7287   7301     1  180.0000771  0.4184000  2
   7293   7309   7287   7301     1  0.0000000  1.6024720  3
   7293   7292   7291   7299     1  0.0000000  0.6508444  3
   7297   7293   7292   7298     1  0.0000000  4.9162000  2
   7297   7293   7292   7298     1  0.0000000  0.6024960  3
   7298   7292   7293   7309     1  0.0000000  4.9162000  2
   7298   7292   7293   7309     1  0.0000000  0.6024960  3
   7298   7292   7291   7299     1  0.0000000  4.9162000  2
   7298   7292   7291   7299     1  0.0000000  0.6024960  3
   7299   7291   7288   7300     1  0.0000000  4.9162000  2
   7299   7291   7288   7300     1  0.0000000  0.6024960  3
   7300   7288   7287   7301     1  0.0000000  0.6508444  3
   7300   7288   7287   7309     1  0.0000000  4.9162000  2
   7300   7288   7287   7309     1  0.0000000  0.6024960  3
   7307   7301   7287   7309     1  0.0000000  4.9162000  2
   7307   7301   7287   7309     1  0.0000000  0.6024960  3
   7310   7311   7314   7315     1  180.0000771  0.8368000  1
   7310   7311   7314   7315     1  180.0000771  1.0460000  2
   7310   7311   7314   7315     1  0.0000000  0.7531200  3
   7310   7311   7314   7322     1  0.0000000  0.6508444  3
   7310   7332   7316   7315     1  180.0000771  0.4184000  2
   7310   7332   7316   7315     1  0.0000000  1.6024720  3
   7310   7332   7316   7320     1  180.0000771  5.6484000  1
   7310   7332   7316   7320     1  180.0000771  3.5564000  2
   7310   7332   7316   7320     1  0.0000000  0.4184000  3
   7311   7310   7324   7330     1  0.0000000  0.6508444  3
   7311   7310   7332   7316     1  180.0000771  0.4184000  2
   7311   7310   7332   7316     1  0.0000000  1.6024720  3
   7311   7314   7315   7316     1  180.0000771  0.8368000  1
   7311   7314   7315   7316     1  180.0000771  1.0460000  2
   7311   7314   7315   7316     1  0.0000000  0.7531200  3
   7311   7314   7315   7321     1  0.0000000  0.6508444  3
   7314   7311   7310   7324     1  180.0000771  0.8368000  1
   7314   7311   7310   7324     1  180.0000771  1.0460000  2
   7314   7311   7310   7324     1  0.0000000  0.7531200  3
   7314   7311   7310   7332     1  0.0000000  0.6508444  3
   7314   7315   7316   7320     1  0.0000000  0.6508444  3
   7314   7315   7316   7332     1  0.0000000  0.6508444  3
   7315   7314   7311   7323     1  0.0000000  0.6508444  3
   7316   7315   7314   7322     1  0.0000000  0.6508444  3
   7316   7332   7310   7324     1  180.0000771  0.4184000  2
   7316   7332   7310   7324     1  0.0000000  1.6024720  3
   7320   7316   7315   7321     1  0.0000000  4.9162000  2
   7320   7316   7315   7321     1  0.0000000  0.6024960  3
   7321   7315   7314   7322     1  0.0000000  4.9162000  2
   7321   7315   7314   7322     1  0.0000000  0.6024960  3
   7321   7315   7316   7332     1  0.0000000  4.9162000  2
   7321   7315   7316   7332     1  0.0000000  0.6024960  3
   7322   7314   7311   7323     1  0.0000000  4.9162000  2
   7322   7314   7311   7323     1  0.0000000  0.6024960  3
   7323   7311   7310   7324     1  0.0000000  0.6508444  3
   7323   7311   7310   7332     1  0.0000000  4.9162000  2
   7323   7311   7310   7332     1  0.0000000  0.6024960  3
   7330   7324   7310   7332     1  0.0000000  4.9162000  2
   7330   7324   7310   7332     1  0.0000000  0.6024960  3
   7333   7334   7337   7338     1  180.0000771  0.8368000  1
   7333   7334   7337   7338     1  180.0000771  1.0460000  2
   7333   7334   7337   7338     1  0.0000000  0.7531200  3
   7333   7334   7337   7345     1  0.0000000  0.6508444  3
   7333   7355   7339   7343     1  180.0000771  5.6484000  1
   7333   7355   7339   7343     1  180.0000771  3.5564000  2
   7333   7355   7339   7343     1  0.0000000  0.4184000  3
   7333   7355   7339   7338     1  180.0000771  0.4184000  2
   7333   7355   7339   7338     1  0.0000000  1.6024720  3
   7334   7337   7338   7339     1  180.0000771  0.8368000  1
   7334   7337   7338   7339     1  180.0000771  1.0460000  2
   7334   7337   7338   7339     1  0.0000000  0.7531200  3
   7334   7337   7338   7344     1  0.0000000  0.6508444  3
   7334   7333   7347   7353     1  0.0000000  0.6508444  3
   7334   7333   7355   7339     1  180.0000771  0.4184000  2
   7334   7333   7355   7339     1  0.0000000  1.6024720  3
   7337   7338   7339   7343     1  0.0000000  0.6508444  3
   7337   7338   7339   7355     1  0.0000000  0.6508444  3
   7337   7334   7333   7347     1  180.0000771  0.8368000  1
   7337   7334   7333   7347     1  180.0000771  1.0460000  2
   7337   7334   7333   7347     1  0.0000000  0.7531200  3
   7337   7334   7333   7355     1  0.0000000  0.6508444  3
   7338   7337   7334   7346     1  0.0000000  0.6508444  3
   7339   7355   7333   7347     1  180.0000771  0.4184000  2
   7339   7355   7333   7347     1  0.0000000  1.6024720  3
   7339   7338   7337   7345     1  0.0000000  0.6508444  3
   7343   7339   7338   7344     1  0.0000000  4.9162000  2
   7343   7339   7338   7344     1  0.0000000  0.6024960  3
   7344   7338   7339   7355     1  0.0000000  4.9162000  2
   7344   7338   7339   7355     1  0.0000000  0.6024960  3
   7344   7338   7337   7345     1  0.0000000  4.9162000  2
   7344   7338   7337   7345     1  0.0000000  0.6024960  3
   7345   7337   7334   7346     1  0.0000000  4.9162000  2
   7345   7337   7334   7346     1  0.0000000  0.6024960  3
   7346   7334   7333   7347     1  0.0000000  0.6508444  3
   7346   7334   7333   7355     1  0.0000000  4.9162000  2
   7346   7334   7333   7355     1  0.0000000  0.6024960  3
   7353   7347   7333   7355     1  0.0000000  4.9162000  2
   7353   7347   7333   7355     1  0.0000000  0.6024960  3
   7356   7357   7360   7361     1  180.0000771  0.8368000  1
   7356   7357   7360   7361     1  180.0000771  1.0460000  2
   7356   7357   7360   7361     1  0.0000000  0.7531200  3
   7356   7357   7360   7368     1  0.0000000  0.6508444  3
   7356   7378   7362   7361     1  180.0000771  0.4184000  2
   7356   7378   7362   7361     1  0.0000000  1.6024720  3
   7356   7378   7362   7366     1  180.0000771  5.6484000  1
   7356   7378   7362   7366     1  180.0000771  3.5564000  2
   7356   7378   7362   7366     1  0.0000000  0.4184000  3
   7357   7356   7370   7376     1  0.0000000  0.6508444  3
   7357   7356   7378   7362     1  180.0000771  0.4184000  2
   7357   7356   7378   7362     1  0.0000000  1.6024720  3
   7357   7360   7361   7362     1  180.0000771  0.8368000  1
   7357   7360   7361   7362     1  180.0000771  1.0460000  2
   7357   7360   7361   7362     1  0.0000000  0.7531200  3
   7357   7360   7361   7367     1  0.0000000  0.6508444  3
   7360   7357   7356   7370     1  180.0000771  0.8368000  1
   7360   7357   7356   7370     1  180.0000771  1.0460000  2
   7360   7357   7356   7370     1  0.0000000  0.7531200  3
   7360   7357   7356   7378     1  0.0000000  0.6508444  3
   7360   7361   7362   7366     1  0.0000000  0.6508444  3
   7360   7361   7362   7378     1  0.0000000  0.6508444  3
   7361   7360   7357   7369     1  0.0000000  0.6508444  3
   7362   7361   7360   7368     1  0.0000000  0.6508444  3
   7362   7378   7356   7370     1  180.0000771  0.4184000  2
   7362   7378   7356   7370     1  0.0000000  1.6024720  3
   7366   7362   7361   7367     1  0.0000000  4.9162000  2
   7366   7362   7361   7367     1  0.0000000  0.6024960  3
   7367   7361   7360   7368     1  0.0000000  4.9162000  2
   7367   7361   7360   7368     1  0.0000000  0.6024960  3
   7367   7361   7362   7378     1  0.0000000  4.9162000  2
   7367   7361   7362   7378     1  0.0000000  0.6024960  3
   7368   7360   7357   7369     1  0.0000000  4.9162000  2
   7368   7360   7357   7369     1  0.0000000  0.6024960  3
   7369   7357   7356   7370     1  0.0000000  0.6508444  3
   7369   7357   7356   7378     1  0.0000000  4.9162000  2
   7369   7357   7356   7378     1  0.0000000  0.6024960  3
   7376   7370   7356   7378     1  0.0000000  4.9162000  2
   7376   7370   7356   7378     1  0.0000000  0.6024960  3
   7379   7380   7383   7384     1  180.0000771  0.8368000  1
   7379   7380   7383   7384     1  180.0000771  1.0460000  2
   7379   7380   7383   7384     1  0.0000000  0.7531200  3
   7379   7380   7383   7391     1  0.0000000  0.6508444  3
   7379   7401   7385   7389     1  180.0000771  5.6484000  1
   7379   7401   7385   7389     1  180.0000771  3.5564000  2
   7379   7401   7385   7389     1  0.0000000  0.4184000  3
   7379   7401   7385   7384     1  180.0000771  0.4184000  2
   7379   7401   7385   7384     1  0.0000000  1.6024720  3
   7380   7383   7384   7385     1  180.0000771  0.8368000  1
   7380   7383   7384   7385     1  180.0000771  1.0460000  2
   7380   7383   7384   7385     1  0.0000000  0.7531200  3
   7380   7383   7384   7390     1  0.0000000  0.6508444  3
   7380   7379   7393   7399     1  0.0000000  0.6508444  3
   7380   7379   7401   7385     1  180.0000771  0.4184000  2
   7380   7379   7401   7385     1  0.0000000  1.6024720  3
   7383   7384   7385   7389     1  0.0000000  0.6508444  3
   7383   7384   7385   7401     1  0.0000000  0.6508444  3
   7383   7380   7379   7393     1  180.0000771  0.8368000  1
   7383   7380   7379   7393     1  180.0000771  1.0460000  2
   7383   7380   7379   7393     1  0.0000000  0.7531200  3
   7383   7380   7379   7401     1  0.0000000  0.6508444  3
   7384   7383   7380   7392     1  0.0000000  0.6508444  3
   7385   7401   7379   7393     1  180.0000771  0.4184000  2
   7385   7401   7379   7393     1  0.0000000  1.6024720  3
   7385   7384   7383   7391     1  0.0000000  0.6508444  3
   7389   7385   7384   7390     1  0.0000000  4.9162000  2
   7389   7385   7384   7390     1  0.0000000  0.6024960  3
   7390   7384   7385   7401     1  0.0000000  4.9162000  2
   7390   7384   7385   7401     1  0.0000000  0.6024960  3
   7390   7384   7383   7391     1  0.0000000  4.9162000  2
   7390   7384   7383   7391     1  0.0000000  0.6024960  3
   7391   7383   7380   7392     1  0.0000000  4.9162000  2
   7391   7383   7380   7392     1  0.0000000  0.6024960  3
   7392   7380   7379   7393     1  0.0000000  0.6508444  3
   7392   7380   7379   7401     1  0.0000000  4.9162000  2
   7392   7380   7379   7401     1  0.0000000  0.6024960  3
   7399   7393   7379   7401     1  0.0000000  4.9162000  2
   7399   7393   7379   7401     1  0.0000000  0.6024960  3
   7402   7403   7406   7407     1  180.0000771  0.8368000  1
   7402   7403   7406   7407     1  180.0000771  1.0460000  2
   7402   7403   7406   7407     1  0.0000000  0.7531200  3
   7402   7403   7406   7414     1  0.0000000  0.6508444  3
   7402   7424   7408   7407     1  180.0000771  0.4184000  2
   7402   7424   7408   7407     1  0.0000000  1.6024720  3
   7402   7424   7408   7412     1  180.0000771  5.6484000  1
   7402   7424   7408   7412     1  180.0000771  3.5564000  2
   7402   7424   7408   7412     1  0.0000000  0.4184000  3
   7403   7402   7416   7422     1  0.0000000  0.6508444  3
   7403   7402   7424   7408     1  180.0000771  0.4184000  2
   7403   7402   7424   7408     1  0.0000000  1.6024720  3
   7403   7406   7407   7408     1  180.0000771  0.8368000  1
   7403   7406   7407   7408     1  180.0000771  1.0460000  2
   7403   7406   7407   7408     1  0.0000000  0.7531200  3
   7403   7406   7407   7413     1  0.0000000  0.6508444  3
   7406   7403   7402   7416     1  180.0000771  0.8368000  1
   7406   7403   7402   7416     1  180.0000771  1.0460000  2
   7406   7403   7402   7416     1  0.0000000  0.7531200  3
   7406   7403   7402   7424     1  0.0000000  0.6508444  3
   7406   7407   7408   7412     1  0.0000000  0.6508444  3
   7406   7407   7408   7424     1  0.0000000  0.6508444  3
   7407   7406   7403   7415     1  0.0000000  0.6508444  3
   7408   7407   7406   7414     1  0.0000000  0.6508444  3
   7408   7424   7402   7416     1  180.0000771  0.4184000  2
   7408   7424   7402   7416     1  0.0000000  1.6024720  3
   7412   7408   7407   7413     1  0.0000000  4.9162000  2
   7412   7408   7407   7413     1  0.0000000  0.6024960  3
   7413   7407   7406   7414     1  0.0000000  4.9162000  2
   7413   7407   7406   7414     1  0.0000000  0.6024960  3
   7413   7407   7408   7424     1  0.0000000  4.9162000  2
   7413   7407   7408   7424     1  0.0000000  0.6024960  3
   7414   7406   7403   7415     1  0.0000000  4.9162000  2
   7414   7406   7403   7415     1  0.0000000  0.6024960  3
   7415   7403   7402   7416     1  0.0000000  0.6508444  3
   7415   7403   7402   7424     1  0.0000000  4.9162000  2
   7415   7403   7402   7424     1  0.0000000  0.6024960  3
   7422   7416   7402   7424     1  0.0000000  4.9162000  2
   7422   7416   7402   7424     1  0.0000000  0.6024960  3
   7425   7426   7429   7430     1  180.0000771  0.8368000  1
   7425   7426   7429   7430     1  180.0000771  1.0460000  2
   7425   7426   7429   7430     1  0.0000000  0.7531200  3
   7425   7426   7429   7437     1  0.0000000  0.6508444  3
   7425   7447   7431   7435     1  180.0000771  5.6484000  1
   7425   7447   7431   7435     1  180.0000771  3.5564000  2
   7425   7447   7431   7435     1  0.0000000  0.4184000  3
   7425   7447   7431   7430     1  180.0000771  0.4184000  2
   7425   7447   7431   7430     1  0.0000000  1.6024720  3
   7426   7429   7430   7431     1  180.0000771  0.8368000  1
   7426   7429   7430   7431     1  180.0000771  1.0460000  2
   7426   7429   7430   7431     1  0.0000000  0.7531200  3
   7426   7429   7430   7436     1  0.0000000  0.6508444  3
   7426   7425   7439   7445     1  0.0000000  0.6508444  3
   7426   7425   7447   7431     1  180.0000771  0.4184000  2
   7426   7425   7447   7431     1  0.0000000  1.6024720  3
   7429   7430   7431   7435     1  0.0000000  0.6508444  3
   7429   7430   7431   7447     1  0.0000000  0.6508444  3
   7429   7426   7425   7439     1  180.0000771  0.8368000  1
   7429   7426   7425   7439     1  180.0000771  1.0460000  2
   7429   7426   7425   7439     1  0.0000000  0.7531200  3
   7429   7426   7425   7447     1  0.0000000  0.6508444  3
   7430   7429   7426   7438     1  0.0000000  0.6508444  3
   7431   7447   7425   7439     1  180.0000771  0.4184000  2
   7431   7447   7425   7439     1  0.0000000  1.6024720  3
   7431   7430   7429   7437     1  0.0000000  0.6508444  3
   7435   7431   7430   7436     1  0.0000000  4.9162000  2
   7435   7431   7430   7436     1  0.0000000  0.6024960  3
   7436   7430   7431   7447     1  0.0000000  4.9162000  2
   7436   7430   7431   7447     1  0.0000000  0.6024960  3
   7436   7430   7429   7437     1  0.0000000  4.9162000  2
   7436   7430   7429   7437     1  0.0000000  0.6024960  3
   7437   7429   7426   7438     1  0.0000000  4.9162000  2
   7437   7429   7426   7438     1  0.0000000  0.6024960  3
   7438   7426   7425   7439     1  0.0000000  0.6508444  3
   7438   7426   7425   7447     1  0.0000000  4.9162000  2
   7438   7426   7425   7447     1  0.0000000  0.6024960  3
   7445   7439   7425   7447     1  0.0000000  4.9162000  2
   7445   7439   7425   7447     1  0.0000000  0.6024960  3
   7448   7449   7452   7453     1  180.0000771  0.8368000  1
   7448   7449   7452   7453     1  180.0000771  1.0460000  2
   7448   7449   7452   7453     1  0.0000000  0.7531200  3
   7448   7449   7452   7460     1  0.0000000  0.6508444  3
   7448   7470   7454   7453     1  180.0000771  0.4184000  2
   7448   7470   7454   7453     1  0.0000000  1.6024720  3
   7448   7470   7454   7458     1  180.0000771  5.6484000  1
   7448   7470   7454   7458     1  180.0000771  3.5564000  2
   7448   7470   7454   7458     1  0.0000000  0.4184000  3
   7449   7448   7462   7468     1  0.0000000  0.6508444  3
   7449   7448   7470   7454     1  180.0000771  0.4184000  2
   7449   7448   7470   7454     1  0.0000000  1.6024720  3
   7449   7452   7453   7454     1  180.0000771  0.8368000  1
   7449   7452   7453   7454     1  180.0000771  1.0460000  2
   7449   7452   7453   7454     1  0.0000000  0.7531200  3
   7449   7452   7453   7459     1  0.0000000  0.6508444  3
   7452   7449   7448   7462     1  180.0000771  0.8368000  1
   7452   7449   7448   7462     1  180.0000771  1.0460000  2
   7452   7449   7448   7462     1  0.0000000  0.7531200  3
   7452   7449   7448   7470     1  0.0000000  0.6508444  3
   7452   7453   7454   7458     1  0.0000000  0.6508444  3
   7452   7453   7454   7470     1  0.0000000  0.6508444  3
   7453   7452   7449   7461     1  0.0000000  0.6508444  3
   7454   7453   7452   7460     1  0.0000000  0.6508444  3
   7454   7470   7448   7462     1  180.0000771  0.4184000  2
   7454   7470   7448   7462     1  0.0000000  1.6024720  3
   7458   7454   7453   7459     1  0.0000000  4.9162000  2
   7458   7454   7453   7459     1  0.0000000  0.6024960  3
   7459   7453   7452   7460     1  0.0000000  4.9162000  2
   7459   7453   7452   7460     1  0.0000000  0.6024960  3
   7459   7453   7454   7470     1  0.0000000  4.9162000  2
   7459   7453   7454   7470     1  0.0000000  0.6024960  3
   7460   7452   7449   7461     1  0.0000000  4.9162000  2
   7460   7452   7449   7461     1  0.0000000  0.6024960  3
   7461   7449   7448   7462     1  0.0000000  0.6508444  3
   7461   7449   7448   7470     1  0.0000000  4.9162000  2
   7461   7449   7448   7470     1  0.0000000  0.6024960  3
   7468   7462   7448   7470     1  0.0000000  4.9162000  2
   7468   7462   7448   7470     1  0.0000000  0.6024960  3
   7471   7472   7475   7476     1  180.0000771  0.8368000  1
   7471   7472   7475   7476     1  180.0000771  1.0460000  2
   7471   7472   7475   7476     1  0.0000000  0.7531200  3
   7471   7472   7475   7483     1  0.0000000  0.6508444  3
   7471   7493   7477   7481     1  180.0000771  5.6484000  1
   7471   7493   7477   7481     1  180.0000771  3.5564000  2
   7471   7493   7477   7481     1  0.0000000  0.4184000  3
   7471   7493   7477   7476     1  180.0000771  0.4184000  2
   7471   7493   7477   7476     1  0.0000000  1.6024720  3
   7472   7475   7476   7477     1  180.0000771  0.8368000  1
   7472   7475   7476   7477     1  180.0000771  1.0460000  2
   7472   7475   7476   7477     1  0.0000000  0.7531200  3
   7472   7475   7476   7482     1  0.0000000  0.6508444  3
   7472   7471   7485   7491     1  0.0000000  0.6508444  3
   7472   7471   7493   7477     1  180.0000771  0.4184000  2
   7472   7471   7493   7477     1  0.0000000  1.6024720  3
   7475   7476   7477   7481     1  0.0000000  0.6508444  3
   7475   7476   7477   7493     1  0.0000000  0.6508444  3
   7475   7472   7471   7485     1  180.0000771  0.8368000  1
   7475   7472   7471   7485     1  180.0000771  1.0460000  2
   7475   7472   7471   7485     1  0.0000000  0.7531200  3
   7475   7472   7471   7493     1  0.0000000  0.6508444  3
   7476   7475   7472   7484     1  0.0000000  0.6508444  3
   7477   7493   7471   7485     1  180.0000771  0.4184000  2
   7477   7493   7471   7485     1  0.0000000  1.6024720  3
   7477   7476   7475   7483     1  0.0000000  0.6508444  3
   7481   7477   7476   7482     1  0.0000000  4.9162000  2
   7481   7477   7476   7482     1  0.0000000  0.6024960  3
   7482   7476   7477   7493     1  0.0000000  4.9162000  2
   7482   7476   7477   7493     1  0.0000000  0.6024960  3
   7482   7476   7475   7483     1  0.0000000  4.9162000  2
   7482   7476   7475   7483     1  0.0000000  0.6024960  3
   7483   7475   7472   7484     1  0.0000000  4.9162000  2
   7483   7475   7472   7484     1  0.0000000  0.6024960  3
   7484   7472   7471   7485     1  0.0000000  0.6508444  3
   7484   7472   7471   7493     1  0.0000000  4.9162000  2
   7484   7472   7471   7493     1  0.0000000  0.6024960  3
   7491   7485   7471   7493     1  0.0000000  4.9162000  2
   7491   7485   7471   7493     1  0.0000000  0.6024960  3
   7494   7495   7498   7499     1  180.0000771  0.8368000  1
   7494   7495   7498   7499     1  180.0000771  1.0460000  2
   7494   7495   7498   7499     1  0.0000000  0.7531200  3
   7494   7495   7498   7506     1  0.0000000  0.6508444  3
   7494   7516   7500   7499     1  180.0000771  0.4184000  2
   7494   7516   7500   7499     1  0.0000000  1.6024720  3
   7494   7516   7500   7504     1  180.0000771  5.6484000  1
   7494   7516   7500   7504     1  180.0000771  3.5564000  2
   7494   7516   7500   7504     1  0.0000000  0.4184000  3
   7495   7494   7508   7514     1  0.0000000  0.6508444  3
   7495   7494   7516   7500     1  180.0000771  0.4184000  2
   7495   7494   7516   7500     1  0.0000000  1.6024720  3
   7495   7498   7499   7500     1  180.0000771  0.8368000  1
   7495   7498   7499   7500     1  180.0000771  1.0460000  2
   7495   7498   7499   7500     1  0.0000000  0.7531200  3
   7495   7498   7499   7505     1  0.0000000  0.6508444  3
   7498   7495   7494   7508     1  180.0000771  0.8368000  1
   7498   7495   7494   7508     1  180.0000771  1.0460000  2
   7498   7495   7494   7508     1  0.0000000  0.7531200  3
   7498   7495   7494   7516     1  0.0000000  0.6508444  3
   7498   7499   7500   7504     1  0.0000000  0.6508444  3
   7498   7499   7500   7516     1  0.0000000  0.6508444  3
   7499   7498   7495   7507     1  0.0000000  0.6508444  3
   7500   7499   7498   7506     1  0.0000000  0.6508444  3
   7500   7516   7494   7508     1  180.0000771  0.4184000  2
   7500   7516   7494   7508     1  0.0000000  1.6024720  3
   7504   7500   7499   7505     1  0.0000000  4.9162000  2
   7504   7500   7499   7505     1  0.0000000  0.6024960  3
   7505   7499   7498   7506     1  0.0000000  4.9162000  2
   7505   7499   7498   7506     1  0.0000000  0.6024960  3
   7505   7499   7500   7516     1  0.0000000  4.9162000  2
   7505   7499   7500   7516     1  0.0000000  0.6024960  3
   7506   7498   7495   7507     1  0.0000000  4.9162000  2
   7506   7498   7495   7507     1  0.0000000  0.6024960  3
   7507   7495   7494   7508     1  0.0000000  0.6508444  3
   7507   7495   7494   7516     1  0.0000000  4.9162000  2
   7507   7495   7494   7516     1  0.0000000  0.6024960  3
   7514   7508   7494   7516     1  0.0000000  4.9162000  2
   7514   7508   7494   7516     1  0.0000000  0.6024960  3
   7517   7518   7521   7522     1  180.0000771  0.8368000  1
   7517   7518   7521   7522     1  180.0000771  1.0460000  2
   7517   7518   7521   7522     1  0.0000000  0.7531200  3
   7517   7518   7521   7529     1  0.0000000  0.6508444  3
   7517   7539   7523   7527     1  180.0000771  5.6484000  1
   7517   7539   7523   7527     1  180.0000771  3.5564000  2
   7517   7539   7523   7527     1  0.0000000  0.4184000  3
   7517   7539   7523   7522     1  180.0000771  0.4184000  2
   7517   7539   7523   7522     1  0.0000000  1.6024720  3
   7518   7521   7522   7523     1  180.0000771  0.8368000  1
   7518   7521   7522   7523     1  180.0000771  1.0460000  2
   7518   7521   7522   7523     1  0.0000000  0.7531200  3
   7518   7521   7522   7528     1  0.0000000  0.6508444  3
   7518   7517   7531   7537     1  0.0000000  0.6508444  3
   7518   7517   7539   7523     1  180.0000771  0.4184000  2
   7518   7517   7539   7523     1  0.0000000  1.6024720  3
   7521   7522   7523   7527     1  0.0000000  0.6508444  3
   7521   7522   7523   7539     1  0.0000000  0.6508444  3
   7521   7518   7517   7531     1  180.0000771  0.8368000  1
   7521   7518   7517   7531     1  180.0000771  1.0460000  2
   7521   7518   7517   7531     1  0.0000000  0.7531200  3
   7521   7518   7517   7539     1  0.0000000  0.6508444  3
   7522   7521   7518   7530     1  0.0000000  0.6508444  3
   7523   7539   7517   7531     1  180.0000771  0.4184000  2
   7523   7539   7517   7531     1  0.0000000  1.6024720  3
   7523   7522   7521   7529     1  0.0000000  0.6508444  3
   7527   7523   7522   7528     1  0.0000000  4.9162000  2
   7527   7523   7522   7528     1  0.0000000  0.6024960  3
   7528   7522   7523   7539     1  0.0000000  4.9162000  2
   7528   7522   7523   7539     1  0.0000000  0.6024960  3
   7528   7522   7521   7529     1  0.0000000  4.9162000  2
   7528   7522   7521   7529     1  0.0000000  0.6024960  3
   7529   7521   7518   7530     1  0.0000000  4.9162000  2
   7529   7521   7518   7530     1  0.0000000  0.6024960  3
   7530   7518   7517   7531     1  0.0000000  0.6508444  3
   7530   7518   7517   7539     1  0.0000000  4.9162000  2
   7530   7518   7517   7539     1  0.0000000  0.6024960  3
   7537   7531   7517   7539     1  0.0000000  4.9162000  2
   7537   7531   7517   7539     1  0.0000000  0.6024960  3
   7540   7541   7544   7545     1  180.0000771  0.8368000  1
   7540   7541   7544   7545     1  180.0000771  1.0460000  2
   7540   7541   7544   7545     1  0.0000000  0.7531200  3
   7540   7541   7544   7552     1  0.0000000  0.6508444  3
   7540   7562   7546   7545     1  180.0000771  0.4184000  2
   7540   7562   7546   7545     1  0.0000000  1.6024720  3
   7540   7562   7546   7550     1  180.0000771  5.6484000  1
   7540   7562   7546   7550     1  180.0000771  3.5564000  2
   7540   7562   7546   7550     1  0.0000000  0.4184000  3
   7541   7540   7554   7560     1  0.0000000  0.6508444  3
   7541   7540   7562   7546     1  180.0000771  0.4184000  2
   7541   7540   7562   7546     1  0.0000000  1.6024720  3
   7541   7544   7545   7546     1  180.0000771  0.8368000  1
   7541   7544   7545   7546     1  180.0000771  1.0460000  2
   7541   7544   7545   7546     1  0.0000000  0.7531200  3
   7541   7544   7545   7551     1  0.0000000  0.6508444  3
   7544   7541   7540   7554     1  180.0000771  0.8368000  1
   7544   7541   7540   7554     1  180.0000771  1.0460000  2
   7544   7541   7540   7554     1  0.0000000  0.7531200  3
   7544   7541   7540   7562     1  0.0000000  0.6508444  3
   7544   7545   7546   7550     1  0.0000000  0.6508444  3
   7544   7545   7546   7562     1  0.0000000  0.6508444  3
   7545   7544   7541   7553     1  0.0000000  0.6508444  3
   7546   7545   7544   7552     1  0.0000000  0.6508444  3
   7546   7562   7540   7554     1  180.0000771  0.4184000  2
   7546   7562   7540   7554     1  0.0000000  1.6024720  3
   7550   7546   7545   7551     1  0.0000000  4.9162000  2
   7550   7546   7545   7551     1  0.0000000  0.6024960  3
   7551   7545   7544   7552     1  0.0000000  4.9162000  2
   7551   7545   7544   7552     1  0.0000000  0.6024960  3
   7551   7545   7546   7562     1  0.0000000  4.9162000  2
   7551   7545   7546   7562     1  0.0000000  0.6024960  3
   7552   7544   7541   7553     1  0.0000000  4.9162000  2
   7552   7544   7541   7553     1  0.0000000  0.6024960  3
   7553   7541   7540   7554     1  0.0000000  0.6508444  3
   7553   7541   7540   7562     1  0.0000000  4.9162000  2
   7553   7541   7540   7562     1  0.0000000  0.6024960  3
   7560   7554   7540   7562     1  0.0000000  4.9162000  2
   7560   7554   7540   7562     1  0.0000000  0.6024960  3
   7563   7564   7567   7568     1  180.0000771  0.8368000  1
   7563   7564   7567   7568     1  180.0000771  1.0460000  2
   7563   7564   7567   7568     1  0.0000000  0.7531200  3
   7563   7564   7567   7575     1  0.0000000  0.6508444  3
   7563   7585   7569   7573     1  180.0000771  5.6484000  1
   7563   7585   7569   7573     1  180.0000771  3.5564000  2
   7563   7585   7569   7573     1  0.0000000  0.4184000  3
   7563   7585   7569   7568     1  180.0000771  0.4184000  2
   7563   7585   7569   7568     1  0.0000000  1.6024720  3
   7564   7567   7568   7569     1  180.0000771  0.8368000  1
   7564   7567   7568   7569     1  180.0000771  1.0460000  2
   7564   7567   7568   7569     1  0.0000000  0.7531200  3
   7564   7567   7568   7574     1  0.0000000  0.6508444  3
   7564   7563   7577   7583     1  0.0000000  0.6508444  3
   7564   7563   7585   7569     1  180.0000771  0.4184000  2
   7564   7563   7585   7569     1  0.0000000  1.6024720  3
   7567   7568   7569   7573     1  0.0000000  0.6508444  3
   7567   7568   7569   7585     1  0.0000000  0.6508444  3
   7567   7564   7563   7577     1  180.0000771  0.8368000  1
   7567   7564   7563   7577     1  180.0000771  1.0460000  2
   7567   7564   7563   7577     1  0.0000000  0.7531200  3
   7567   7564   7563   7585     1  0.0000000  0.6508444  3
   7568   7567   7564   7576     1  0.0000000  0.6508444  3
   7569   7585   7563   7577     1  180.0000771  0.4184000  2
   7569   7585   7563   7577     1  0.0000000  1.6024720  3
   7569   7568   7567   7575     1  0.0000000  0.6508444  3
   7573   7569   7568   7574     1  0.0000000  4.9162000  2
   7573   7569   7568   7574     1  0.0000000  0.6024960  3
   7574   7568   7569   7585     1  0.0000000  4.9162000  2
   7574   7568   7569   7585     1  0.0000000  0.6024960  3
   7574   7568   7567   7575     1  0.0000000  4.9162000  2
   7574   7568   7567   7575     1  0.0000000  0.6024960  3
   7575   7567   7564   7576     1  0.0000000  4.9162000  2
   7575   7567   7564   7576     1  0.0000000  0.6024960  3
   7576   7564   7563   7577     1  0.0000000  0.6508444  3
   7576   7564   7563   7585     1  0.0000000  4.9162000  2
   7576   7564   7563   7585     1  0.0000000  0.6024960  3
   7583   7577   7563   7585     1  0.0000000  4.9162000  2
   7583   7577   7563   7585     1  0.0000000  0.6024960  3
   7586   7587   7590   7591     1  180.0000771  0.8368000  1
   7586   7587   7590   7591     1  180.0000771  1.0460000  2
   7586   7587   7590   7591     1  0.0000000  0.7531200  3
   7586   7587   7590   7598     1  0.0000000  0.6508444  3
   7586   7608   7592   7591     1  180.0000771  0.4184000  2
   7586   7608   7592   7591     1  0.0000000  1.6024720  3
   7586   7608   7592   7596     1  180.0000771  5.6484000  1
   7586   7608   7592   7596     1  180.0000771  3.5564000  2
   7586   7608   7592   7596     1  0.0000000  0.4184000  3
   7587   7586   7600   7606     1  0.0000000  0.6508444  3
   7587   7586   7608   7592     1  180.0000771  0.4184000  2
   7587   7586   7608   7592     1  0.0000000  1.6024720  3
   7587   7590   7591   7592     1  180.0000771  0.8368000  1
   7587   7590   7591   7592     1  180.0000771  1.0460000  2
   7587   7590   7591   7592     1  0.0000000  0.7531200  3
   7587   7590   7591   7597     1  0.0000000  0.6508444  3
   7590   7587   7586   7600     1  180.0000771  0.8368000  1
   7590   7587   7586   7600     1  180.0000771  1.0460000  2
   7590   7587   7586   7600     1  0.0000000  0.7531200  3
   7590   7587   7586   7608     1  0.0000000  0.6508444  3
   7590   7591   7592   7596     1  0.0000000  0.6508444  3
   7590   7591   7592   7608     1  0.0000000  0.6508444  3
   7591   7590   7587   7599     1  0.0000000  0.6508444  3
   7592   7591   7590   7598     1  0.0000000  0.6508444  3
   7592   7608   7586   7600     1  180.0000771  0.4184000  2
   7592   7608   7586   7600     1  0.0000000  1.6024720  3
   7596   7592   7591   7597     1  0.0000000  4.9162000  2
   7596   7592   7591   7597     1  0.0000000  0.6024960  3
   7597   7591   7590   7598     1  0.0000000  4.9162000  2
   7597   7591   7590   7598     1  0.0000000  0.6024960  3
   7597   7591   7592   7608     1  0.0000000  4.9162000  2
   7597   7591   7592   7608     1  0.0000000  0.6024960  3
   7598   7590   7587   7599     1  0.0000000  4.9162000  2
   7598   7590   7587   7599     1  0.0000000  0.6024960  3
   7599   7587   7586   7600     1  0.0000000  0.6508444  3
   7599   7587   7586   7608     1  0.0000000  4.9162000  2
   7599   7587   7586   7608     1  0.0000000  0.6024960  3
   7606   7600   7586   7608     1  0.0000000  4.9162000  2
   7606   7600   7586   7608     1  0.0000000  0.6024960  3
   7609   7610   7613   7614     1  180.0000771  0.8368000  1
   7609   7610   7613   7614     1  180.0000771  1.0460000  2
   7609   7610   7613   7614     1  0.0000000  0.7531200  3
   7609   7610   7613   7621     1  0.0000000  0.6508444  3
   7609   7631   7615   7619     1  180.0000771  5.6484000  1
   7609   7631   7615   7619     1  180.0000771  3.5564000  2
   7609   7631   7615   7619     1  0.0000000  0.4184000  3
   7609   7631   7615   7614     1  180.0000771  0.4184000  2
   7609   7631   7615   7614     1  0.0000000  1.6024720  3
   7610   7613   7614   7615     1  180.0000771  0.8368000  1
   7610   7613   7614   7615     1  180.0000771  1.0460000  2
   7610   7613   7614   7615     1  0.0000000  0.7531200  3
   7610   7613   7614   7620     1  0.0000000  0.6508444  3
   7610   7609   7623   7629     1  0.0000000  0.6508444  3
   7610   7609   7631   7615     1  180.0000771  0.4184000  2
   7610   7609   7631   7615     1  0.0000000  1.6024720  3
   7613   7614   7615   7619     1  0.0000000  0.6508444  3
   7613   7614   7615   7631     1  0.0000000  0.6508444  3
   7613   7610   7609   7623     1  180.0000771  0.8368000  1
   7613   7610   7609   7623     1  180.0000771  1.0460000  2
   7613   7610   7609   7623     1  0.0000000  0.7531200  3
   7613   7610   7609   7631     1  0.0000000  0.6508444  3
   7614   7613   7610   7622     1  0.0000000  0.6508444  3
   7615   7631   7609   7623     1  180.0000771  0.4184000  2
   7615   7631   7609   7623     1  0.0000000  1.6024720  3
   7615   7614   7613   7621     1  0.0000000  0.6508444  3
   7619   7615   7614   7620     1  0.0000000  4.9162000  2
   7619   7615   7614   7620     1  0.0000000  0.6024960  3
   7620   7614   7615   7631     1  0.0000000  4.9162000  2
   7620   7614   7615   7631     1  0.0000000  0.6024960  3
   7620   7614   7613   7621     1  0.0000000  4.9162000  2
   7620   7614   7613   7621     1  0.0000000  0.6024960  3
   7621   7613   7610   7622     1  0.0000000  4.9162000  2
   7621   7613   7610   7622     1  0.0000000  0.6024960  3
   7622   7610   7609   7623     1  0.0000000  0.6508444  3
   7622   7610   7609   7631     1  0.0000000  4.9162000  2
   7622   7610   7609   7631     1  0.0000000  0.6024960  3
   7629   7623   7609   7631     1  0.0000000  4.9162000  2
   7629   7623   7609   7631     1  0.0000000  0.6024960  3
   7632   7633   7636   7637     1  180.0000771  0.8368000  1
   7632   7633   7636   7637     1  180.0000771  1.0460000  2
   7632   7633   7636   7637     1  0.0000000  0.7531200  3
   7632   7633   7636   7644     1  0.0000000  0.6508444  3
   7632   7654   7638   7637     1  180.0000771  0.4184000  2
   7632   7654   7638   7637     1  0.0000000  1.6024720  3
   7632   7654   7638   7642     1  180.0000771  5.6484000  1
   7632   7654   7638   7642     1  180.0000771  3.5564000  2
   7632   7654   7638   7642     1  0.0000000  0.4184000  3
   7633   7632   7646   7652     1  0.0000000  0.6508444  3
   7633   7632   7654   7638     1  180.0000771  0.4184000  2
   7633   7632   7654   7638     1  0.0000000  1.6024720  3
   7633   7636   7637   7638     1  180.0000771  0.8368000  1
   7633   7636   7637   7638     1  180.0000771  1.0460000  2
   7633   7636   7637   7638     1  0.0000000  0.7531200  3
   7633   7636   7637   7643     1  0.0000000  0.6508444  3
   7636   7633   7632   7646     1  180.0000771  0.8368000  1
   7636   7633   7632   7646     1  180.0000771  1.0460000  2
   7636   7633   7632   7646     1  0.0000000  0.7531200  3
   7636   7633   7632   7654     1  0.0000000  0.6508444  3
   7636   7637   7638   7642     1  0.0000000  0.6508444  3
   7636   7637   7638   7654     1  0.0000000  0.6508444  3
   7637   7636   7633   7645     1  0.0000000  0.6508444  3
   7638   7637   7636   7644     1  0.0000000  0.6508444  3
   7638   7654   7632   7646     1  180.0000771  0.4184000  2
   7638   7654   7632   7646     1  0.0000000  1.6024720  3
   7642   7638   7637   7643     1  0.0000000  4.9162000  2
   7642   7638   7637   7643     1  0.0000000  0.6024960  3
   7643   7637   7636   7644     1  0.0000000  4.9162000  2
   7643   7637   7636   7644     1  0.0000000  0.6024960  3
   7643   7637   7638   7654     1  0.0000000  4.9162000  2
   7643   7637   7638   7654     1  0.0000000  0.6024960  3
   7644   7636   7633   7645     1  0.0000000  4.9162000  2
   7644   7636   7633   7645     1  0.0000000  0.6024960  3
   7645   7633   7632   7646     1  0.0000000  0.6508444  3
   7645   7633   7632   7654     1  0.0000000  4.9162000  2
   7645   7633   7632   7654     1  0.0000000  0.6024960  3
   7652   7646   7632   7654     1  0.0000000  4.9162000  2
   7652   7646   7632   7654     1  0.0000000  0.6024960  3
   7655   7656   7659   7660     1  180.0000771  0.8368000  1
   7655   7656   7659   7660     1  180.0000771  1.0460000  2
   7655   7656   7659   7660     1  0.0000000  0.7531200  3
   7655   7656   7659   7667     1  0.0000000  0.6508444  3
   7655   7677   7661   7665     1  180.0000771  5.6484000  1
   7655   7677   7661   7665     1  180.0000771  3.5564000  2
   7655   7677   7661   7665     1  0.0000000  0.4184000  3
   7655   7677   7661   7660     1  180.0000771  0.4184000  2
   7655   7677   7661   7660     1  0.0000000  1.6024720  3
   7656   7659   7660   7661     1  180.0000771  0.8368000  1
   7656   7659   7660   7661     1  180.0000771  1.0460000  2
   7656   7659   7660   7661     1  0.0000000  0.7531200  3
   7656   7659   7660   7666     1  0.0000000  0.6508444  3
   7656   7655   7669   7675     1  0.0000000  0.6508444  3
   7656   7655   7677   7661     1  180.0000771  0.4184000  2
   7656   7655   7677   7661     1  0.0000000  1.6024720  3
   7659   7660   7661   7665     1  0.0000000  0.6508444  3
   7659   7660   7661   7677     1  0.0000000  0.6508444  3
   7659   7656   7655   7669     1  180.0000771  0.8368000  1
   7659   7656   7655   7669     1  180.0000771  1.0460000  2
   7659   7656   7655   7669     1  0.0000000  0.7531200  3
   7659   7656   7655   7677     1  0.0000000  0.6508444  3
   7660   7659   7656   7668     1  0.0000000  0.6508444  3
   7661   7677   7655   7669     1  180.0000771  0.4184000  2
   7661   7677   7655   7669     1  0.0000000  1.6024720  3
   7661   7660   7659   7667     1  0.0000000  0.6508444  3
   7665   7661   7660   7666     1  0.0000000  4.9162000  2
   7665   7661   7660   7666     1  0.0000000  0.6024960  3
   7666   7660   7661   7677     1  0.0000000  4.9162000  2
   7666   7660   7661   7677     1  0.0000000  0.6024960  3
   7666   7660   7659   7667     1  0.0000000  4.9162000  2
   7666   7660   7659   7667     1  0.0000000  0.6024960  3
   7667   7659   7656   7668     1  0.0000000  4.9162000  2
   7667   7659   7656   7668     1  0.0000000  0.6024960  3
   7668   7656   7655   7669     1  0.0000000  0.6508444  3
   7668   7656   7655   7677     1  0.0000000  4.9162000  2
   7668   7656   7655   7677     1  0.0000000  0.6024960  3
   7675   7669   7655   7677     1  0.0000000  4.9162000  2
   7675   7669   7655   7677     1  0.0000000  0.6024960  3
   7678   7679   7682   7683     1  180.0000771  0.8368000  1
   7678   7679   7682   7683     1  180.0000771  1.0460000  2
   7678   7679   7682   7683     1  0.0000000  0.7531200  3
   7678   7679   7682   7690     1  0.0000000  0.6508444  3
   7678   7700   7684   7683     1  180.0000771  0.4184000  2
   7678   7700   7684   7683     1  0.0000000  1.6024720  3
   7678   7700   7684   7688     1  180.0000771  5.6484000  1
   7678   7700   7684   7688     1  180.0000771  3.5564000  2
   7678   7700   7684   7688     1  0.0000000  0.4184000  3
   7679   7678   7692   7698     1  0.0000000  0.6508444  3
   7679   7678   7700   7684     1  180.0000771  0.4184000  2
   7679   7678   7700   7684     1  0.0000000  1.6024720  3
   7679   7682   7683   7684     1  180.0000771  0.8368000  1
   7679   7682   7683   7684     1  180.0000771  1.0460000  2
   7679   7682   7683   7684     1  0.0000000  0.7531200  3
   7679   7682   7683   7689     1  0.0000000  0.6508444  3
   7682   7679   7678   7692     1  180.0000771  0.8368000  1
   7682   7679   7678   7692     1  180.0000771  1.0460000  2
   7682   7679   7678   7692     1  0.0000000  0.7531200  3
   7682   7679   7678   7700     1  0.0000000  0.6508444  3
   7682   7683   7684   7688     1  0.0000000  0.6508444  3
   7682   7683   7684   7700     1  0.0000000  0.6508444  3
   7683   7682   7679   7691     1  0.0000000  0.6508444  3
   7684   7683   7682   7690     1  0.0000000  0.6508444  3
   7684   7700   7678   7692     1  180.0000771  0.4184000  2
   7684   7700   7678   7692     1  0.0000000  1.6024720  3
   7688   7684   7683   7689     1  0.0000000  4.9162000  2
   7688   7684   7683   7689     1  0.0000000  0.6024960  3
   7689   7683   7682   7690     1  0.0000000  4.9162000  2
   7689   7683   7682   7690     1  0.0000000  0.6024960  3
   7689   7683   7684   7700     1  0.0000000  4.9162000  2
   7689   7683   7684   7700     1  0.0000000  0.6024960  3
   7690   7682   7679   7691     1  0.0000000  4.9162000  2
   7690   7682   7679   7691     1  0.0000000  0.6024960  3
   7691   7679   7678   7692     1  0.0000000  0.6508444  3
   7691   7679   7678   7700     1  0.0000000  4.9162000  2
   7691   7679   7678   7700     1  0.0000000  0.6024960  3
   7698   7692   7678   7700     1  0.0000000  4.9162000  2
   7698   7692   7678   7700     1  0.0000000  0.6024960  3
   7701   7702   7705   7706     1  180.0000771  0.8368000  1
   7701   7702   7705   7706     1  180.0000771  1.0460000  2
   7701   7702   7705   7706     1  0.0000000  0.7531200  3
   7701   7702   7705   7713     1  0.0000000  0.6508444  3
   7701   7723   7707   7711     1  180.0000771  5.6484000  1
   7701   7723   7707   7711     1  180.0000771  3.5564000  2
   7701   7723   7707   7711     1  0.0000000  0.4184000  3
   7701   7723   7707   7706     1  180.0000771  0.4184000  2
   7701   7723   7707   7706     1  0.0000000  1.6024720  3
   7702   7705   7706   7707     1  180.0000771  0.8368000  1
   7702   7705   7706   7707     1  180.0000771  1.0460000  2
   7702   7705   7706   7707     1  0.0000000  0.7531200  3
   7702   7705   7706   7712     1  0.0000000  0.6508444  3
   7702   7701   7715   7721     1  0.0000000  0.6508444  3
   7702   7701   7723   7707     1  180.0000771  0.4184000  2
   7702   7701   7723   7707     1  0.0000000  1.6024720  3
   7705   7706   7707   7711     1  0.0000000  0.6508444  3
   7705   7706   7707   7723     1  0.0000000  0.6508444  3
   7705   7702   7701   7715     1  180.0000771  0.8368000  1
   7705   7702   7701   7715     1  180.0000771  1.0460000  2
   7705   7702   7701   7715     1  0.0000000  0.7531200  3
   7705   7702   7701   7723     1  0.0000000  0.6508444  3
   7706   7705   7702   7714     1  0.0000000  0.6508444  3
   7707   7723   7701   7715     1  180.0000771  0.4184000  2
   7707   7723   7701   7715     1  0.0000000  1.6024720  3
   7707   7706   7705   7713     1  0.0000000  0.6508444  3
   7711   7707   7706   7712     1  0.0000000  4.9162000  2
   7711   7707   7706   7712     1  0.0000000  0.6024960  3
   7712   7706   7707   7723     1  0.0000000  4.9162000  2
   7712   7706   7707   7723     1  0.0000000  0.6024960  3
   7712   7706   7705   7713     1  0.0000000  4.9162000  2
   7712   7706   7705   7713     1  0.0000000  0.6024960  3
   7713   7705   7702   7714     1  0.0000000  4.9162000  2
   7713   7705   7702   7714     1  0.0000000  0.6024960  3
   7714   7702   7701   7715     1  0.0000000  0.6508444  3
   7714   7702   7701   7723     1  0.0000000  4.9162000  2
   7714   7702   7701   7723     1  0.0000000  0.6024960  3
   7721   7715   7701   7723     1  0.0000000  4.9162000  2
   7721   7715   7701   7723     1  0.0000000  0.6024960  3
   7724   7725   7728   7729     1  180.0000771  0.8368000  1
   7724   7725   7728   7729     1  180.0000771  1.0460000  2
   7724   7725   7728   7729     1  0.0000000  0.7531200  3
   7724   7725   7728   7736     1  0.0000000  0.6508444  3
   7724   7746   7730   7729     1  180.0000771  0.4184000  2
   7724   7746   7730   7729     1  0.0000000  1.6024720  3
   7724   7746   7730   7734     1  180.0000771  5.6484000  1
   7724   7746   7730   7734     1  180.0000771  3.5564000  2
   7724   7746   7730   7734     1  0.0000000  0.4184000  3
   7725   7724   7738   7744     1  0.0000000  0.6508444  3
   7725   7724   7746   7730     1  180.0000771  0.4184000  2
   7725   7724   7746   7730     1  0.0000000  1.6024720  3
   7725   7728   7729   7730     1  180.0000771  0.8368000  1
   7725   7728   7729   7730     1  180.0000771  1.0460000  2
   7725   7728   7729   7730     1  0.0000000  0.7531200  3
   7725   7728   7729   7735     1  0.0000000  0.6508444  3
   7728   7725   7724   7738     1  180.0000771  0.8368000  1
   7728   7725   7724   7738     1  180.0000771  1.0460000  2
   7728   7725   7724   7738     1  0.0000000  0.7531200  3
   7728   7725   7724   7746     1  0.0000000  0.6508444  3
   7728   7729   7730   7734     1  0.0000000  0.6508444  3
   7728   7729   7730   7746     1  0.0000000  0.6508444  3
   7729   7728   7725   7737     1  0.0000000  0.6508444  3
   7730   7729   7728   7736     1  0.0000000  0.6508444  3
   7730   7746   7724   7738     1  180.0000771  0.4184000  2
   7730   7746   7724   7738     1  0.0000000  1.6024720  3
   7734   7730   7729   7735     1  0.0000000  4.9162000  2
   7734   7730   7729   7735     1  0.0000000  0.6024960  3
   7735   7729   7728   7736     1  0.0000000  4.9162000  2
   7735   7729   7728   7736     1  0.0000000  0.6024960  3
   7735   7729   7730   7746     1  0.0000000  4.9162000  2
   7735   7729   7730   7746     1  0.0000000  0.6024960  3
   7736   7728   7725   7737     1  0.0000000  4.9162000  2
   7736   7728   7725   7737     1  0.0000000  0.6024960  3
   7737   7725   7724   7738     1  0.0000000  0.6508444  3
   7737   7725   7724   7746     1  0.0000000  4.9162000  2
   7737   7725   7724   7746     1  0.0000000  0.6024960  3
   7744   7738   7724   7746     1  0.0000000  4.9162000  2
   7744   7738   7724   7746     1  0.0000000  0.6024960  3
   7747   7748   7751   7752     1  180.0000771  0.8368000  1
   7747   7748   7751   7752     1  180.0000771  1.0460000  2
   7747   7748   7751   7752     1  0.0000000  0.7531200  3
   7747   7748   7751   7759     1  0.0000000  0.6508444  3
   7747   7769   7753   7757     1  180.0000771  5.6484000  1
   7747   7769   7753   7757     1  180.0000771  3.5564000  2
   7747   7769   7753   7757     1  0.0000000  0.4184000  3
   7747   7769   7753   7752     1  180.0000771  0.4184000  2
   7747   7769   7753   7752     1  0.0000000  1.6024720  3
   7748   7751   7752   7753     1  180.0000771  0.8368000  1
   7748   7751   7752   7753     1  180.0000771  1.0460000  2
   7748   7751   7752   7753     1  0.0000000  0.7531200  3
   7748   7751   7752   7758     1  0.0000000  0.6508444  3
   7748   7747   7761   7767     1  0.0000000  0.6508444  3
   7748   7747   7769   7753     1  180.0000771  0.4184000  2
   7748   7747   7769   7753     1  0.0000000  1.6024720  3
   7751   7752   7753   7757     1  0.0000000  0.6508444  3
   7751   7752   7753   7769     1  0.0000000  0.6508444  3
   7751   7748   7747   7761     1  180.0000771  0.8368000  1
   7751   7748   7747   7761     1  180.0000771  1.0460000  2
   7751   7748   7747   7761     1  0.0000000  0.7531200  3
   7751   7748   7747   7769     1  0.0000000  0.6508444  3
   7752   7751   7748   7760     1  0.0000000  0.6508444  3
   7753   7769   7747   7761     1  180.0000771  0.4184000  2
   7753   7769   7747   7761     1  0.0000000  1.6024720  3
   7753   7752   7751   7759     1  0.0000000  0.6508444  3
   7757   7753   7752   7758     1  0.0000000  4.9162000  2
   7757   7753   7752   7758     1  0.0000000  0.6024960  3
   7758   7752   7753   7769     1  0.0000000  4.9162000  2
   7758   7752   7753   7769     1  0.0000000  0.6024960  3
   7758   7752   7751   7759     1  0.0000000  4.9162000  2
   7758   7752   7751   7759     1  0.0000000  0.6024960  3
   7759   7751   7748   7760     1  0.0000000  4.9162000  2
   7759   7751   7748   7760     1  0.0000000  0.6024960  3
   7760   7748   7747   7761     1  0.0000000  0.6508444  3
   7760   7748   7747   7769     1  0.0000000  4.9162000  2
   7760   7748   7747   7769     1  0.0000000  0.6024960  3
   7767   7761   7747   7769     1  0.0000000  4.9162000  2
   7767   7761   7747   7769     1  0.0000000  0.6024960  3
   7770   7771   7774   7775     1  180.0000771  0.8368000  1
   7770   7771   7774   7775     1  180.0000771  1.0460000  2
   7770   7771   7774   7775     1  0.0000000  0.7531200  3
   7770   7771   7774   7782     1  0.0000000  0.6508444  3
   7770   7792   7776   7775     1  180.0000771  0.4184000  2
   7770   7792   7776   7775     1  0.0000000  1.6024720  3
   7770   7792   7776   7780     1  180.0000771  5.6484000  1
   7770   7792   7776   7780     1  180.0000771  3.5564000  2
   7770   7792   7776   7780     1  0.0000000  0.4184000  3
   7771   7770   7784   7790     1  0.0000000  0.6508444  3
   7771   7770   7792   7776     1  180.0000771  0.4184000  2
   7771   7770   7792   7776     1  0.0000000  1.6024720  3
   7771   7774   7775   7776     1  180.0000771  0.8368000  1
   7771   7774   7775   7776     1  180.0000771  1.0460000  2
   7771   7774   7775   7776     1  0.0000000  0.7531200  3
   7771   7774   7775   7781     1  0.0000000  0.6508444  3
   7774   7771   7770   7784     1  180.0000771  0.8368000  1
   7774   7771   7770   7784     1  180.0000771  1.0460000  2
   7774   7771   7770   7784     1  0.0000000  0.7531200  3
   7774   7771   7770   7792     1  0.0000000  0.6508444  3
   7774   7775   7776   7780     1  0.0000000  0.6508444  3
   7774   7775   7776   7792     1  0.0000000  0.6508444  3
   7775   7774   7771   7783     1  0.0000000  0.6508444  3
   7776   7775   7774   7782     1  0.0000000  0.6508444  3
   7776   7792   7770   7784     1  180.0000771  0.4184000  2
   7776   7792   7770   7784     1  0.0000000  1.6024720  3
   7780   7776   7775   7781     1  0.0000000  4.9162000  2
   7780   7776   7775   7781     1  0.0000000  0.6024960  3
   7781   7775   7774   7782     1  0.0000000  4.9162000  2
   7781   7775   7774   7782     1  0.0000000  0.6024960  3
   7781   7775   7776   7792     1  0.0000000  4.9162000  2
   7781   7775   7776   7792     1  0.0000000  0.6024960  3
   7782   7774   7771   7783     1  0.0000000  4.9162000  2
   7782   7774   7771   7783     1  0.0000000  0.6024960  3
   7783   7771   7770   7784     1  0.0000000  0.6508444  3
   7783   7771   7770   7792     1  0.0000000  4.9162000  2
   7783   7771   7770   7792     1  0.0000000  0.6024960  3
   7790   7784   7770   7792     1  0.0000000  4.9162000  2
   7790   7784   7770   7792     1  0.0000000  0.6024960  3
   7793   7794   7797   7798     1  180.0000771  0.8368000  1
   7793   7794   7797   7798     1  180.0000771  1.0460000  2
   7793   7794   7797   7798     1  0.0000000  0.7531200  3
   7793   7794   7797   7805     1  0.0000000  0.6508444  3
   7793   7815   7799   7803     1  180.0000771  5.6484000  1
   7793   7815   7799   7803     1  180.0000771  3.5564000  2
   7793   7815   7799   7803     1  0.0000000  0.4184000  3
   7793   7815   7799   7798     1  180.0000771  0.4184000  2
   7793   7815   7799   7798     1  0.0000000  1.6024720  3
   7794   7797   7798   7799     1  180.0000771  0.8368000  1
   7794   7797   7798   7799     1  180.0000771  1.0460000  2
   7794   7797   7798   7799     1  0.0000000  0.7531200  3
   7794   7797   7798   7804     1  0.0000000  0.6508444  3
   7794   7793   7807   7813     1  0.0000000  0.6508444  3
   7794   7793   7815   7799     1  180.0000771  0.4184000  2
   7794   7793   7815   7799     1  0.0000000  1.6024720  3
   7797   7798   7799   7803     1  0.0000000  0.6508444  3
   7797   7798   7799   7815     1  0.0000000  0.6508444  3
   7797   7794   7793   7807     1  180.0000771  0.8368000  1
   7797   7794   7793   7807     1  180.0000771  1.0460000  2
   7797   7794   7793   7807     1  0.0000000  0.7531200  3
   7797   7794   7793   7815     1  0.0000000  0.6508444  3
   7798   7797   7794   7806     1  0.0000000  0.6508444  3
   7799   7815   7793   7807     1  180.0000771  0.4184000  2
   7799   7815   7793   7807     1  0.0000000  1.6024720  3
   7799   7798   7797   7805     1  0.0000000  0.6508444  3
   7803   7799   7798   7804     1  0.0000000  4.9162000  2
   7803   7799   7798   7804     1  0.0000000  0.6024960  3
   7804   7798   7799   7815     1  0.0000000  4.9162000  2
   7804   7798   7799   7815     1  0.0000000  0.6024960  3
   7804   7798   7797   7805     1  0.0000000  4.9162000  2
   7804   7798   7797   7805     1  0.0000000  0.6024960  3
   7805   7797   7794   7806     1  0.0000000  4.9162000  2
   7805   7797   7794   7806     1  0.0000000  0.6024960  3
   7806   7794   7793   7807     1  0.0000000  0.6508444  3
   7806   7794   7793   7815     1  0.0000000  4.9162000  2
   7806   7794   7793   7815     1  0.0000000  0.6024960  3
   7813   7807   7793   7815     1  0.0000000  4.9162000  2
   7813   7807   7793   7815     1  0.0000000  0.6024960  3
   7816   7817   7820   7821     1  180.0000771  0.8368000  1
   7816   7817   7820   7821     1  180.0000771  1.0460000  2
   7816   7817   7820   7821     1  0.0000000  0.7531200  3
   7816   7817   7820   7828     1  0.0000000  0.6508444  3
   7816   7838   7822   7821     1  180.0000771  0.4184000  2
   7816   7838   7822   7821     1  0.0000000  1.6024720  3
   7816   7838   7822   7826     1  180.0000771  5.6484000  1
   7816   7838   7822   7826     1  180.0000771  3.5564000  2
   7816   7838   7822   7826     1  0.0000000  0.4184000  3
   7817   7816   7830   7836     1  0.0000000  0.6508444  3
   7817   7816   7838   7822     1  180.0000771  0.4184000  2
   7817   7816   7838   7822     1  0.0000000  1.6024720  3
   7817   7820   7821   7822     1  180.0000771  0.8368000  1
   7817   7820   7821   7822     1  180.0000771  1.0460000  2
   7817   7820   7821   7822     1  0.0000000  0.7531200  3
   7817   7820   7821   7827     1  0.0000000  0.6508444  3
   7820   7817   7816   7830     1  180.0000771  0.8368000  1
   7820   7817   7816   7830     1  180.0000771  1.0460000  2
   7820   7817   7816   7830     1  0.0000000  0.7531200  3
   7820   7817   7816   7838     1  0.0000000  0.6508444  3
   7820   7821   7822   7826     1  0.0000000  0.6508444  3
   7820   7821   7822   7838     1  0.0000000  0.6508444  3
   7821   7820   7817   7829     1  0.0000000  0.6508444  3
   7822   7821   7820   7828     1  0.0000000  0.6508444  3
   7822   7838   7816   7830     1  180.0000771  0.4184000  2
   7822   7838   7816   7830     1  0.0000000  1.6024720  3
   7826   7822   7821   7827     1  0.0000000  4.9162000  2
   7826   7822   7821   7827     1  0.0000000  0.6024960  3
   7827   7821   7820   7828     1  0.0000000  4.9162000  2
   7827   7821   7820   7828     1  0.0000000  0.6024960  3
   7827   7821   7822   7838     1  0.0000000  4.9162000  2
   7827   7821   7822   7838     1  0.0000000  0.6024960  3
   7828   7820   7817   7829     1  0.0000000  4.9162000  2
   7828   7820   7817   7829     1  0.0000000  0.6024960  3
   7829   7817   7816   7830     1  0.0000000  0.6508444  3
   7829   7817   7816   7838     1  0.0000000  4.9162000  2
   7829   7817   7816   7838     1  0.0000000  0.6024960  3
   7836   7830   7816   7838     1  0.0000000  4.9162000  2
   7836   7830   7816   7838     1  0.0000000  0.6024960  3
   7839   7840   7843   7844     1  180.0000771  0.8368000  1
   7839   7840   7843   7844     1  180.0000771  1.0460000  2
   7839   7840   7843   7844     1  0.0000000  0.7531200  3
   7839   7840   7843   7851     1  0.0000000  0.6508444  3
   7839   7861   7845   7849     1  180.0000771  5.6484000  1
   7839   7861   7845   7849     1  180.0000771  3.5564000  2
   7839   7861   7845   7849     1  0.0000000  0.4184000  3
   7839   7861   7845   7844     1  180.0000771  0.4184000  2
   7839   7861   7845   7844     1  0.0000000  1.6024720  3
   7840   7843   7844   7845     1  180.0000771  0.8368000  1
   7840   7843   7844   7845     1  180.0000771  1.0460000  2
   7840   7843   7844   7845     1  0.0000000  0.7531200  3
   7840   7843   7844   7850     1  0.0000000  0.6508444  3
   7840   7839   7853   7859     1  0.0000000  0.6508444  3
   7840   7839   7861   7845     1  180.0000771  0.4184000  2
   7840   7839   7861   7845     1  0.0000000  1.6024720  3
   7843   7844   7845   7849     1  0.0000000  0.6508444  3
   7843   7844   7845   7861     1  0.0000000  0.6508444  3
   7843   7840   7839   7853     1  180.0000771  0.8368000  1
   7843   7840   7839   7853     1  180.0000771  1.0460000  2
   7843   7840   7839   7853     1  0.0000000  0.7531200  3
   7843   7840   7839   7861     1  0.0000000  0.6508444  3
   7844   7843   7840   7852     1  0.0000000  0.6508444  3
   7845   7861   7839   7853     1  180.0000771  0.4184000  2
   7845   7861   7839   7853     1  0.0000000  1.6024720  3
   7845   7844   7843   7851     1  0.0000000  0.6508444  3
   7849   7845   7844   7850     1  0.0000000  4.9162000  2
   7849   7845   7844   7850     1  0.0000000  0.6024960  3
   7850   7844   7845   7861     1  0.0000000  4.9162000  2
   7850   7844   7845   7861     1  0.0000000  0.6024960  3
   7850   7844   7843   7851     1  0.0000000  4.9162000  2
   7850   7844   7843   7851     1  0.0000000  0.6024960  3
   7851   7843   7840   7852     1  0.0000000  4.9162000  2
   7851   7843   7840   7852     1  0.0000000  0.6024960  3
   7852   7840   7839   7853     1  0.0000000  0.6508444  3
   7852   7840   7839   7861     1  0.0000000  4.9162000  2
   7852   7840   7839   7861     1  0.0000000  0.6024960  3
   7859   7853   7839   7861     1  0.0000000  4.9162000  2
   7859   7853   7839   7861     1  0.0000000  0.6024960  3
   7862   7863   7866   7867     1  180.0000771  0.8368000  1
   7862   7863   7866   7867     1  180.0000771  1.0460000  2
   7862   7863   7866   7867     1  0.0000000  0.7531200  3
   7862   7863   7866   7874     1  0.0000000  0.6508444  3
   7862   7884   7868   7867     1  180.0000771  0.4184000  2
   7862   7884   7868   7867     1  0.0000000  1.6024720  3
   7862   7884   7868   7872     1  180.0000771  5.6484000  1
   7862   7884   7868   7872     1  180.0000771  3.5564000  2
   7862   7884   7868   7872     1  0.0000000  0.4184000  3
   7863   7862   7876   7882     1  0.0000000  0.6508444  3
   7863   7862   7884   7868     1  180.0000771  0.4184000  2
   7863   7862   7884   7868     1  0.0000000  1.6024720  3
   7863   7866   7867   7868     1  180.0000771  0.8368000  1
   7863   7866   7867   7868     1  180.0000771  1.0460000  2
   7863   7866   7867   7868     1  0.0000000  0.7531200  3
   7863   7866   7867   7873     1  0.0000000  0.6508444  3
   7866   7863   7862   7876     1  180.0000771  0.8368000  1
   7866   7863   7862   7876     1  180.0000771  1.0460000  2
   7866   7863   7862   7876     1  0.0000000  0.7531200  3
   7866   7863   7862   7884     1  0.0000000  0.6508444  3
   7866   7867   7868   7872     1  0.0000000  0.6508444  3
   7866   7867   7868   7884     1  0.0000000  0.6508444  3
   7867   7866   7863   7875     1  0.0000000  0.6508444  3
   7868   7867   7866   7874     1  0.0000000  0.6508444  3
   7868   7884   7862   7876     1  180.0000771  0.4184000  2
   7868   7884   7862   7876     1  0.0000000  1.6024720  3
   7872   7868   7867   7873     1  0.0000000  4.9162000  2
   7872   7868   7867   7873     1  0.0000000  0.6024960  3
   7873   7867   7866   7874     1  0.0000000  4.9162000  2
   7873   7867   7866   7874     1  0.0000000  0.6024960  3
   7873   7867   7868   7884     1  0.0000000  4.9162000  2
   7873   7867   7868   7884     1  0.0000000  0.6024960  3
   7874   7866   7863   7875     1  0.0000000  4.9162000  2
   7874   7866   7863   7875     1  0.0000000  0.6024960  3
   7875   7863   7862   7876     1  0.0000000  0.6508444  3
   7875   7863   7862   7884     1  0.0000000  4.9162000  2
   7875   7863   7862   7884     1  0.0000000  0.6024960  3
   7882   7876   7862   7884     1  0.0000000  4.9162000  2
   7882   7876   7862   7884     1  0.0000000  0.6024960  3
   7885   7886   7889   7890     1  180.0000771  0.8368000  1
   7885   7886   7889   7890     1  180.0000771  1.0460000  2
   7885   7886   7889   7890     1  0.0000000  0.7531200  3
   7885   7886   7889   7897     1  0.0000000  0.6508444  3
   7885   7907   7891   7895     1  180.0000771  5.6484000  1
   7885   7907   7891   7895     1  180.0000771  3.5564000  2
   7885   7907   7891   7895     1  0.0000000  0.4184000  3
   7885   7907   7891   7890     1  180.0000771  0.4184000  2
   7885   7907   7891   7890     1  0.0000000  1.6024720  3
   7886   7889   7890   7891     1  180.0000771  0.8368000  1
   7886   7889   7890   7891     1  180.0000771  1.0460000  2
   7886   7889   7890   7891     1  0.0000000  0.7531200  3
   7886   7889   7890   7896     1  0.0000000  0.6508444  3
   7886   7885   7899   7905     1  0.0000000  0.6508444  3
   7886   7885   7907   7891     1  180.0000771  0.4184000  2
   7886   7885   7907   7891     1  0.0000000  1.6024720  3
   7889   7890   7891   7895     1  0.0000000  0.6508444  3
   7889   7890   7891   7907     1  0.0000000  0.6508444  3
   7889   7886   7885   7899     1  180.0000771  0.8368000  1
   7889   7886   7885   7899     1  180.0000771  1.0460000  2
   7889   7886   7885   7899     1  0.0000000  0.7531200  3
   7889   7886   7885   7907     1  0.0000000  0.6508444  3
   7890   7889   7886   7898     1  0.0000000  0.6508444  3
   7891   7907   7885   7899     1  180.0000771  0.4184000  2
   7891   7907   7885   7899     1  0.0000000  1.6024720  3
   7891   7890   7889   7897     1  0.0000000  0.6508444  3
   7895   7891   7890   7896     1  0.0000000  4.9162000  2
   7895   7891   7890   7896     1  0.0000000  0.6024960  3
   7896   7890   7891   7907     1  0.0000000  4.9162000  2
   7896   7890   7891   7907     1  0.0000000  0.6024960  3
   7896   7890   7889   7897     1  0.0000000  4.9162000  2
   7896   7890   7889   7897     1  0.0000000  0.6024960  3
   7897   7889   7886   7898     1  0.0000000  4.9162000  2
   7897   7889   7886   7898     1  0.0000000  0.6024960  3
   7898   7886   7885   7899     1  0.0000000  0.6508444  3
   7898   7886   7885   7907     1  0.0000000  4.9162000  2
   7898   7886   7885   7907     1  0.0000000  0.6024960  3
   7905   7899   7885   7907     1  0.0000000  4.9162000  2
   7905   7899   7885   7907     1  0.0000000  0.6024960  3
   7908   7909   7912   7913     1  180.0000771  0.8368000  1
   7908   7909   7912   7913     1  180.0000771  1.0460000  2
   7908   7909   7912   7913     1  0.0000000  0.7531200  3
   7908   7909   7912   7920     1  0.0000000  0.6508444  3
   7908   7930   7914   7913     1  180.0000771  0.4184000  2
   7908   7930   7914   7913     1  0.0000000  1.6024720  3
   7908   7930   7914   7918     1  180.0000771  5.6484000  1
   7908   7930   7914   7918     1  180.0000771  3.5564000  2
   7908   7930   7914   7918     1  0.0000000  0.4184000  3
   7909   7908   7922   7928     1  0.0000000  0.6508444  3
   7909   7908   7930   7914     1  180.0000771  0.4184000  2
   7909   7908   7930   7914     1  0.0000000  1.6024720  3
   7909   7912   7913   7914     1  180.0000771  0.8368000  1
   7909   7912   7913   7914     1  180.0000771  1.0460000  2
   7909   7912   7913   7914     1  0.0000000  0.7531200  3
   7909   7912   7913   7919     1  0.0000000  0.6508444  3
   7912   7909   7908   7922     1  180.0000771  0.8368000  1
   7912   7909   7908   7922     1  180.0000771  1.0460000  2
   7912   7909   7908   7922     1  0.0000000  0.7531200  3
   7912   7909   7908   7930     1  0.0000000  0.6508444  3
   7912   7913   7914   7918     1  0.0000000  0.6508444  3
   7912   7913   7914   7930     1  0.0000000  0.6508444  3
   7913   7912   7909   7921     1  0.0000000  0.6508444  3
   7914   7913   7912   7920     1  0.0000000  0.6508444  3
   7914   7930   7908   7922     1  180.0000771  0.4184000  2
   7914   7930   7908   7922     1  0.0000000  1.6024720  3
   7918   7914   7913   7919     1  0.0000000  4.9162000  2
   7918   7914   7913   7919     1  0.0000000  0.6024960  3
   7919   7913   7912   7920     1  0.0000000  4.9162000  2
   7919   7913   7912   7920     1  0.0000000  0.6024960  3
   7919   7913   7914   7930     1  0.0000000  4.9162000  2
   7919   7913   7914   7930     1  0.0000000  0.6024960  3
   7920   7912   7909   7921     1  0.0000000  4.9162000  2
   7920   7912   7909   7921     1  0.0000000  0.6024960  3
   7921   7909   7908   7922     1  0.0000000  0.6508444  3
   7921   7909   7908   7930     1  0.0000000  4.9162000  2
   7921   7909   7908   7930     1  0.0000000  0.6024960  3
   7928   7922   7908   7930     1  0.0000000  4.9162000  2
   7928   7922   7908   7930     1  0.0000000  0.6024960  3
   7931   7932   7935   7936     1  180.0000771  0.8368000  1
   7931   7932   7935   7936     1  180.0000771  1.0460000  2
   7931   7932   7935   7936     1  0.0000000  0.7531200  3
   7931   7932   7935   7943     1  0.0000000  0.6508444  3
   7931   7953   7937   7941     1  180.0000771  5.6484000  1
   7931   7953   7937   7941     1  180.0000771  3.5564000  2
   7931   7953   7937   7941     1  0.0000000  0.4184000  3
   7931   7953   7937   7936     1  180.0000771  0.4184000  2
   7931   7953   7937   7936     1  0.0000000  1.6024720  3
   7932   7935   7936   7937     1  180.0000771  0.8368000  1
   7932   7935   7936   7937     1  180.0000771  1.0460000  2
   7932   7935   7936   7937     1  0.0000000  0.7531200  3
   7932   7935   7936   7942     1  0.0000000  0.6508444  3
   7932   7931   7945   7951     1  0.0000000  0.6508444  3
   7932   7931   7953   7937     1  180.0000771  0.4184000  2
   7932   7931   7953   7937     1  0.0000000  1.6024720  3
   7935   7936   7937   7941     1  0.0000000  0.6508444  3
   7935   7936   7937   7953     1  0.0000000  0.6508444  3
   7935   7932   7931   7945     1  180.0000771  0.8368000  1
   7935   7932   7931   7945     1  180.0000771  1.0460000  2
   7935   7932   7931   7945     1  0.0000000  0.7531200  3
   7935   7932   7931   7953     1  0.0000000  0.6508444  3
   7936   7935   7932   7944     1  0.0000000  0.6508444  3
   7937   7953   7931   7945     1  180.0000771  0.4184000  2
   7937   7953   7931   7945     1  0.0000000  1.6024720  3
   7937   7936   7935   7943     1  0.0000000  0.6508444  3
   7941   7937   7936   7942     1  0.0000000  4.9162000  2
   7941   7937   7936   7942     1  0.0000000  0.6024960  3
   7942   7936   7937   7953     1  0.0000000  4.9162000  2
   7942   7936   7937   7953     1  0.0000000  0.6024960  3
   7942   7936   7935   7943     1  0.0000000  4.9162000  2
   7942   7936   7935   7943     1  0.0000000  0.6024960  3
   7943   7935   7932   7944     1  0.0000000  4.9162000  2
   7943   7935   7932   7944     1  0.0000000  0.6024960  3
   7944   7932   7931   7945     1  0.0000000  0.6508444  3
   7944   7932   7931   7953     1  0.0000000  4.9162000  2
   7944   7932   7931   7953     1  0.0000000  0.6024960  3
   7951   7945   7931   7953     1  0.0000000  4.9162000  2
   7951   7945   7931   7953     1  0.0000000  0.6024960  3
   7954   7955   7958   7959     1  180.0000771  0.8368000  1
   7954   7955   7958   7959     1  180.0000771  1.0460000  2
   7954   7955   7958   7959     1  0.0000000  0.7531200  3
   7954   7955   7958   7966     1  0.0000000  0.6508444  3
   7954   7976   7960   7959     1  180.0000771  0.4184000  2
   7954   7976   7960   7959     1  0.0000000  1.6024720  3
   7954   7976   7960   7964     1  180.0000771  5.6484000  1
   7954   7976   7960   7964     1  180.0000771  3.5564000  2
   7954   7976   7960   7964     1  0.0000000  0.4184000  3
   7955   7954   7968   7974     1  0.0000000  0.6508444  3
   7955   7954   7976   7960     1  180.0000771  0.4184000  2
   7955   7954   7976   7960     1  0.0000000  1.6024720  3
   7955   7958   7959   7960     1  180.0000771  0.8368000  1
   7955   7958   7959   7960     1  180.0000771  1.0460000  2
   7955   7958   7959   7960     1  0.0000000  0.7531200  3
   7955   7958   7959   7965     1  0.0000000  0.6508444  3
   7958   7955   7954   7968     1  180.0000771  0.8368000  1
   7958   7955   7954   7968     1  180.0000771  1.0460000  2
   7958   7955   7954   7968     1  0.0000000  0.7531200  3
   7958   7955   7954   7976     1  0.0000000  0.6508444  3
   7958   7959   7960   7964     1  0.0000000  0.6508444  3
   7958   7959   7960   7976     1  0.0000000  0.6508444  3
   7959   7958   7955   7967     1  0.0000000  0.6508444  3
   7960   7959   7958   7966     1  0.0000000  0.6508444  3
   7960   7976   7954   7968     1  180.0000771  0.4184000  2
   7960   7976   7954   7968     1  0.0000000  1.6024720  3
   7964   7960   7959   7965     1  0.0000000  4.9162000  2
   7964   7960   7959   7965     1  0.0000000  0.6024960  3
   7965   7959   7958   7966     1  0.0000000  4.9162000  2
   7965   7959   7958   7966     1  0.0000000  0.6024960  3
   7965   7959   7960   7976     1  0.0000000  4.9162000  2
   7965   7959   7960   7976     1  0.0000000  0.6024960  3
   7966   7958   7955   7967     1  0.0000000  4.9162000  2
   7966   7958   7955   7967     1  0.0000000  0.6024960  3
   7967   7955   7954   7968     1  0.0000000  0.6508444  3
   7967   7955   7954   7976     1  0.0000000  4.9162000  2
   7967   7955   7954   7976     1  0.0000000  0.6024960  3
   7974   7968   7954   7976     1  0.0000000  4.9162000  2
   7974   7968   7954   7976     1  0.0000000  0.6024960  3
   7977   7978   7981   7982     1  180.0000771  0.8368000  1
   7977   7978   7981   7982     1  180.0000771  1.0460000  2
   7977   7978   7981   7982     1  0.0000000  0.7531200  3
   7977   7978   7981   7989     1  0.0000000  0.6508444  3
   7977   7999   7983   7987     1  180.0000771  5.6484000  1
   7977   7999   7983   7987     1  180.0000771  3.5564000  2
   7977   7999   7983   7987     1  0.0000000  0.4184000  3
   7977   7999   7983   7982     1  180.0000771  0.4184000  2
   7977   7999   7983   7982     1  0.0000000  1.6024720  3
   7978   7981   7982   7983     1  180.0000771  0.8368000  1
   7978   7981   7982   7983     1  180.0000771  1.0460000  2
   7978   7981   7982   7983     1  0.0000000  0.7531200  3
   7978   7981   7982   7988     1  0.0000000  0.6508444  3
   7978   7977   7991   7997     1  0.0000000  0.6508444  3
   7978   7977   7999   7983     1  180.0000771  0.4184000  2
   7978   7977   7999   7983     1  0.0000000  1.6024720  3
   7981   7982   7983   7987     1  0.0000000  0.6508444  3
   7981   7982   7983   7999     1  0.0000000  0.6508444  3
   7981   7978   7977   7991     1  180.0000771  0.8368000  1
   7981   7978   7977   7991     1  180.0000771  1.0460000  2
   7981   7978   7977   7991     1  0.0000000  0.7531200  3
   7981   7978   7977   7999     1  0.0000000  0.6508444  3
   7982   7981   7978   7990     1  0.0000000  0.6508444  3
   7983   7999   7977   7991     1  180.0000771  0.4184000  2
   7983   7999   7977   7991     1  0.0000000  1.6024720  3
   7983   7982   7981   7989     1  0.0000000  0.6508444  3
   7987   7983   7982   7988     1  0.0000000  4.9162000  2
   7987   7983   7982   7988     1  0.0000000  0.6024960  3
   7988   7982   7983   7999     1  0.0000000  4.9162000  2
   7988   7982   7983   7999     1  0.0000000  0.6024960  3
   7988   7982   7981   7989     1  0.0000000  4.9162000  2
   7988   7982   7981   7989     1  0.0000000  0.6024960  3
   7989   7981   7978   7990     1  0.0000000  4.9162000  2
   7989   7981   7978   7990     1  0.0000000  0.6024960  3
   7990   7978   7977   7991     1  0.0000000  0.6508444  3
   7990   7978   7977   7999     1  0.0000000  4.9162000  2
   7990   7978   7977   7999     1  0.0000000  0.6024960  3
   7997   7991   7977   7999     1  0.0000000  4.9162000  2
   7997   7991   7977   7999     1  0.0000000  0.6024960  3
   8000   8001   8004   8005     1  180.0000771  0.8368000  1
   8000   8001   8004   8005     1  180.0000771  1.0460000  2
   8000   8001   8004   8005     1  0.0000000  0.7531200  3
   8000   8001   8004   8012     1  0.0000000  0.6508444  3
   8000   8022   8006   8005     1  180.0000771  0.4184000  2
   8000   8022   8006   8005     1  0.0000000  1.6024720  3
   8000   8022   8006   8010     1  180.0000771  5.6484000  1
   8000   8022   8006   8010     1  180.0000771  3.5564000  2
   8000   8022   8006   8010     1  0.0000000  0.4184000  3
   8001   8000   8014   8020     1  0.0000000  0.6508444  3
   8001   8000   8022   8006     1  180.0000771  0.4184000  2
   8001   8000   8022   8006     1  0.0000000  1.6024720  3
   8001   8004   8005   8006     1  180.0000771  0.8368000  1
   8001   8004   8005   8006     1  180.0000771  1.0460000  2
   8001   8004   8005   8006     1  0.0000000  0.7531200  3
   8001   8004   8005   8011     1  0.0000000  0.6508444  3
   8004   8001   8000   8014     1  180.0000771  0.8368000  1
   8004   8001   8000   8014     1  180.0000771  1.0460000  2
   8004   8001   8000   8014     1  0.0000000  0.7531200  3
   8004   8001   8000   8022     1  0.0000000  0.6508444  3
   8004   8005   8006   8010     1  0.0000000  0.6508444  3
   8004   8005   8006   8022     1  0.0000000  0.6508444  3
   8005   8004   8001   8013     1  0.0000000  0.6508444  3
   8006   8005   8004   8012     1  0.0000000  0.6508444  3
   8006   8022   8000   8014     1  180.0000771  0.4184000  2
   8006   8022   8000   8014     1  0.0000000  1.6024720  3
   8010   8006   8005   8011     1  0.0000000  4.9162000  2
   8010   8006   8005   8011     1  0.0000000  0.6024960  3
   8011   8005   8004   8012     1  0.0000000  4.9162000  2
   8011   8005   8004   8012     1  0.0000000  0.6024960  3
   8011   8005   8006   8022     1  0.0000000  4.9162000  2
   8011   8005   8006   8022     1  0.0000000  0.6024960  3
   8012   8004   8001   8013     1  0.0000000  4.9162000  2
   8012   8004   8001   8013     1  0.0000000  0.6024960  3
   8013   8001   8000   8014     1  0.0000000  0.6508444  3
   8013   8001   8000   8022     1  0.0000000  4.9162000  2
   8013   8001   8000   8022     1  0.0000000  0.6024960  3
   8020   8014   8000   8022     1  0.0000000  4.9162000  2
   8020   8014   8000   8022     1  0.0000000  0.6024960  3
   8023   8024   8027   8028     1  180.0000771  0.8368000  1
   8023   8024   8027   8028     1  180.0000771  1.0460000  2
   8023   8024   8027   8028     1  0.0000000  0.7531200  3
   8023   8024   8027   8035     1  0.0000000  0.6508444  3
   8023   8045   8029   8033     1  180.0000771  5.6484000  1
   8023   8045   8029   8033     1  180.0000771  3.5564000  2
   8023   8045   8029   8033     1  0.0000000  0.4184000  3
   8023   8045   8029   8028     1  180.0000771  0.4184000  2
   8023   8045   8029   8028     1  0.0000000  1.6024720  3
   8024   8027   8028   8029     1  180.0000771  0.8368000  1
   8024   8027   8028   8029     1  180.0000771  1.0460000  2
   8024   8027   8028   8029     1  0.0000000  0.7531200  3
   8024   8027   8028   8034     1  0.0000000  0.6508444  3
   8024   8023   8037   8043     1  0.0000000  0.6508444  3
   8024   8023   8045   8029     1  180.0000771  0.4184000  2
   8024   8023   8045   8029     1  0.0000000  1.6024720  3
   8027   8028   8029   8033     1  0.0000000  0.6508444  3
   8027   8028   8029   8045     1  0.0000000  0.6508444  3
   8027   8024   8023   8037     1  180.0000771  0.8368000  1
   8027   8024   8023   8037     1  180.0000771  1.0460000  2
   8027   8024   8023   8037     1  0.0000000  0.7531200  3
   8027   8024   8023   8045     1  0.0000000  0.6508444  3
   8028   8027   8024   8036     1  0.0000000  0.6508444  3
   8029   8045   8023   8037     1  180.0000771  0.4184000  2
   8029   8045   8023   8037     1  0.0000000  1.6024720  3
   8029   8028   8027   8035     1  0.0000000  0.6508444  3
   8033   8029   8028   8034     1  0.0000000  4.9162000  2
   8033   8029   8028   8034     1  0.0000000  0.6024960  3
   8034   8028   8029   8045     1  0.0000000  4.9162000  2
   8034   8028   8029   8045     1  0.0000000  0.6024960  3
   8034   8028   8027   8035     1  0.0000000  4.9162000  2
   8034   8028   8027   8035     1  0.0000000  0.6024960  3
   8035   8027   8024   8036     1  0.0000000  4.9162000  2
   8035   8027   8024   8036     1  0.0000000  0.6024960  3
   8036   8024   8023   8037     1  0.0000000  0.6508444  3
   8036   8024   8023   8045     1  0.0000000  4.9162000  2
   8036   8024   8023   8045     1  0.0000000  0.6024960  3
   8043   8037   8023   8045     1  0.0000000  4.9162000  2
   8043   8037   8023   8045     1  0.0000000  0.6024960  3
   8046   8047   8050   8051     1  180.0000771  0.8368000  1
   8046   8047   8050   8051     1  180.0000771  1.0460000  2
   8046   8047   8050   8051     1  0.0000000  0.7531200  3
   8046   8047   8050   8058     1  0.0000000  0.6508444  3
   8046   8068   8052   8051     1  180.0000771  0.4184000  2
   8046   8068   8052   8051     1  0.0000000  1.6024720  3
   8046   8068   8052   8056     1  180.0000771  5.6484000  1
   8046   8068   8052   8056     1  180.0000771  3.5564000  2
   8046   8068   8052   8056     1  0.0000000  0.4184000  3
   8047   8046   8060   8066     1  0.0000000  0.6508444  3
   8047   8046   8068   8052     1  180.0000771  0.4184000  2
   8047   8046   8068   8052     1  0.0000000  1.6024720  3
   8047   8050   8051   8052     1  180.0000771  0.8368000  1
   8047   8050   8051   8052     1  180.0000771  1.0460000  2
   8047   8050   8051   8052     1  0.0000000  0.7531200  3
   8047   8050   8051   8057     1  0.0000000  0.6508444  3
   8050   8047   8046   8060     1  180.0000771  0.8368000  1
   8050   8047   8046   8060     1  180.0000771  1.0460000  2
   8050   8047   8046   8060     1  0.0000000  0.7531200  3
   8050   8047   8046   8068     1  0.0000000  0.6508444  3
   8050   8051   8052   8056     1  0.0000000  0.6508444  3
   8050   8051   8052   8068     1  0.0000000  0.6508444  3
   8051   8050   8047   8059     1  0.0000000  0.6508444  3
   8052   8051   8050   8058     1  0.0000000  0.6508444  3
   8052   8068   8046   8060     1  180.0000771  0.4184000  2
   8052   8068   8046   8060     1  0.0000000  1.6024720  3
   8056   8052   8051   8057     1  0.0000000  4.9162000  2
   8056   8052   8051   8057     1  0.0000000  0.6024960  3
   8057   8051   8050   8058     1  0.0000000  4.9162000  2
   8057   8051   8050   8058     1  0.0000000  0.6024960  3
   8057   8051   8052   8068     1  0.0000000  4.9162000  2
   8057   8051   8052   8068     1  0.0000000  0.6024960  3
   8058   8050   8047   8059     1  0.0000000  4.9162000  2
   8058   8050   8047   8059     1  0.0000000  0.6024960  3
   8059   8047   8046   8060     1  0.0000000  0.6508444  3
   8059   8047   8046   8068     1  0.0000000  4.9162000  2
   8059   8047   8046   8068     1  0.0000000  0.6024960  3
   8066   8060   8046   8068     1  0.0000000  4.9162000  2
   8066   8060   8046   8068     1  0.0000000  0.6024960  3
   8069   8070   8073   8074     1  180.0000771  0.8368000  1
   8069   8070   8073   8074     1  180.0000771  1.0460000  2
   8069   8070   8073   8074     1  0.0000000  0.7531200  3
   8069   8070   8073   8081     1  0.0000000  0.6508444  3
   8069   8091   8075   8079     1  180.0000771  5.6484000  1
   8069   8091   8075   8079     1  180.0000771  3.5564000  2
   8069   8091   8075   8079     1  0.0000000  0.4184000  3
   8069   8091   8075   8074     1  180.0000771  0.4184000  2
   8069   8091   8075   8074     1  0.0000000  1.6024720  3
   8070   8073   8074   8075     1  180.0000771  0.8368000  1
   8070   8073   8074   8075     1  180.0000771  1.0460000  2
   8070   8073   8074   8075     1  0.0000000  0.7531200  3
   8070   8073   8074   8080     1  0.0000000  0.6508444  3
   8070   8069   8083   8089     1  0.0000000  0.6508444  3
   8070   8069   8091   8075     1  180.0000771  0.4184000  2
   8070   8069   8091   8075     1  0.0000000  1.6024720  3
   8073   8074   8075   8079     1  0.0000000  0.6508444  3
   8073   8074   8075   8091     1  0.0000000  0.6508444  3
   8073   8070   8069   8083     1  180.0000771  0.8368000  1
   8073   8070   8069   8083     1  180.0000771  1.0460000  2
   8073   8070   8069   8083     1  0.0000000  0.7531200  3
   8073   8070   8069   8091     1  0.0000000  0.6508444  3
   8074   8073   8070   8082     1  0.0000000  0.6508444  3
   8075   8091   8069   8083     1  180.0000771  0.4184000  2
   8075   8091   8069   8083     1  0.0000000  1.6024720  3
   8075   8074   8073   8081     1  0.0000000  0.6508444  3
   8079   8075   8074   8080     1  0.0000000  4.9162000  2
   8079   8075   8074   8080     1  0.0000000  0.6024960  3
   8080   8074   8075   8091     1  0.0000000  4.9162000  2
   8080   8074   8075   8091     1  0.0000000  0.6024960  3
   8080   8074   8073   8081     1  0.0000000  4.9162000  2
   8080   8074   8073   8081     1  0.0000000  0.6024960  3
   8081   8073   8070   8082     1  0.0000000  4.9162000  2
   8081   8073   8070   8082     1  0.0000000  0.6024960  3
   8082   8070   8069   8083     1  0.0000000  0.6508444  3
   8082   8070   8069   8091     1  0.0000000  4.9162000  2
   8082   8070   8069   8091     1  0.0000000  0.6024960  3
   8089   8083   8069   8091     1  0.0000000  4.9162000  2
   8089   8083   8069   8091     1  0.0000000  0.6024960  3
   8092   8093   8096   8097     1  180.0000771  0.8368000  1
   8092   8093   8096   8097     1  180.0000771  1.0460000  2
   8092   8093   8096   8097     1  0.0000000  0.7531200  3
   8092   8093   8096   8104     1  0.0000000  0.6508444  3
   8092   8114   8098   8097     1  180.0000771  0.4184000  2
   8092   8114   8098   8097     1  0.0000000  1.6024720  3
   8092   8114   8098   8102     1  180.0000771  5.6484000  1
   8092   8114   8098   8102     1  180.0000771  3.5564000  2
   8092   8114   8098   8102     1  0.0000000  0.4184000  3
   8093   8092   8106   8112     1  0.0000000  0.6508444  3
   8093   8092   8114   8098     1  180.0000771  0.4184000  2
   8093   8092   8114   8098     1  0.0000000  1.6024720  3
   8093   8096   8097   8098     1  180.0000771  0.8368000  1
   8093   8096   8097   8098     1  180.0000771  1.0460000  2
   8093   8096   8097   8098     1  0.0000000  0.7531200  3
   8093   8096   8097   8103     1  0.0000000  0.6508444  3
   8096   8093   8092   8106     1  180.0000771  0.8368000  1
   8096   8093   8092   8106     1  180.0000771  1.0460000  2
   8096   8093   8092   8106     1  0.0000000  0.7531200  3
   8096   8093   8092   8114     1  0.0000000  0.6508444  3
   8096   8097   8098   8102     1  0.0000000  0.6508444  3
   8096   8097   8098   8114     1  0.0000000  0.6508444  3
   8097   8096   8093   8105     1  0.0000000  0.6508444  3
   8098   8097   8096   8104     1  0.0000000  0.6508444  3
   8098   8114   8092   8106     1  180.0000771  0.4184000  2
   8098   8114   8092   8106     1  0.0000000  1.6024720  3
   8102   8098   8097   8103     1  0.0000000  4.9162000  2
   8102   8098   8097   8103     1  0.0000000  0.6024960  3
   8103   8097   8096   8104     1  0.0000000  4.9162000  2
   8103   8097   8096   8104     1  0.0000000  0.6024960  3
   8103   8097   8098   8114     1  0.0000000  4.9162000  2
   8103   8097   8098   8114     1  0.0000000  0.6024960  3
   8104   8096   8093   8105     1  0.0000000  4.9162000  2
   8104   8096   8093   8105     1  0.0000000  0.6024960  3
   8105   8093   8092   8106     1  0.0000000  0.6508444  3
   8105   8093   8092   8114     1  0.0000000  4.9162000  2
   8105   8093   8092   8114     1  0.0000000  0.6024960  3
   8112   8106   8092   8114     1  0.0000000  4.9162000  2
   8112   8106   8092   8114     1  0.0000000  0.6024960  3
   8115   8116   8119   8120     1  180.0000771  0.8368000  1
   8115   8116   8119   8120     1  180.0000771  1.0460000  2
   8115   8116   8119   8120     1  0.0000000  0.7531200  3
   8115   8116   8119   8127     1  0.0000000  0.6508444  3
   8115   8137   8121   8125     1  180.0000771  5.6484000  1
   8115   8137   8121   8125     1  180.0000771  3.5564000  2
   8115   8137   8121   8125     1  0.0000000  0.4184000  3
   8115   8137   8121   8120     1  180.0000771  0.4184000  2
   8115   8137   8121   8120     1  0.0000000  1.6024720  3
   8116   8119   8120   8121     1  180.0000771  0.8368000  1
   8116   8119   8120   8121     1  180.0000771  1.0460000  2
   8116   8119   8120   8121     1  0.0000000  0.7531200  3
   8116   8119   8120   8126     1  0.0000000  0.6508444  3
   8116   8115   8129   8135     1  0.0000000  0.6508444  3
   8116   8115   8137   8121     1  180.0000771  0.4184000  2
   8116   8115   8137   8121     1  0.0000000  1.6024720  3
   8119   8120   8121   8125     1  0.0000000  0.6508444  3
   8119   8120   8121   8137     1  0.0000000  0.6508444  3
   8119   8116   8115   8129     1  180.0000771  0.8368000  1
   8119   8116   8115   8129     1  180.0000771  1.0460000  2
   8119   8116   8115   8129     1  0.0000000  0.7531200  3
   8119   8116   8115   8137     1  0.0000000  0.6508444  3
   8120   8119   8116   8128     1  0.0000000  0.6508444  3
   8121   8137   8115   8129     1  180.0000771  0.4184000  2
   8121   8137   8115   8129     1  0.0000000  1.6024720  3
   8121   8120   8119   8127     1  0.0000000  0.6508444  3
   8125   8121   8120   8126     1  0.0000000  4.9162000  2
   8125   8121   8120   8126     1  0.0000000  0.6024960  3
   8126   8120   8121   8137     1  0.0000000  4.9162000  2
   8126   8120   8121   8137     1  0.0000000  0.6024960  3
   8126   8120   8119   8127     1  0.0000000  4.9162000  2
   8126   8120   8119   8127     1  0.0000000  0.6024960  3
   8127   8119   8116   8128     1  0.0000000  4.9162000  2
   8127   8119   8116   8128     1  0.0000000  0.6024960  3
   8128   8116   8115   8129     1  0.0000000  0.6508444  3
   8128   8116   8115   8137     1  0.0000000  4.9162000  2
   8128   8116   8115   8137     1  0.0000000  0.6024960  3
   8135   8129   8115   8137     1  0.0000000  4.9162000  2
   8135   8129   8115   8137     1  0.0000000  0.6024960  3
   8138   8139   8142   8143     1  180.0000771  0.8368000  1
   8138   8139   8142   8143     1  180.0000771  1.0460000  2
   8138   8139   8142   8143     1  0.0000000  0.7531200  3
   8138   8139   8142   8150     1  0.0000000  0.6508444  3
   8138   8160   8144   8143     1  180.0000771  0.4184000  2
   8138   8160   8144   8143     1  0.0000000  1.6024720  3
   8138   8160   8144   8148     1  180.0000771  5.6484000  1
   8138   8160   8144   8148     1  180.0000771  3.5564000  2
   8138   8160   8144   8148     1  0.0000000  0.4184000  3
   8139   8138   8152   8158     1  0.0000000  0.6508444  3
   8139   8138   8160   8144     1  180.0000771  0.4184000  2
   8139   8138   8160   8144     1  0.0000000  1.6024720  3
   8139   8142   8143   8144     1  180.0000771  0.8368000  1
   8139   8142   8143   8144     1  180.0000771  1.0460000  2
   8139   8142   8143   8144     1  0.0000000  0.7531200  3
   8139   8142   8143   8149     1  0.0000000  0.6508444  3
   8142   8139   8138   8152     1  180.0000771  0.8368000  1
   8142   8139   8138   8152     1  180.0000771  1.0460000  2
   8142   8139   8138   8152     1  0.0000000  0.7531200  3
   8142   8139   8138   8160     1  0.0000000  0.6508444  3
   8142   8143   8144   8148     1  0.0000000  0.6508444  3
   8142   8143   8144   8160     1  0.0000000  0.6508444  3
   8143   8142   8139   8151     1  0.0000000  0.6508444  3
   8144   8143   8142   8150     1  0.0000000  0.6508444  3
   8144   8160   8138   8152     1  180.0000771  0.4184000  2
   8144   8160   8138   8152     1  0.0000000  1.6024720  3
   8148   8144   8143   8149     1  0.0000000  4.9162000  2
   8148   8144   8143   8149     1  0.0000000  0.6024960  3
   8149   8143   8142   8150     1  0.0000000  4.9162000  2
   8149   8143   8142   8150     1  0.0000000  0.6024960  3
   8149   8143   8144   8160     1  0.0000000  4.9162000  2
   8149   8143   8144   8160     1  0.0000000  0.6024960  3
   8150   8142   8139   8151     1  0.0000000  4.9162000  2
   8150   8142   8139   8151     1  0.0000000  0.6024960  3
   8151   8139   8138   8152     1  0.0000000  0.6508444  3
   8151   8139   8138   8160     1  0.0000000  4.9162000  2
   8151   8139   8138   8160     1  0.0000000  0.6024960  3
   8158   8152   8138   8160     1  0.0000000  4.9162000  2
   8158   8152   8138   8160     1  0.0000000  0.6024960  3
   8161   8162   8165   8166     1  180.0000771  0.8368000  1
   8161   8162   8165   8166     1  180.0000771  1.0460000  2
   8161   8162   8165   8166     1  0.0000000  0.7531200  3
   8161   8162   8165   8173     1  0.0000000  0.6508444  3
   8161   8183   8167   8171     1  180.0000771  5.6484000  1
   8161   8183   8167   8171     1  180.0000771  3.5564000  2
   8161   8183   8167   8171     1  0.0000000  0.4184000  3
   8161   8183   8167   8166     1  180.0000771  0.4184000  2
   8161   8183   8167   8166     1  0.0000000  1.6024720  3
   8162   8165   8166   8167     1  180.0000771  0.8368000  1
   8162   8165   8166   8167     1  180.0000771  1.0460000  2
   8162   8165   8166   8167     1  0.0000000  0.7531200  3
   8162   8165   8166   8172     1  0.0000000  0.6508444  3
   8162   8161   8175   8181     1  0.0000000  0.6508444  3
   8162   8161   8183   8167     1  180.0000771  0.4184000  2
   8162   8161   8183   8167     1  0.0000000  1.6024720  3
   8165   8166   8167   8171     1  0.0000000  0.6508444  3
   8165   8166   8167   8183     1  0.0000000  0.6508444  3
   8165   8162   8161   8175     1  180.0000771  0.8368000  1
   8165   8162   8161   8175     1  180.0000771  1.0460000  2
   8165   8162   8161   8175     1  0.0000000  0.7531200  3
   8165   8162   8161   8183     1  0.0000000  0.6508444  3
   8166   8165   8162   8174     1  0.0000000  0.6508444  3
   8167   8183   8161   8175     1  180.0000771  0.4184000  2
   8167   8183   8161   8175     1  0.0000000  1.6024720  3
   8167   8166   8165   8173     1  0.0000000  0.6508444  3
   8171   8167   8166   8172     1  0.0000000  4.9162000  2
   8171   8167   8166   8172     1  0.0000000  0.6024960  3
   8172   8166   8167   8183     1  0.0000000  4.9162000  2
   8172   8166   8167   8183     1  0.0000000  0.6024960  3
   8172   8166   8165   8173     1  0.0000000  4.9162000  2
   8172   8166   8165   8173     1  0.0000000  0.6024960  3
   8173   8165   8162   8174     1  0.0000000  4.9162000  2
   8173   8165   8162   8174     1  0.0000000  0.6024960  3
   8174   8162   8161   8175     1  0.0000000  0.6508444  3
   8174   8162   8161   8183     1  0.0000000  4.9162000  2
   8174   8162   8161   8183     1  0.0000000  0.6024960  3
   8181   8175   8161   8183     1  0.0000000  4.9162000  2
   8181   8175   8161   8183     1  0.0000000  0.6024960  3
   8184   8185   8188   8189     1  180.0000771  0.8368000  1
   8184   8185   8188   8189     1  180.0000771  1.0460000  2
   8184   8185   8188   8189     1  0.0000000  0.7531200  3
   8184   8185   8188   8196     1  0.0000000  0.6508444  3
   8184   8206   8190   8189     1  180.0000771  0.4184000  2
   8184   8206   8190   8189     1  0.0000000  1.6024720  3
   8184   8206   8190   8194     1  180.0000771  5.6484000  1
   8184   8206   8190   8194     1  180.0000771  3.5564000  2
   8184   8206   8190   8194     1  0.0000000  0.4184000  3
   8185   8184   8198   8204     1  0.0000000  0.6508444  3
   8185   8184   8206   8190     1  180.0000771  0.4184000  2
   8185   8184   8206   8190     1  0.0000000  1.6024720  3
   8185   8188   8189   8190     1  180.0000771  0.8368000  1
   8185   8188   8189   8190     1  180.0000771  1.0460000  2
   8185   8188   8189   8190     1  0.0000000  0.7531200  3
   8185   8188   8189   8195     1  0.0000000  0.6508444  3
   8188   8185   8184   8198     1  180.0000771  0.8368000  1
   8188   8185   8184   8198     1  180.0000771  1.0460000  2
   8188   8185   8184   8198     1  0.0000000  0.7531200  3
   8188   8185   8184   8206     1  0.0000000  0.6508444  3
   8188   8189   8190   8194     1  0.0000000  0.6508444  3
   8188   8189   8190   8206     1  0.0000000  0.6508444  3
   8189   8188   8185   8197     1  0.0000000  0.6508444  3
   8190   8189   8188   8196     1  0.0000000  0.6508444  3
   8190   8206   8184   8198     1  180.0000771  0.4184000  2
   8190   8206   8184   8198     1  0.0000000  1.6024720  3
   8194   8190   8189   8195     1  0.0000000  4.9162000  2
   8194   8190   8189   8195     1  0.0000000  0.6024960  3
   8195   8189   8188   8196     1  0.0000000  4.9162000  2
   8195   8189   8188   8196     1  0.0000000  0.6024960  3
   8195   8189   8190   8206     1  0.0000000  4.9162000  2
   8195   8189   8190   8206     1  0.0000000  0.6024960  3
   8196   8188   8185   8197     1  0.0000000  4.9162000  2
   8196   8188   8185   8197     1  0.0000000  0.6024960  3
   8197   8185   8184   8198     1  0.0000000  0.6508444  3
   8197   8185   8184   8206     1  0.0000000  4.9162000  2
   8197   8185   8184   8206     1  0.0000000  0.6024960  3
   8204   8198   8184   8206     1  0.0000000  4.9162000  2
   8204   8198   8184   8206     1  0.0000000  0.6024960  3
   8207   8208   8211   8212     1  180.0000771  0.8368000  1
   8207   8208   8211   8212     1  180.0000771  1.0460000  2
   8207   8208   8211   8212     1  0.0000000  0.7531200  3
   8207   8208   8211   8219     1  0.0000000  0.6508444  3
   8207   8229   8213   8217     1  180.0000771  5.6484000  1
   8207   8229   8213   8217     1  180.0000771  3.5564000  2
   8207   8229   8213   8217     1  0.0000000  0.4184000  3
   8207   8229   8213   8212     1  180.0000771  0.4184000  2
   8207   8229   8213   8212     1  0.0000000  1.6024720  3
   8208   8211   8212   8213     1  180.0000771  0.8368000  1
   8208   8211   8212   8213     1  180.0000771  1.0460000  2
   8208   8211   8212   8213     1  0.0000000  0.7531200  3
   8208   8211   8212   8218     1  0.0000000  0.6508444  3
   8208   8207   8221   8227     1  0.0000000  0.6508444  3
   8208   8207   8229   8213     1  180.0000771  0.4184000  2
   8208   8207   8229   8213     1  0.0000000  1.6024720  3
   8211   8212   8213   8217     1  0.0000000  0.6508444  3
   8211   8212   8213   8229     1  0.0000000  0.6508444  3
   8211   8208   8207   8221     1  180.0000771  0.8368000  1
   8211   8208   8207   8221     1  180.0000771  1.0460000  2
   8211   8208   8207   8221     1  0.0000000  0.7531200  3
   8211   8208   8207   8229     1  0.0000000  0.6508444  3
   8212   8211   8208   8220     1  0.0000000  0.6508444  3
   8213   8229   8207   8221     1  180.0000771  0.4184000  2
   8213   8229   8207   8221     1  0.0000000  1.6024720  3
   8213   8212   8211   8219     1  0.0000000  0.6508444  3
   8217   8213   8212   8218     1  0.0000000  4.9162000  2
   8217   8213   8212   8218     1  0.0000000  0.6024960  3
   8218   8212   8213   8229     1  0.0000000  4.9162000  2
   8218   8212   8213   8229     1  0.0000000  0.6024960  3
   8218   8212   8211   8219     1  0.0000000  4.9162000  2
   8218   8212   8211   8219     1  0.0000000  0.6024960  3
   8219   8211   8208   8220     1  0.0000000  4.9162000  2
   8219   8211   8208   8220     1  0.0000000  0.6024960  3
   8220   8208   8207   8221     1  0.0000000  0.6508444  3
   8220   8208   8207   8229     1  0.0000000  4.9162000  2
   8220   8208   8207   8229     1  0.0000000  0.6024960  3
   8227   8221   8207   8229     1  0.0000000  4.9162000  2
   8227   8221   8207   8229     1  0.0000000  0.6024960  3
   8230   8231   8234   8235     1  180.0000771  0.8368000  1
   8230   8231   8234   8235     1  180.0000771  1.0460000  2
   8230   8231   8234   8235     1  0.0000000  0.7531200  3
   8230   8231   8234   8242     1  0.0000000  0.6508444  3
   8230   8252   8236   8235     1  180.0000771  0.4184000  2
   8230   8252   8236   8235     1  0.0000000  1.6024720  3
   8230   8252   8236   8240     1  180.0000771  5.6484000  1
   8230   8252   8236   8240     1  180.0000771  3.5564000  2
   8230   8252   8236   8240     1  0.0000000  0.4184000  3
   8231   8230   8244   8250     1  0.0000000  0.6508444  3
   8231   8230   8252   8236     1  180.0000771  0.4184000  2
   8231   8230   8252   8236     1  0.0000000  1.6024720  3
   8231   8234   8235   8236     1  180.0000771  0.8368000  1
   8231   8234   8235   8236     1  180.0000771  1.0460000  2
   8231   8234   8235   8236     1  0.0000000  0.7531200  3
   8231   8234   8235   8241     1  0.0000000  0.6508444  3
   8234   8231   8230   8244     1  180.0000771  0.8368000  1
   8234   8231   8230   8244     1  180.0000771  1.0460000  2
   8234   8231   8230   8244     1  0.0000000  0.7531200  3
   8234   8231   8230   8252     1  0.0000000  0.6508444  3
   8234   8235   8236   8240     1  0.0000000  0.6508444  3
   8234   8235   8236   8252     1  0.0000000  0.6508444  3
   8235   8234   8231   8243     1  0.0000000  0.6508444  3
   8236   8235   8234   8242     1  0.0000000  0.6508444  3
   8236   8252   8230   8244     1  180.0000771  0.4184000  2
   8236   8252   8230   8244     1  0.0000000  1.6024720  3
   8240   8236   8235   8241     1  0.0000000  4.9162000  2
   8240   8236   8235   8241     1  0.0000000  0.6024960  3
   8241   8235   8234   8242     1  0.0000000  4.9162000  2
   8241   8235   8234   8242     1  0.0000000  0.6024960  3
   8241   8235   8236   8252     1  0.0000000  4.9162000  2
   8241   8235   8236   8252     1  0.0000000  0.6024960  3
   8242   8234   8231   8243     1  0.0000000  4.9162000  2
   8242   8234   8231   8243     1  0.0000000  0.6024960  3
   8243   8231   8230   8244     1  0.0000000  0.6508444  3
   8243   8231   8230   8252     1  0.0000000  4.9162000  2
   8243   8231   8230   8252     1  0.0000000  0.6024960  3
   8250   8244   8230   8252     1  0.0000000  4.9162000  2
   8250   8244   8230   8252     1  0.0000000  0.6024960  3
   8253   8254   8257   8258     1  180.0000771  0.8368000  1
   8253   8254   8257   8258     1  180.0000771  1.0460000  2
   8253   8254   8257   8258     1  0.0000000  0.7531200  3
   8253   8254   8257   8265     1  0.0000000  0.6508444  3
   8253   8275   8259   8263     1  180.0000771  5.6484000  1
   8253   8275   8259   8263     1  180.0000771  3.5564000  2
   8253   8275   8259   8263     1  0.0000000  0.4184000  3
   8253   8275   8259   8258     1  180.0000771  0.4184000  2
   8253   8275   8259   8258     1  0.0000000  1.6024720  3
   8254   8257   8258   8259     1  180.0000771  0.8368000  1
   8254   8257   8258   8259     1  180.0000771  1.0460000  2
   8254   8257   8258   8259     1  0.0000000  0.7531200  3
   8254   8257   8258   8264     1  0.0000000  0.6508444  3
   8254   8253   8267   8273     1  0.0000000  0.6508444  3
   8254   8253   8275   8259     1  180.0000771  0.4184000  2
   8254   8253   8275   8259     1  0.0000000  1.6024720  3
   8257   8258   8259   8263     1  0.0000000  0.6508444  3
   8257   8258   8259   8275     1  0.0000000  0.6508444  3
   8257   8254   8253   8267     1  180.0000771  0.8368000  1
   8257   8254   8253   8267     1  180.0000771  1.0460000  2
   8257   8254   8253   8267     1  0.0000000  0.7531200  3
   8257   8254   8253   8275     1  0.0000000  0.6508444  3
   8258   8257   8254   8266     1  0.0000000  0.6508444  3
   8259   8275   8253   8267     1  180.0000771  0.4184000  2
   8259   8275   8253   8267     1  0.0000000  1.6024720  3
   8259   8258   8257   8265     1  0.0000000  0.6508444  3
   8263   8259   8258   8264     1  0.0000000  4.9162000  2
   8263   8259   8258   8264     1  0.0000000  0.6024960  3
   8264   8258   8259   8275     1  0.0000000  4.9162000  2
   8264   8258   8259   8275     1  0.0000000  0.6024960  3
   8264   8258   8257   8265     1  0.0000000  4.9162000  2
   8264   8258   8257   8265     1  0.0000000  0.6024960  3
   8265   8257   8254   8266     1  0.0000000  4.9162000  2
   8265   8257   8254   8266     1  0.0000000  0.6024960  3
   8266   8254   8253   8267     1  0.0000000  0.6508444  3
   8266   8254   8253   8275     1  0.0000000  4.9162000  2
   8266   8254   8253   8275     1  0.0000000  0.6024960  3
   8273   8267   8253   8275     1  0.0000000  4.9162000  2
   8273   8267   8253   8275     1  0.0000000  0.6024960  3
   8276   8277   8280   8281     1  180.0000771  0.8368000  1
   8276   8277   8280   8281     1  180.0000771  1.0460000  2
   8276   8277   8280   8281     1  0.0000000  0.7531200  3
   8276   8277   8280   8288     1  0.0000000  0.6508444  3
   8276   8298   8282   8281     1  180.0000771  0.4184000  2
   8276   8298   8282   8281     1  0.0000000  1.6024720  3
   8276   8298   8282   8286     1  180.0000771  5.6484000  1
   8276   8298   8282   8286     1  180.0000771  3.5564000  2
   8276   8298   8282   8286     1  0.0000000  0.4184000  3
   8277   8276   8290   8296     1  0.0000000  0.6508444  3
   8277   8276   8298   8282     1  180.0000771  0.4184000  2
   8277   8276   8298   8282     1  0.0000000  1.6024720  3
   8277   8280   8281   8282     1  180.0000771  0.8368000  1
   8277   8280   8281   8282     1  180.0000771  1.0460000  2
   8277   8280   8281   8282     1  0.0000000  0.7531200  3
   8277   8280   8281   8287     1  0.0000000  0.6508444  3
   8280   8277   8276   8290     1  180.0000771  0.8368000  1
   8280   8277   8276   8290     1  180.0000771  1.0460000  2
   8280   8277   8276   8290     1  0.0000000  0.7531200  3
   8280   8277   8276   8298     1  0.0000000  0.6508444  3
   8280   8281   8282   8286     1  0.0000000  0.6508444  3
   8280   8281   8282   8298     1  0.0000000  0.6508444  3
   8281   8280   8277   8289     1  0.0000000  0.6508444  3
   8282   8281   8280   8288     1  0.0000000  0.6508444  3
   8282   8298   8276   8290     1  180.0000771  0.4184000  2
   8282   8298   8276   8290     1  0.0000000  1.6024720  3
   8286   8282   8281   8287     1  0.0000000  4.9162000  2
   8286   8282   8281   8287     1  0.0000000  0.6024960  3
   8287   8281   8280   8288     1  0.0000000  4.9162000  2
   8287   8281   8280   8288     1  0.0000000  0.6024960  3
   8287   8281   8282   8298     1  0.0000000  4.9162000  2
   8287   8281   8282   8298     1  0.0000000  0.6024960  3
   8288   8280   8277   8289     1  0.0000000  4.9162000  2
   8288   8280   8277   8289     1  0.0000000  0.6024960  3
   8289   8277   8276   8290     1  0.0000000  0.6508444  3
   8289   8277   8276   8298     1  0.0000000  4.9162000  2
   8289   8277   8276   8298     1  0.0000000  0.6024960  3
   8296   8290   8276   8298     1  0.0000000  4.9162000  2
   8296   8290   8276   8298     1  0.0000000  0.6024960  3
   8299   8300   8303   8304     1  180.0000771  0.8368000  1
   8299   8300   8303   8304     1  180.0000771  1.0460000  2
   8299   8300   8303   8304     1  0.0000000  0.7531200  3
   8299   8300   8303   8311     1  0.0000000  0.6508444  3
   8299   8321   8305   8309     1  180.0000771  5.6484000  1
   8299   8321   8305   8309     1  180.0000771  3.5564000  2
   8299   8321   8305   8309     1  0.0000000  0.4184000  3
   8299   8321   8305   8304     1  180.0000771  0.4184000  2
   8299   8321   8305   8304     1  0.0000000  1.6024720  3
   8300   8303   8304   8305     1  180.0000771  0.8368000  1
   8300   8303   8304   8305     1  180.0000771  1.0460000  2
   8300   8303   8304   8305     1  0.0000000  0.7531200  3
   8300   8303   8304   8310     1  0.0000000  0.6508444  3
   8300   8299   8313   8319     1  0.0000000  0.6508444  3
   8300   8299   8321   8305     1  180.0000771  0.4184000  2
   8300   8299   8321   8305     1  0.0000000  1.6024720  3
   8303   8304   8305   8309     1  0.0000000  0.6508444  3
   8303   8304   8305   8321     1  0.0000000  0.6508444  3
   8303   8300   8299   8313     1  180.0000771  0.8368000  1
   8303   8300   8299   8313     1  180.0000771  1.0460000  2
   8303   8300   8299   8313     1  0.0000000  0.7531200  3
   8303   8300   8299   8321     1  0.0000000  0.6508444  3
   8304   8303   8300   8312     1  0.0000000  0.6508444  3
   8305   8321   8299   8313     1  180.0000771  0.4184000  2
   8305   8321   8299   8313     1  0.0000000  1.6024720  3
   8305   8304   8303   8311     1  0.0000000  0.6508444  3
   8309   8305   8304   8310     1  0.0000000  4.9162000  2
   8309   8305   8304   8310     1  0.0000000  0.6024960  3
   8310   8304   8305   8321     1  0.0000000  4.9162000  2
   8310   8304   8305   8321     1  0.0000000  0.6024960  3
   8310   8304   8303   8311     1  0.0000000  4.9162000  2
   8310   8304   8303   8311     1  0.0000000  0.6024960  3
   8311   8303   8300   8312     1  0.0000000  4.9162000  2
   8311   8303   8300   8312     1  0.0000000  0.6024960  3
   8312   8300   8299   8313     1  0.0000000  0.6508444  3
   8312   8300   8299   8321     1  0.0000000  4.9162000  2
   8312   8300   8299   8321     1  0.0000000  0.6024960  3
   8319   8313   8299   8321     1  0.0000000  4.9162000  2
   8319   8313   8299   8321     1  0.0000000  0.6024960  3
   8322   8323   8326   8327     1  180.0000771  0.8368000  1
   8322   8323   8326   8327     1  180.0000771  1.0460000  2
   8322   8323   8326   8327     1  0.0000000  0.7531200  3
   8322   8323   8326   8334     1  0.0000000  0.6508444  3
   8322   8344   8328   8327     1  180.0000771  0.4184000  2
   8322   8344   8328   8327     1  0.0000000  1.6024720  3
   8322   8344   8328   8332     1  180.0000771  5.6484000  1
   8322   8344   8328   8332     1  180.0000771  3.5564000  2
   8322   8344   8328   8332     1  0.0000000  0.4184000  3
   8323   8322   8336   8342     1  0.0000000  0.6508444  3
   8323   8322   8344   8328     1  180.0000771  0.4184000  2
   8323   8322   8344   8328     1  0.0000000  1.6024720  3
   8323   8326   8327   8328     1  180.0000771  0.8368000  1
   8323   8326   8327   8328     1  180.0000771  1.0460000  2
   8323   8326   8327   8328     1  0.0000000  0.7531200  3
   8323   8326   8327   8333     1  0.0000000  0.6508444  3
   8326   8323   8322   8336     1  180.0000771  0.8368000  1
   8326   8323   8322   8336     1  180.0000771  1.0460000  2
   8326   8323   8322   8336     1  0.0000000  0.7531200  3
   8326   8323   8322   8344     1  0.0000000  0.6508444  3
   8326   8327   8328   8332     1  0.0000000  0.6508444  3
   8326   8327   8328   8344     1  0.0000000  0.6508444  3
   8327   8326   8323   8335     1  0.0000000  0.6508444  3
   8328   8327   8326   8334     1  0.0000000  0.6508444  3
   8328   8344   8322   8336     1  180.0000771  0.4184000  2
   8328   8344   8322   8336     1  0.0000000  1.6024720  3
   8332   8328   8327   8333     1  0.0000000  4.9162000  2
   8332   8328   8327   8333     1  0.0000000  0.6024960  3
   8333   8327   8326   8334     1  0.0000000  4.9162000  2
   8333   8327   8326   8334     1  0.0000000  0.6024960  3
   8333   8327   8328   8344     1  0.0000000  4.9162000  2
   8333   8327   8328   8344     1  0.0000000  0.6024960  3
   8334   8326   8323   8335     1  0.0000000  4.9162000  2
   8334   8326   8323   8335     1  0.0000000  0.6024960  3
   8335   8323   8322   8336     1  0.0000000  0.6508444  3
   8335   8323   8322   8344     1  0.0000000  4.9162000  2
   8335   8323   8322   8344     1  0.0000000  0.6024960  3
   8342   8336   8322   8344     1  0.0000000  4.9162000  2
   8342   8336   8322   8344     1  0.0000000  0.6024960  3
   8345   8346   8349   8350     1  180.0000771  0.8368000  1
   8345   8346   8349   8350     1  180.0000771  1.0460000  2
   8345   8346   8349   8350     1  0.0000000  0.7531200  3
   8345   8346   8349   8357     1  0.0000000  0.6508444  3
   8345   8367   8351   8355     1  180.0000771  5.6484000  1
   8345   8367   8351   8355     1  180.0000771  3.5564000  2
   8345   8367   8351   8355     1  0.0000000  0.4184000  3
   8345   8367   8351   8350     1  180.0000771  0.4184000  2
   8345   8367   8351   8350     1  0.0000000  1.6024720  3
   8346   8349   8350   8351     1  180.0000771  0.8368000  1
   8346   8349   8350   8351     1  180.0000771  1.0460000  2
   8346   8349   8350   8351     1  0.0000000  0.7531200  3
   8346   8349   8350   8356     1  0.0000000  0.6508444  3
   8346   8345   8359   8365     1  0.0000000  0.6508444  3
   8346   8345   8367   8351     1  180.0000771  0.4184000  2
   8346   8345   8367   8351     1  0.0000000  1.6024720  3
   8349   8350   8351   8355     1  0.0000000  0.6508444  3
   8349   8350   8351   8367     1  0.0000000  0.6508444  3
   8349   8346   8345   8359     1  180.0000771  0.8368000  1
   8349   8346   8345   8359     1  180.0000771  1.0460000  2
   8349   8346   8345   8359     1  0.0000000  0.7531200  3
   8349   8346   8345   8367     1  0.0000000  0.6508444  3
   8350   8349   8346   8358     1  0.0000000  0.6508444  3
   8351   8367   8345   8359     1  180.0000771  0.4184000  2
   8351   8367   8345   8359     1  0.0000000  1.6024720  3
   8351   8350   8349   8357     1  0.0000000  0.6508444  3
   8355   8351   8350   8356     1  0.0000000  4.9162000  2
   8355   8351   8350   8356     1  0.0000000  0.6024960  3
   8356   8350   8351   8367     1  0.0000000  4.9162000  2
   8356   8350   8351   8367     1  0.0000000  0.6024960  3
   8356   8350   8349   8357     1  0.0000000  4.9162000  2
   8356   8350   8349   8357     1  0.0000000  0.6024960  3
   8357   8349   8346   8358     1  0.0000000  4.9162000  2
   8357   8349   8346   8358     1  0.0000000  0.6024960  3
   8358   8346   8345   8359     1  0.0000000  0.6508444  3
   8358   8346   8345   8367     1  0.0000000  4.9162000  2
   8358   8346   8345   8367     1  0.0000000  0.6024960  3
   8365   8359   8345   8367     1  0.0000000  4.9162000  2
   8365   8359   8345   8367     1  0.0000000  0.6024960  3
   8368   8369   8372   8373     1  180.0000771  0.8368000  1
   8368   8369   8372   8373     1  180.0000771  1.0460000  2
   8368   8369   8372   8373     1  0.0000000  0.7531200  3
   8368   8369   8372   8380     1  0.0000000  0.6508444  3
   8368   8390   8374   8373     1  180.0000771  0.4184000  2
   8368   8390   8374   8373     1  0.0000000  1.6024720  3
   8368   8390   8374   8378     1  180.0000771  5.6484000  1
   8368   8390   8374   8378     1  180.0000771  3.5564000  2
   8368   8390   8374   8378     1  0.0000000  0.4184000  3
   8369   8368   8382   8388     1  0.0000000  0.6508444  3
   8369   8368   8390   8374     1  180.0000771  0.4184000  2
   8369   8368   8390   8374     1  0.0000000  1.6024720  3
   8369   8372   8373   8374     1  180.0000771  0.8368000  1
   8369   8372   8373   8374     1  180.0000771  1.0460000  2
   8369   8372   8373   8374     1  0.0000000  0.7531200  3
   8369   8372   8373   8379     1  0.0000000  0.6508444  3
   8372   8369   8368   8382     1  180.0000771  0.8368000  1
   8372   8369   8368   8382     1  180.0000771  1.0460000  2
   8372   8369   8368   8382     1  0.0000000  0.7531200  3
   8372   8369   8368   8390     1  0.0000000  0.6508444  3
   8372   8373   8374   8378     1  0.0000000  0.6508444  3
   8372   8373   8374   8390     1  0.0000000  0.6508444  3
   8373   8372   8369   8381     1  0.0000000  0.6508444  3
   8374   8373   8372   8380     1  0.0000000  0.6508444  3
   8374   8390   8368   8382     1  180.0000771  0.4184000  2
   8374   8390   8368   8382     1  0.0000000  1.6024720  3
   8378   8374   8373   8379     1  0.0000000  4.9162000  2
   8378   8374   8373   8379     1  0.0000000  0.6024960  3
   8379   8373   8372   8380     1  0.0000000  4.9162000  2
   8379   8373   8372   8380     1  0.0000000  0.6024960  3
   8379   8373   8374   8390     1  0.0000000  4.9162000  2
   8379   8373   8374   8390     1  0.0000000  0.6024960  3
   8380   8372   8369   8381     1  0.0000000  4.9162000  2
   8380   8372   8369   8381     1  0.0000000  0.6024960  3
   8381   8369   8368   8382     1  0.0000000  0.6508444  3
   8381   8369   8368   8390     1  0.0000000  4.9162000  2
   8381   8369   8368   8390     1  0.0000000  0.6024960  3
   8388   8382   8368   8390     1  0.0000000  4.9162000  2
   8388   8382   8368   8390     1  0.0000000  0.6024960  3
   8391   8392   8395   8396     1  180.0000771  0.8368000  1
   8391   8392   8395   8396     1  180.0000771  1.0460000  2
   8391   8392   8395   8396     1  0.0000000  0.7531200  3
   8391   8392   8395   8403     1  0.0000000  0.6508444  3
   8391   8413   8397   8401     1  180.0000771  5.6484000  1
   8391   8413   8397   8401     1  180.0000771  3.5564000  2
   8391   8413   8397   8401     1  0.0000000  0.4184000  3
   8391   8413   8397   8396     1  180.0000771  0.4184000  2
   8391   8413   8397   8396     1  0.0000000  1.6024720  3
   8392   8395   8396   8397     1  180.0000771  0.8368000  1
   8392   8395   8396   8397     1  180.0000771  1.0460000  2
   8392   8395   8396   8397     1  0.0000000  0.7531200  3
   8392   8395   8396   8402     1  0.0000000  0.6508444  3
   8392   8391   8405   8411     1  0.0000000  0.6508444  3
   8392   8391   8413   8397     1  180.0000771  0.4184000  2
   8392   8391   8413   8397     1  0.0000000  1.6024720  3
   8395   8396   8397   8401     1  0.0000000  0.6508444  3
   8395   8396   8397   8413     1  0.0000000  0.6508444  3
   8395   8392   8391   8405     1  180.0000771  0.8368000  1
   8395   8392   8391   8405     1  180.0000771  1.0460000  2
   8395   8392   8391   8405     1  0.0000000  0.7531200  3
   8395   8392   8391   8413     1  0.0000000  0.6508444  3
   8396   8395   8392   8404     1  0.0000000  0.6508444  3
   8397   8413   8391   8405     1  180.0000771  0.4184000  2
   8397   8413   8391   8405     1  0.0000000  1.6024720  3
   8397   8396   8395   8403     1  0.0000000  0.6508444  3
   8401   8397   8396   8402     1  0.0000000  4.9162000  2
   8401   8397   8396   8402     1  0.0000000  0.6024960  3
   8402   8396   8397   8413     1  0.0000000  4.9162000  2
   8402   8396   8397   8413     1  0.0000000  0.6024960  3
   8402   8396   8395   8403     1  0.0000000  4.9162000  2
   8402   8396   8395   8403     1  0.0000000  0.6024960  3
   8403   8395   8392   8404     1  0.0000000  4.9162000  2
   8403   8395   8392   8404     1  0.0000000  0.6024960  3
   8404   8392   8391   8405     1  0.0000000  0.6508444  3
   8404   8392   8391   8413     1  0.0000000  4.9162000  2
   8404   8392   8391   8413     1  0.0000000  0.6024960  3
   8411   8405   8391   8413     1  0.0000000  4.9162000  2
   8411   8405   8391   8413     1  0.0000000  0.6024960  3
   8414   8415   8418   8419     1  180.0000771  0.8368000  1
   8414   8415   8418   8419     1  180.0000771  1.0460000  2
   8414   8415   8418   8419     1  0.0000000  0.7531200  3
   8414   8415   8418   8426     1  0.0000000  0.6508444  3
   8414   8436   8420   8419     1  180.0000771  0.4184000  2
   8414   8436   8420   8419     1  0.0000000  1.6024720  3
   8414   8436   8420   8424     1  180.0000771  5.6484000  1
   8414   8436   8420   8424     1  180.0000771  3.5564000  2
   8414   8436   8420   8424     1  0.0000000  0.4184000  3
   8415   8414   8428   8434     1  0.0000000  0.6508444  3
   8415   8414   8436   8420     1  180.0000771  0.4184000  2
   8415   8414   8436   8420     1  0.0000000  1.6024720  3
   8415   8418   8419   8420     1  180.0000771  0.8368000  1
   8415   8418   8419   8420     1  180.0000771  1.0460000  2
   8415   8418   8419   8420     1  0.0000000  0.7531200  3
   8415   8418   8419   8425     1  0.0000000  0.6508444  3
   8418   8415   8414   8428     1  180.0000771  0.8368000  1
   8418   8415   8414   8428     1  180.0000771  1.0460000  2
   8418   8415   8414   8428     1  0.0000000  0.7531200  3
   8418   8415   8414   8436     1  0.0000000  0.6508444  3
   8418   8419   8420   8424     1  0.0000000  0.6508444  3
   8418   8419   8420   8436     1  0.0000000  0.6508444  3
   8419   8418   8415   8427     1  0.0000000  0.6508444  3
   8420   8419   8418   8426     1  0.0000000  0.6508444  3
   8420   8436   8414   8428     1  180.0000771  0.4184000  2
   8420   8436   8414   8428     1  0.0000000  1.6024720  3
   8424   8420   8419   8425     1  0.0000000  4.9162000  2
   8424   8420   8419   8425     1  0.0000000  0.6024960  3
   8425   8419   8418   8426     1  0.0000000  4.9162000  2
   8425   8419   8418   8426     1  0.0000000  0.6024960  3
   8425   8419   8420   8436     1  0.0000000  4.9162000  2
   8425   8419   8420   8436     1  0.0000000  0.6024960  3
   8426   8418   8415   8427     1  0.0000000  4.9162000  2
   8426   8418   8415   8427     1  0.0000000  0.6024960  3
   8427   8415   8414   8428     1  0.0000000  0.6508444  3
   8427   8415   8414   8436     1  0.0000000  4.9162000  2
   8427   8415   8414   8436     1  0.0000000  0.6024960  3
   8434   8428   8414   8436     1  0.0000000  4.9162000  2
   8434   8428   8414   8436     1  0.0000000  0.6024960  3
   8437   8438   8441   8442     1  180.0000771  0.8368000  1
   8437   8438   8441   8442     1  180.0000771  1.0460000  2
   8437   8438   8441   8442     1  0.0000000  0.7531200  3
   8437   8438   8441   8449     1  0.0000000  0.6508444  3
   8437   8459   8443   8447     1  180.0000771  5.6484000  1
   8437   8459   8443   8447     1  180.0000771  3.5564000  2
   8437   8459   8443   8447     1  0.0000000  0.4184000  3
   8437   8459   8443   8442     1  180.0000771  0.4184000  2
   8437   8459   8443   8442     1  0.0000000  1.6024720  3
   8438   8441   8442   8443     1  180.0000771  0.8368000  1
   8438   8441   8442   8443     1  180.0000771  1.0460000  2
   8438   8441   8442   8443     1  0.0000000  0.7531200  3
   8438   8441   8442   8448     1  0.0000000  0.6508444  3
   8438   8437   8451   8457     1  0.0000000  0.6508444  3
   8438   8437   8459   8443     1  180.0000771  0.4184000  2
   8438   8437   8459   8443     1  0.0000000  1.6024720  3
   8441   8442   8443   8447     1  0.0000000  0.6508444  3
   8441   8442   8443   8459     1  0.0000000  0.6508444  3
   8441   8438   8437   8451     1  180.0000771  0.8368000  1
   8441   8438   8437   8451     1  180.0000771  1.0460000  2
   8441   8438   8437   8451     1  0.0000000  0.7531200  3
   8441   8438   8437   8459     1  0.0000000  0.6508444  3
   8442   8441   8438   8450     1  0.0000000  0.6508444  3
   8443   8459   8437   8451     1  180.0000771  0.4184000  2
   8443   8459   8437   8451     1  0.0000000  1.6024720  3
   8443   8442   8441   8449     1  0.0000000  0.6508444  3
   8447   8443   8442   8448     1  0.0000000  4.9162000  2
   8447   8443   8442   8448     1  0.0000000  0.6024960  3
   8448   8442   8443   8459     1  0.0000000  4.9162000  2
   8448   8442   8443   8459     1  0.0000000  0.6024960  3
   8448   8442   8441   8449     1  0.0000000  4.9162000  2
   8448   8442   8441   8449     1  0.0000000  0.6024960  3
   8449   8441   8438   8450     1  0.0000000  4.9162000  2
   8449   8441   8438   8450     1  0.0000000  0.6024960  3
   8450   8438   8437   8451     1  0.0000000  0.6508444  3
   8450   8438   8437   8459     1  0.0000000  4.9162000  2
   8450   8438   8437   8459     1  0.0000000  0.6024960  3
   8457   8451   8437   8459     1  0.0000000  4.9162000  2
   8457   8451   8437   8459     1  0.0000000  0.6024960  3
   8460   8461   8464   8465     1  180.0000771  0.8368000  1
   8460   8461   8464   8465     1  180.0000771  1.0460000  2
   8460   8461   8464   8465     1  0.0000000  0.7531200  3
   8460   8461   8464   8472     1  0.0000000  0.6508444  3
   8460   8482   8466   8465     1  180.0000771  0.4184000  2
   8460   8482   8466   8465     1  0.0000000  1.6024720  3
   8460   8482   8466   8470     1  180.0000771  5.6484000  1
   8460   8482   8466   8470     1  180.0000771  3.5564000  2
   8460   8482   8466   8470     1  0.0000000  0.4184000  3
   8461   8460   8474   8480     1  0.0000000  0.6508444  3
   8461   8460   8482   8466     1  180.0000771  0.4184000  2
   8461   8460   8482   8466     1  0.0000000  1.6024720  3
   8461   8464   8465   8466     1  180.0000771  0.8368000  1
   8461   8464   8465   8466     1  180.0000771  1.0460000  2
   8461   8464   8465   8466     1  0.0000000  0.7531200  3
   8461   8464   8465   8471     1  0.0000000  0.6508444  3
   8464   8461   8460   8474     1  180.0000771  0.8368000  1
   8464   8461   8460   8474     1  180.0000771  1.0460000  2
   8464   8461   8460   8474     1  0.0000000  0.7531200  3
   8464   8461   8460   8482     1  0.0000000  0.6508444  3
   8464   8465   8466   8470     1  0.0000000  0.6508444  3
   8464   8465   8466   8482     1  0.0000000  0.6508444  3
   8465   8464   8461   8473     1  0.0000000  0.6508444  3
   8466   8465   8464   8472     1  0.0000000  0.6508444  3
   8466   8482   8460   8474     1  180.0000771  0.4184000  2
   8466   8482   8460   8474     1  0.0000000  1.6024720  3
   8470   8466   8465   8471     1  0.0000000  4.9162000  2
   8470   8466   8465   8471     1  0.0000000  0.6024960  3
   8471   8465   8464   8472     1  0.0000000  4.9162000  2
   8471   8465   8464   8472     1  0.0000000  0.6024960  3
   8471   8465   8466   8482     1  0.0000000  4.9162000  2
   8471   8465   8466   8482     1  0.0000000  0.6024960  3
   8472   8464   8461   8473     1  0.0000000  4.9162000  2
   8472   8464   8461   8473     1  0.0000000  0.6024960  3
   8473   8461   8460   8474     1  0.0000000  0.6508444  3
   8473   8461   8460   8482     1  0.0000000  4.9162000  2
   8473   8461   8460   8482     1  0.0000000  0.6024960  3
   8480   8474   8460   8482     1  0.0000000  4.9162000  2
   8480   8474   8460   8482     1  0.0000000  0.6024960  3
   8483   8484   8487   8488     1  180.0000771  0.8368000  1
   8483   8484   8487   8488     1  180.0000771  1.0460000  2
   8483   8484   8487   8488     1  0.0000000  0.7531200  3
   8483   8484   8487   8495     1  0.0000000  0.6508444  3
   8483   8505   8489   8493     1  180.0000771  5.6484000  1
   8483   8505   8489   8493     1  180.0000771  3.5564000  2
   8483   8505   8489   8493     1  0.0000000  0.4184000  3
   8483   8505   8489   8488     1  180.0000771  0.4184000  2
   8483   8505   8489   8488     1  0.0000000  1.6024720  3
   8484   8487   8488   8489     1  180.0000771  0.8368000  1
   8484   8487   8488   8489     1  180.0000771  1.0460000  2
   8484   8487   8488   8489     1  0.0000000  0.7531200  3
   8484   8487   8488   8494     1  0.0000000  0.6508444  3
   8484   8483   8497   8503     1  0.0000000  0.6508444  3
   8484   8483   8505   8489     1  180.0000771  0.4184000  2
   8484   8483   8505   8489     1  0.0000000  1.6024720  3
   8487   8488   8489   8493     1  0.0000000  0.6508444  3
   8487   8488   8489   8505     1  0.0000000  0.6508444  3
   8487   8484   8483   8497     1  180.0000771  0.8368000  1
   8487   8484   8483   8497     1  180.0000771  1.0460000  2
   8487   8484   8483   8497     1  0.0000000  0.7531200  3
   8487   8484   8483   8505     1  0.0000000  0.6508444  3
   8488   8487   8484   8496     1  0.0000000  0.6508444  3
   8489   8505   8483   8497     1  180.0000771  0.4184000  2
   8489   8505   8483   8497     1  0.0000000  1.6024720  3
   8489   8488   8487   8495     1  0.0000000  0.6508444  3
   8493   8489   8488   8494     1  0.0000000  4.9162000  2
   8493   8489   8488   8494     1  0.0000000  0.6024960  3
   8494   8488   8489   8505     1  0.0000000  4.9162000  2
   8494   8488   8489   8505     1  0.0000000  0.6024960  3
   8494   8488   8487   8495     1  0.0000000  4.9162000  2
   8494   8488   8487   8495     1  0.0000000  0.6024960  3
   8495   8487   8484   8496     1  0.0000000  4.9162000  2
   8495   8487   8484   8496     1  0.0000000  0.6024960  3
   8496   8484   8483   8497     1  0.0000000  0.6508444  3
   8496   8484   8483   8505     1  0.0000000  4.9162000  2
   8496   8484   8483   8505     1  0.0000000  0.6024960  3
   8503   8497   8483   8505     1  0.0000000  4.9162000  2
   8503   8497   8483   8505     1  0.0000000  0.6024960  3
   8506   8507   8510   8511     1  180.0000771  0.8368000  1
   8506   8507   8510   8511     1  180.0000771  1.0460000  2
   8506   8507   8510   8511     1  0.0000000  0.7531200  3
   8506   8507   8510   8518     1  0.0000000  0.6508444  3
   8506   8528   8512   8511     1  180.0000771  0.4184000  2
   8506   8528   8512   8511     1  0.0000000  1.6024720  3
   8506   8528   8512   8516     1  180.0000771  5.6484000  1
   8506   8528   8512   8516     1  180.0000771  3.5564000  2
   8506   8528   8512   8516     1  0.0000000  0.4184000  3
   8507   8506   8520   8526     1  0.0000000  0.6508444  3
   8507   8506   8528   8512     1  180.0000771  0.4184000  2
   8507   8506   8528   8512     1  0.0000000  1.6024720  3
   8507   8510   8511   8512     1  180.0000771  0.8368000  1
   8507   8510   8511   8512     1  180.0000771  1.0460000  2
   8507   8510   8511   8512     1  0.0000000  0.7531200  3
   8507   8510   8511   8517     1  0.0000000  0.6508444  3
   8510   8507   8506   8520     1  180.0000771  0.8368000  1
   8510   8507   8506   8520     1  180.0000771  1.0460000  2
   8510   8507   8506   8520     1  0.0000000  0.7531200  3
   8510   8507   8506   8528     1  0.0000000  0.6508444  3
   8510   8511   8512   8516     1  0.0000000  0.6508444  3
   8510   8511   8512   8528     1  0.0000000  0.6508444  3
   8511   8510   8507   8519     1  0.0000000  0.6508444  3
   8512   8511   8510   8518     1  0.0000000  0.6508444  3
   8512   8528   8506   8520     1  180.0000771  0.4184000  2
   8512   8528   8506   8520     1  0.0000000  1.6024720  3
   8516   8512   8511   8517     1  0.0000000  4.9162000  2
   8516   8512   8511   8517     1  0.0000000  0.6024960  3
   8517   8511   8510   8518     1  0.0000000  4.9162000  2
   8517   8511   8510   8518     1  0.0000000  0.6024960  3
   8517   8511   8512   8528     1  0.0000000  4.9162000  2
   8517   8511   8512   8528     1  0.0000000  0.6024960  3
   8518   8510   8507   8519     1  0.0000000  4.9162000  2
   8518   8510   8507   8519     1  0.0000000  0.6024960  3
   8519   8507   8506   8520     1  0.0000000  0.6508444  3
   8519   8507   8506   8528     1  0.0000000  4.9162000  2
   8519   8507   8506   8528     1  0.0000000  0.6024960  3
   8526   8520   8506   8528     1  0.0000000  4.9162000  2
   8526   8520   8506   8528     1  0.0000000  0.6024960  3
   8529   8530   8533   8534     1  180.0000771  0.8368000  1
   8529   8530   8533   8534     1  180.0000771  1.0460000  2
   8529   8530   8533   8534     1  0.0000000  0.7531200  3
   8529   8530   8533   8541     1  0.0000000  0.6508444  3
   8529   8551   8535   8539     1  180.0000771  5.6484000  1
   8529   8551   8535   8539     1  180.0000771  3.5564000  2
   8529   8551   8535   8539     1  0.0000000  0.4184000  3
   8529   8551   8535   8534     1  180.0000771  0.4184000  2
   8529   8551   8535   8534     1  0.0000000  1.6024720  3
   8530   8533   8534   8535     1  180.0000771  0.8368000  1
   8530   8533   8534   8535     1  180.0000771  1.0460000  2
   8530   8533   8534   8535     1  0.0000000  0.7531200  3
   8530   8533   8534   8540     1  0.0000000  0.6508444  3
   8530   8529   8543   8549     1  0.0000000  0.6508444  3
   8530   8529   8551   8535     1  180.0000771  0.4184000  2
   8530   8529   8551   8535     1  0.0000000  1.6024720  3
   8533   8534   8535   8539     1  0.0000000  0.6508444  3
   8533   8534   8535   8551     1  0.0000000  0.6508444  3
   8533   8530   8529   8543     1  180.0000771  0.8368000  1
   8533   8530   8529   8543     1  180.0000771  1.0460000  2
   8533   8530   8529   8543     1  0.0000000  0.7531200  3
   8533   8530   8529   8551     1  0.0000000  0.6508444  3
   8534   8533   8530   8542     1  0.0000000  0.6508444  3
   8535   8551   8529   8543     1  180.0000771  0.4184000  2
   8535   8551   8529   8543     1  0.0000000  1.6024720  3
   8535   8534   8533   8541     1  0.0000000  0.6508444  3
   8539   8535   8534   8540     1  0.0000000  4.9162000  2
   8539   8535   8534   8540     1  0.0000000  0.6024960  3
   8540   8534   8535   8551     1  0.0000000  4.9162000  2
   8540   8534   8535   8551     1  0.0000000  0.6024960  3
   8540   8534   8533   8541     1  0.0000000  4.9162000  2
   8540   8534   8533   8541     1  0.0000000  0.6024960  3
   8541   8533   8530   8542     1  0.0000000  4.9162000  2
   8541   8533   8530   8542     1  0.0000000  0.6024960  3
   8542   8530   8529   8543     1  0.0000000  0.6508444  3
   8542   8530   8529   8551     1  0.0000000  4.9162000  2
   8542   8530   8529   8551     1  0.0000000  0.6024960  3
   8549   8543   8529   8551     1  0.0000000  4.9162000  2
   8549   8543   8529   8551     1  0.0000000  0.6024960  3
   8552   8553   8556   8557     1  180.0000771  0.8368000  1
   8552   8553   8556   8557     1  180.0000771  1.0460000  2
   8552   8553   8556   8557     1  0.0000000  0.7531200  3
   8552   8553   8556   8564     1  0.0000000  0.6508444  3
   8552   8574   8558   8557     1  180.0000771  0.4184000  2
   8552   8574   8558   8557     1  0.0000000  1.6024720  3
   8552   8574   8558   8562     1  180.0000771  5.6484000  1
   8552   8574   8558   8562     1  180.0000771  3.5564000  2
   8552   8574   8558   8562     1  0.0000000  0.4184000  3
   8553   8552   8566   8572     1  0.0000000  0.6508444  3
   8553   8552   8574   8558     1  180.0000771  0.4184000  2
   8553   8552   8574   8558     1  0.0000000  1.6024720  3
   8553   8556   8557   8558     1  180.0000771  0.8368000  1
   8553   8556   8557   8558     1  180.0000771  1.0460000  2
   8553   8556   8557   8558     1  0.0000000  0.7531200  3
   8553   8556   8557   8563     1  0.0000000  0.6508444  3
   8556   8553   8552   8566     1  180.0000771  0.8368000  1
   8556   8553   8552   8566     1  180.0000771  1.0460000  2
   8556   8553   8552   8566     1  0.0000000  0.7531200  3
   8556   8553   8552   8574     1  0.0000000  0.6508444  3
   8556   8557   8558   8562     1  0.0000000  0.6508444  3
   8556   8557   8558   8574     1  0.0000000  0.6508444  3
   8557   8556   8553   8565     1  0.0000000  0.6508444  3
   8558   8557   8556   8564     1  0.0000000  0.6508444  3
   8558   8574   8552   8566     1  180.0000771  0.4184000  2
   8558   8574   8552   8566     1  0.0000000  1.6024720  3
   8562   8558   8557   8563     1  0.0000000  4.9162000  2
   8562   8558   8557   8563     1  0.0000000  0.6024960  3
   8563   8557   8556   8564     1  0.0000000  4.9162000  2
   8563   8557   8556   8564     1  0.0000000  0.6024960  3
   8563   8557   8558   8574     1  0.0000000  4.9162000  2
   8563   8557   8558   8574     1  0.0000000  0.6024960  3
   8564   8556   8553   8565     1  0.0000000  4.9162000  2
   8564   8556   8553   8565     1  0.0000000  0.6024960  3
   8565   8553   8552   8566     1  0.0000000  0.6508444  3
   8565   8553   8552   8574     1  0.0000000  4.9162000  2
   8565   8553   8552   8574     1  0.0000000  0.6024960  3
   8572   8566   8552   8574     1  0.0000000  4.9162000  2
   8572   8566   8552   8574     1  0.0000000  0.6024960  3
   8575   8576   8579   8580     1  180.0000771  0.8368000  1
   8575   8576   8579   8580     1  180.0000771  1.0460000  2
   8575   8576   8579   8580     1  0.0000000  0.7531200  3
   8575   8576   8579   8587     1  0.0000000  0.6508444  3
   8575   8597   8581   8585     1  180.0000771  5.6484000  1
   8575   8597   8581   8585     1  180.0000771  3.5564000  2
   8575   8597   8581   8585     1  0.0000000  0.4184000  3
   8575   8597   8581   8580     1  180.0000771  0.4184000  2
   8575   8597   8581   8580     1  0.0000000  1.6024720  3
   8576   8579   8580   8581     1  180.0000771  0.8368000  1
   8576   8579   8580   8581     1  180.0000771  1.0460000  2
   8576   8579   8580   8581     1  0.0000000  0.7531200  3
   8576   8579   8580   8586     1  0.0000000  0.6508444  3
   8576   8575   8589   8595     1  0.0000000  0.6508444  3
   8576   8575   8597   8581     1  180.0000771  0.4184000  2
   8576   8575   8597   8581     1  0.0000000  1.6024720  3
   8579   8580   8581   8585     1  0.0000000  0.6508444  3
   8579   8580   8581   8597     1  0.0000000  0.6508444  3
   8579   8576   8575   8589     1  180.0000771  0.8368000  1
   8579   8576   8575   8589     1  180.0000771  1.0460000  2
   8579   8576   8575   8589     1  0.0000000  0.7531200  3
   8579   8576   8575   8597     1  0.0000000  0.6508444  3
   8580   8579   8576   8588     1  0.0000000  0.6508444  3
   8581   8597   8575   8589     1  180.0000771  0.4184000  2
   8581   8597   8575   8589     1  0.0000000  1.6024720  3
   8581   8580   8579   8587     1  0.0000000  0.6508444  3
   8585   8581   8580   8586     1  0.0000000  4.9162000  2
   8585   8581   8580   8586     1  0.0000000  0.6024960  3
   8586   8580   8581   8597     1  0.0000000  4.9162000  2
   8586   8580   8581   8597     1  0.0000000  0.6024960  3
   8586   8580   8579   8587     1  0.0000000  4.9162000  2
   8586   8580   8579   8587     1  0.0000000  0.6024960  3
   8587   8579   8576   8588     1  0.0000000  4.9162000  2
   8587   8579   8576   8588     1  0.0000000  0.6024960  3
   8588   8576   8575   8589     1  0.0000000  0.6508444  3
   8588   8576   8575   8597     1  0.0000000  4.9162000  2
   8588   8576   8575   8597     1  0.0000000  0.6024960  3
   8595   8589   8575   8597     1  0.0000000  4.9162000  2
   8595   8589   8575   8597     1  0.0000000  0.6024960  3
   8598   8599   8602   8603     1  180.0000771  0.8368000  1
   8598   8599   8602   8603     1  180.0000771  1.0460000  2
   8598   8599   8602   8603     1  0.0000000  0.7531200  3
   8598   8599   8602   8610     1  0.0000000  0.6508444  3
   8598   8620   8604   8603     1  180.0000771  0.4184000  2
   8598   8620   8604   8603     1  0.0000000  1.6024720  3
   8598   8620   8604   8608     1  180.0000771  5.6484000  1
   8598   8620   8604   8608     1  180.0000771  3.5564000  2
   8598   8620   8604   8608     1  0.0000000  0.4184000  3
   8599   8598   8612   8618     1  0.0000000  0.6508444  3
   8599   8598   8620   8604     1  180.0000771  0.4184000  2
   8599   8598   8620   8604     1  0.0000000  1.6024720  3
   8599   8602   8603   8604     1  180.0000771  0.8368000  1
   8599   8602   8603   8604     1  180.0000771  1.0460000  2
   8599   8602   8603   8604     1  0.0000000  0.7531200  3
   8599   8602   8603   8609     1  0.0000000  0.6508444  3
   8602   8599   8598   8612     1  180.0000771  0.8368000  1
   8602   8599   8598   8612     1  180.0000771  1.0460000  2
   8602   8599   8598   8612     1  0.0000000  0.7531200  3
   8602   8599   8598   8620     1  0.0000000  0.6508444  3
   8602   8603   8604   8608     1  0.0000000  0.6508444  3
   8602   8603   8604   8620     1  0.0000000  0.6508444  3
   8603   8602   8599   8611     1  0.0000000  0.6508444  3
   8604   8603   8602   8610     1  0.0000000  0.6508444  3
   8604   8620   8598   8612     1  180.0000771  0.4184000  2
   8604   8620   8598   8612     1  0.0000000  1.6024720  3
   8608   8604   8603   8609     1  0.0000000  4.9162000  2
   8608   8604   8603   8609     1  0.0000000  0.6024960  3
   8609   8603   8602   8610     1  0.0000000  4.9162000  2
   8609   8603   8602   8610     1  0.0000000  0.6024960  3
   8609   8603   8604   8620     1  0.0000000  4.9162000  2
   8609   8603   8604   8620     1  0.0000000  0.6024960  3
   8610   8602   8599   8611     1  0.0000000  4.9162000  2
   8610   8602   8599   8611     1  0.0000000  0.6024960  3
   8611   8599   8598   8612     1  0.0000000  0.6508444  3
   8611   8599   8598   8620     1  0.0000000  4.9162000  2
   8611   8599   8598   8620     1  0.0000000  0.6024960  3
   8618   8612   8598   8620     1  0.0000000  4.9162000  2
   8618   8612   8598   8620     1  0.0000000  0.6024960  3
   8621   8622   8625   8626     1  180.0000771  0.8368000  1
   8621   8622   8625   8626     1  180.0000771  1.0460000  2
   8621   8622   8625   8626     1  0.0000000  0.7531200  3
   8621   8622   8625   8633     1  0.0000000  0.6508444  3
   8621   8643   8627   8631     1  180.0000771  5.6484000  1
   8621   8643   8627   8631     1  180.0000771  3.5564000  2
   8621   8643   8627   8631     1  0.0000000  0.4184000  3
   8621   8643   8627   8626     1  180.0000771  0.4184000  2
   8621   8643   8627   8626     1  0.0000000  1.6024720  3
   8622   8625   8626   8627     1  180.0000771  0.8368000  1
   8622   8625   8626   8627     1  180.0000771  1.0460000  2
   8622   8625   8626   8627     1  0.0000000  0.7531200  3
   8622   8625   8626   8632     1  0.0000000  0.6508444  3
   8622   8621   8635   8641     1  0.0000000  0.6508444  3
   8622   8621   8643   8627     1  180.0000771  0.4184000  2
   8622   8621   8643   8627     1  0.0000000  1.6024720  3
   8625   8626   8627   8631     1  0.0000000  0.6508444  3
   8625   8626   8627   8643     1  0.0000000  0.6508444  3
   8625   8622   8621   8635     1  180.0000771  0.8368000  1
   8625   8622   8621   8635     1  180.0000771  1.0460000  2
   8625   8622   8621   8635     1  0.0000000  0.7531200  3
   8625   8622   8621   8643     1  0.0000000  0.6508444  3
   8626   8625   8622   8634     1  0.0000000  0.6508444  3
   8627   8643   8621   8635     1  180.0000771  0.4184000  2
   8627   8643   8621   8635     1  0.0000000  1.6024720  3
   8627   8626   8625   8633     1  0.0000000  0.6508444  3
   8631   8627   8626   8632     1  0.0000000  4.9162000  2
   8631   8627   8626   8632     1  0.0000000  0.6024960  3
   8632   8626   8627   8643     1  0.0000000  4.9162000  2
   8632   8626   8627   8643     1  0.0000000  0.6024960  3
   8632   8626   8625   8633     1  0.0000000  4.9162000  2
   8632   8626   8625   8633     1  0.0000000  0.6024960  3
   8633   8625   8622   8634     1  0.0000000  4.9162000  2
   8633   8625   8622   8634     1  0.0000000  0.6024960  3
   8634   8622   8621   8635     1  0.0000000  0.6508444  3
   8634   8622   8621   8643     1  0.0000000  4.9162000  2
   8634   8622   8621   8643     1  0.0000000  0.6024960  3
   8641   8635   8621   8643     1  0.0000000  4.9162000  2
   8641   8635   8621   8643     1  0.0000000  0.6024960  3
   8644   8645   8648   8649     1  180.0000771  0.8368000  1
   8644   8645   8648   8649     1  180.0000771  1.0460000  2
   8644   8645   8648   8649     1  0.0000000  0.7531200  3
   8644   8645   8648   8656     1  0.0000000  0.6508444  3
   8644   8666   8650   8649     1  180.0000771  0.4184000  2
   8644   8666   8650   8649     1  0.0000000  1.6024720  3
   8644   8666   8650   8654     1  180.0000771  5.6484000  1
   8644   8666   8650   8654     1  180.0000771  3.5564000  2
   8644   8666   8650   8654     1  0.0000000  0.4184000  3
   8645   8644   8658   8664     1  0.0000000  0.6508444  3
   8645   8644   8666   8650     1  180.0000771  0.4184000  2
   8645   8644   8666   8650     1  0.0000000  1.6024720  3
   8645   8648   8649   8650     1  180.0000771  0.8368000  1
   8645   8648   8649   8650     1  180.0000771  1.0460000  2
   8645   8648   8649   8650     1  0.0000000  0.7531200  3
   8645   8648   8649   8655     1  0.0000000  0.6508444  3
   8648   8645   8644   8658     1  180.0000771  0.8368000  1
   8648   8645   8644   8658     1  180.0000771  1.0460000  2
   8648   8645   8644   8658     1  0.0000000  0.7531200  3
   8648   8645   8644   8666     1  0.0000000  0.6508444  3
   8648   8649   8650   8654     1  0.0000000  0.6508444  3
   8648   8649   8650   8666     1  0.0000000  0.6508444  3
   8649   8648   8645   8657     1  0.0000000  0.6508444  3
   8650   8649   8648   8656     1  0.0000000  0.6508444  3
   8650   8666   8644   8658     1  180.0000771  0.4184000  2
   8650   8666   8644   8658     1  0.0000000  1.6024720  3
   8654   8650   8649   8655     1  0.0000000  4.9162000  2
   8654   8650   8649   8655     1  0.0000000  0.6024960  3
   8655   8649   8648   8656     1  0.0000000  4.9162000  2
   8655   8649   8648   8656     1  0.0000000  0.6024960  3
   8655   8649   8650   8666     1  0.0000000  4.9162000  2
   8655   8649   8650   8666     1  0.0000000  0.6024960  3
   8656   8648   8645   8657     1  0.0000000  4.9162000  2
   8656   8648   8645   8657     1  0.0000000  0.6024960  3
   8657   8645   8644   8658     1  0.0000000  0.6508444  3
   8657   8645   8644   8666     1  0.0000000  4.9162000  2
   8657   8645   8644   8666     1  0.0000000  0.6024960  3
   8664   8658   8644   8666     1  0.0000000  4.9162000  2
   8664   8658   8644   8666     1  0.0000000  0.6024960  3
   8667   8668   8671   8672     1  180.0000771  0.8368000  1
   8667   8668   8671   8672     1  180.0000771  1.0460000  2
   8667   8668   8671   8672     1  0.0000000  0.7531200  3
   8667   8668   8671   8679     1  0.0000000  0.6508444  3
   8667   8689   8673   8677     1  180.0000771  5.6484000  1
   8667   8689   8673   8677     1  180.0000771  3.5564000  2
   8667   8689   8673   8677     1  0.0000000  0.4184000  3
   8667   8689   8673   8672     1  180.0000771  0.4184000  2
   8667   8689   8673   8672     1  0.0000000  1.6024720  3
   8668   8671   8672   8673     1  180.0000771  0.8368000  1
   8668   8671   8672   8673     1  180.0000771  1.0460000  2
   8668   8671   8672   8673     1  0.0000000  0.7531200  3
   8668   8671   8672   8678     1  0.0000000  0.6508444  3
   8668   8667   8681   8687     1  0.0000000  0.6508444  3
   8668   8667   8689   8673     1  180.0000771  0.4184000  2
   8668   8667   8689   8673     1  0.0000000  1.6024720  3
   8671   8672   8673   8677     1  0.0000000  0.6508444  3
   8671   8672   8673   8689     1  0.0000000  0.6508444  3
   8671   8668   8667   8681     1  180.0000771  0.8368000  1
   8671   8668   8667   8681     1  180.0000771  1.0460000  2
   8671   8668   8667   8681     1  0.0000000  0.7531200  3
   8671   8668   8667   8689     1  0.0000000  0.6508444  3
   8672   8671   8668   8680     1  0.0000000  0.6508444  3
   8673   8689   8667   8681     1  180.0000771  0.4184000  2
   8673   8689   8667   8681     1  0.0000000  1.6024720  3
   8673   8672   8671   8679     1  0.0000000  0.6508444  3
   8677   8673   8672   8678     1  0.0000000  4.9162000  2
   8677   8673   8672   8678     1  0.0000000  0.6024960  3
   8678   8672   8673   8689     1  0.0000000  4.9162000  2
   8678   8672   8673   8689     1  0.0000000  0.6024960  3
   8678   8672   8671   8679     1  0.0000000  4.9162000  2
   8678   8672   8671   8679     1  0.0000000  0.6024960  3
   8679   8671   8668   8680     1  0.0000000  4.9162000  2
   8679   8671   8668   8680     1  0.0000000  0.6024960  3
   8680   8668   8667   8681     1  0.0000000  0.6508444  3
   8680   8668   8667   8689     1  0.0000000  4.9162000  2
   8680   8668   8667   8689     1  0.0000000  0.6024960  3
   8687   8681   8667   8689     1  0.0000000  4.9162000  2
   8687   8681   8667   8689     1  0.0000000  0.6024960  3
   8690   8691   8694   8695     1  180.0000771  0.8368000  1
   8690   8691   8694   8695     1  180.0000771  1.0460000  2
   8690   8691   8694   8695     1  0.0000000  0.7531200  3
   8690   8691   8694   8702     1  0.0000000  0.6508444  3
   8690   8712   8696   8695     1  180.0000771  0.4184000  2
   8690   8712   8696   8695     1  0.0000000  1.6024720  3
   8690   8712   8696   8700     1  180.0000771  5.6484000  1
   8690   8712   8696   8700     1  180.0000771  3.5564000  2
   8690   8712   8696   8700     1  0.0000000  0.4184000  3
   8691   8690   8704   8710     1  0.0000000  0.6508444  3
   8691   8690   8712   8696     1  180.0000771  0.4184000  2
   8691   8690   8712   8696     1  0.0000000  1.6024720  3
   8691   8694   8695   8696     1  180.0000771  0.8368000  1
   8691   8694   8695   8696     1  180.0000771  1.0460000  2
   8691   8694   8695   8696     1  0.0000000  0.7531200  3
   8691   8694   8695   8701     1  0.0000000  0.6508444  3
   8694   8691   8690   8704     1  180.0000771  0.8368000  1
   8694   8691   8690   8704     1  180.0000771  1.0460000  2
   8694   8691   8690   8704     1  0.0000000  0.7531200  3
   8694   8691   8690   8712     1  0.0000000  0.6508444  3
   8694   8695   8696   8700     1  0.0000000  0.6508444  3
   8694   8695   8696   8712     1  0.0000000  0.6508444  3
   8695   8694   8691   8703     1  0.0000000  0.6508444  3
   8696   8695   8694   8702     1  0.0000000  0.6508444  3
   8696   8712   8690   8704     1  180.0000771  0.4184000  2
   8696   8712   8690   8704     1  0.0000000  1.6024720  3
   8700   8696   8695   8701     1  0.0000000  4.9162000  2
   8700   8696   8695   8701     1  0.0000000  0.6024960  3
   8701   8695   8694   8702     1  0.0000000  4.9162000  2
   8701   8695   8694   8702     1  0.0000000  0.6024960  3
   8701   8695   8696   8712     1  0.0000000  4.9162000  2
   8701   8695   8696   8712     1  0.0000000  0.6024960  3
   8702   8694   8691   8703     1  0.0000000  4.9162000  2
   8702   8694   8691   8703     1  0.0000000  0.6024960  3
   8703   8691   8690   8704     1  0.0000000  0.6508444  3
   8703   8691   8690   8712     1  0.0000000  4.9162000  2
   8703   8691   8690   8712     1  0.0000000  0.6024960  3
   8710   8704   8690   8712     1  0.0000000  4.9162000  2
   8710   8704   8690   8712     1  0.0000000  0.6024960  3
   8713   8714   8717   8718     1  180.0000771  0.8368000  1
   8713   8714   8717   8718     1  180.0000771  1.0460000  2
   8713   8714   8717   8718     1  0.0000000  0.7531200  3
   8713   8714   8717   8725     1  0.0000000  0.6508444  3
   8713   8735   8719   8723     1  180.0000771  5.6484000  1
   8713   8735   8719   8723     1  180.0000771  3.5564000  2
   8713   8735   8719   8723     1  0.0000000  0.4184000  3
   8713   8735   8719   8718     1  180.0000771  0.4184000  2
   8713   8735   8719   8718     1  0.0000000  1.6024720  3
   8714   8717   8718   8719     1  180.0000771  0.8368000  1
   8714   8717   8718   8719     1  180.0000771  1.0460000  2
   8714   8717   8718   8719     1  0.0000000  0.7531200  3
   8714   8717   8718   8724     1  0.0000000  0.6508444  3
   8714   8713   8727   8733     1  0.0000000  0.6508444  3
   8714   8713   8735   8719     1  180.0000771  0.4184000  2
   8714   8713   8735   8719     1  0.0000000  1.6024720  3
   8717   8718   8719   8723     1  0.0000000  0.6508444  3
   8717   8718   8719   8735     1  0.0000000  0.6508444  3
   8717   8714   8713   8727     1  180.0000771  0.8368000  1
   8717   8714   8713   8727     1  180.0000771  1.0460000  2
   8717   8714   8713   8727     1  0.0000000  0.7531200  3
   8717   8714   8713   8735     1  0.0000000  0.6508444  3
   8718   8717   8714   8726     1  0.0000000  0.6508444  3
   8719   8735   8713   8727     1  180.0000771  0.4184000  2
   8719   8735   8713   8727     1  0.0000000  1.6024720  3
   8719   8718   8717   8725     1  0.0000000  0.6508444  3
   8723   8719   8718   8724     1  0.0000000  4.9162000  2
   8723   8719   8718   8724     1  0.0000000  0.6024960  3
   8724   8718   8719   8735     1  0.0000000  4.9162000  2
   8724   8718   8719   8735     1  0.0000000  0.6024960  3
   8724   8718   8717   8725     1  0.0000000  4.9162000  2
   8724   8718   8717   8725     1  0.0000000  0.6024960  3
   8725   8717   8714   8726     1  0.0000000  4.9162000  2
   8725   8717   8714   8726     1  0.0000000  0.6024960  3
   8726   8714   8713   8727     1  0.0000000  0.6508444  3
   8726   8714   8713   8735     1  0.0000000  4.9162000  2
   8726   8714   8713   8735     1  0.0000000  0.6024960  3
   8733   8727   8713   8735     1  0.0000000  4.9162000  2
   8733   8727   8713   8735     1  0.0000000  0.6024960  3
   8736   8737   8740   8741     1  180.0000771  0.8368000  1
   8736   8737   8740   8741     1  180.0000771  1.0460000  2
   8736   8737   8740   8741     1  0.0000000  0.7531200  3
   8736   8737   8740   8748     1  0.0000000  0.6508444  3
   8736   8758   8742   8741     1  180.0000771  0.4184000  2
   8736   8758   8742   8741     1  0.0000000  1.6024720  3
   8736   8758   8742   8746     1  180.0000771  5.6484000  1
   8736   8758   8742   8746     1  180.0000771  3.5564000  2
   8736   8758   8742   8746     1  0.0000000  0.4184000  3
   8737   8736   8750   8756     1  0.0000000  0.6508444  3
   8737   8736   8758   8742     1  180.0000771  0.4184000  2
   8737   8736   8758   8742     1  0.0000000  1.6024720  3
   8737   8740   8741   8742     1  180.0000771  0.8368000  1
   8737   8740   8741   8742     1  180.0000771  1.0460000  2
   8737   8740   8741   8742     1  0.0000000  0.7531200  3
   8737   8740   8741   8747     1  0.0000000  0.6508444  3
   8740   8737   8736   8750     1  180.0000771  0.8368000  1
   8740   8737   8736   8750     1  180.0000771  1.0460000  2
   8740   8737   8736   8750     1  0.0000000  0.7531200  3
   8740   8737   8736   8758     1  0.0000000  0.6508444  3
   8740   8741   8742   8746     1  0.0000000  0.6508444  3
   8740   8741   8742   8758     1  0.0000000  0.6508444  3
   8741   8740   8737   8749     1  0.0000000  0.6508444  3
   8742   8741   8740   8748     1  0.0000000  0.6508444  3
   8742   8758   8736   8750     1  180.0000771  0.4184000  2
   8742   8758   8736   8750     1  0.0000000  1.6024720  3
   8746   8742   8741   8747     1  0.0000000  4.9162000  2
   8746   8742   8741   8747     1  0.0000000  0.6024960  3
   8747   8741   8740   8748     1  0.0000000  4.9162000  2
   8747   8741   8740   8748     1  0.0000000  0.6024960  3
   8747   8741   8742   8758     1  0.0000000  4.9162000  2
   8747   8741   8742   8758     1  0.0000000  0.6024960  3
   8748   8740   8737   8749     1  0.0000000  4.9162000  2
   8748   8740   8737   8749     1  0.0000000  0.6024960  3
   8749   8737   8736   8750     1  0.0000000  0.6508444  3
   8749   8737   8736   8758     1  0.0000000  4.9162000  2
   8749   8737   8736   8758     1  0.0000000  0.6024960  3
   8756   8750   8736   8758     1  0.0000000  4.9162000  2
   8756   8750   8736   8758     1  0.0000000  0.6024960  3
   8759   8760   8763   8764     1  180.0000771  0.8368000  1
   8759   8760   8763   8764     1  180.0000771  1.0460000  2
   8759   8760   8763   8764     1  0.0000000  0.7531200  3
   8759   8760   8763   8771     1  0.0000000  0.6508444  3
   8759   8781   8765   8769     1  180.0000771  5.6484000  1
   8759   8781   8765   8769     1  180.0000771  3.5564000  2
   8759   8781   8765   8769     1  0.0000000  0.4184000  3
   8759   8781   8765   8764     1  180.0000771  0.4184000  2
   8759   8781   8765   8764     1  0.0000000  1.6024720  3
   8760   8763   8764   8765     1  180.0000771  0.8368000  1
   8760   8763   8764   8765     1  180.0000771  1.0460000  2
   8760   8763   8764   8765     1  0.0000000  0.7531200  3
   8760   8763   8764   8770     1  0.0000000  0.6508444  3
   8760   8759   8773   8779     1  0.0000000  0.6508444  3
   8760   8759   8781   8765     1  180.0000771  0.4184000  2
   8760   8759   8781   8765     1  0.0000000  1.6024720  3
   8763   8764   8765   8769     1  0.0000000  0.6508444  3
   8763   8764   8765   8781     1  0.0000000  0.6508444  3
   8763   8760   8759   8773     1  180.0000771  0.8368000  1
   8763   8760   8759   8773     1  180.0000771  1.0460000  2
   8763   8760   8759   8773     1  0.0000000  0.7531200  3
   8763   8760   8759   8781     1  0.0000000  0.6508444  3
   8764   8763   8760   8772     1  0.0000000  0.6508444  3
   8765   8781   8759   8773     1  180.0000771  0.4184000  2
   8765   8781   8759   8773     1  0.0000000  1.6024720  3
   8765   8764   8763   8771     1  0.0000000  0.6508444  3
   8769   8765   8764   8770     1  0.0000000  4.9162000  2
   8769   8765   8764   8770     1  0.0000000  0.6024960  3
   8770   8764   8765   8781     1  0.0000000  4.9162000  2
   8770   8764   8765   8781     1  0.0000000  0.6024960  3
   8770   8764   8763   8771     1  0.0000000  4.9162000  2
   8770   8764   8763   8771     1  0.0000000  0.6024960  3
   8771   8763   8760   8772     1  0.0000000  4.9162000  2
   8771   8763   8760   8772     1  0.0000000  0.6024960  3
   8772   8760   8759   8773     1  0.0000000  0.6508444  3
   8772   8760   8759   8781     1  0.0000000  4.9162000  2
   8772   8760   8759   8781     1  0.0000000  0.6024960  3
   8779   8773   8759   8781     1  0.0000000  4.9162000  2
   8779   8773   8759   8781     1  0.0000000  0.6024960  3
   8782   8783   8786   8787     1  180.0000771  0.8368000  1
   8782   8783   8786   8787     1  180.0000771  1.0460000  2
   8782   8783   8786   8787     1  0.0000000  0.7531200  3
   8782   8783   8786   8794     1  0.0000000  0.6508444  3
   8782   8804   8788   8787     1  180.0000771  0.4184000  2
   8782   8804   8788   8787     1  0.0000000  1.6024720  3
   8782   8804   8788   8792     1  180.0000771  5.6484000  1
   8782   8804   8788   8792     1  180.0000771  3.5564000  2
   8782   8804   8788   8792     1  0.0000000  0.4184000  3
   8783   8782   8796   8802     1  0.0000000  0.6508444  3
   8783   8782   8804   8788     1  180.0000771  0.4184000  2
   8783   8782   8804   8788     1  0.0000000  1.6024720  3
   8783   8786   8787   8788     1  180.0000771  0.8368000  1
   8783   8786   8787   8788     1  180.0000771  1.0460000  2
   8783   8786   8787   8788     1  0.0000000  0.7531200  3
   8783   8786   8787   8793     1  0.0000000  0.6508444  3
   8786   8783   8782   8796     1  180.0000771  0.8368000  1
   8786   8783   8782   8796     1  180.0000771  1.0460000  2
   8786   8783   8782   8796     1  0.0000000  0.7531200  3
   8786   8783   8782   8804     1  0.0000000  0.6508444  3
   8786   8787   8788   8792     1  0.0000000  0.6508444  3
   8786   8787   8788   8804     1  0.0000000  0.6508444  3
   8787   8786   8783   8795     1  0.0000000  0.6508444  3
   8788   8787   8786   8794     1  0.0000000  0.6508444  3
   8788   8804   8782   8796     1  180.0000771  0.4184000  2
   8788   8804   8782   8796     1  0.0000000  1.6024720  3
   8792   8788   8787   8793     1  0.0000000  4.9162000  2
   8792   8788   8787   8793     1  0.0000000  0.6024960  3
   8793   8787   8786   8794     1  0.0000000  4.9162000  2
   8793   8787   8786   8794     1  0.0000000  0.6024960  3
   8793   8787   8788   8804     1  0.0000000  4.9162000  2
   8793   8787   8788   8804     1  0.0000000  0.6024960  3
   8794   8786   8783   8795     1  0.0000000  4.9162000  2
   8794   8786   8783   8795     1  0.0000000  0.6024960  3
   8795   8783   8782   8796     1  0.0000000  0.6508444  3
   8795   8783   8782   8804     1  0.0000000  4.9162000  2
   8795   8783   8782   8804     1  0.0000000  0.6024960  3
   8802   8796   8782   8804     1  0.0000000  4.9162000  2
   8802   8796   8782   8804     1  0.0000000  0.6024960  3
   8805   8806   8809   8810     1  180.0000771  0.8368000  1
   8805   8806   8809   8810     1  180.0000771  1.0460000  2
   8805   8806   8809   8810     1  0.0000000  0.7531200  3
   8805   8806   8809   8817     1  0.0000000  0.6508444  3
   8805   8827   8811   8815     1  180.0000771  5.6484000  1
   8805   8827   8811   8815     1  180.0000771  3.5564000  2
   8805   8827   8811   8815     1  0.0000000  0.4184000  3
   8805   8827   8811   8810     1  180.0000771  0.4184000  2
   8805   8827   8811   8810     1  0.0000000  1.6024720  3
   8806   8809   8810   8811     1  180.0000771  0.8368000  1
   8806   8809   8810   8811     1  180.0000771  1.0460000  2
   8806   8809   8810   8811     1  0.0000000  0.7531200  3
   8806   8809   8810   8816     1  0.0000000  0.6508444  3
   8806   8805   8819   8825     1  0.0000000  0.6508444  3
   8806   8805   8827   8811     1  180.0000771  0.4184000  2
   8806   8805   8827   8811     1  0.0000000  1.6024720  3
   8809   8810   8811   8815     1  0.0000000  0.6508444  3
   8809   8810   8811   8827     1  0.0000000  0.6508444  3
   8809   8806   8805   8819     1  180.0000771  0.8368000  1
   8809   8806   8805   8819     1  180.0000771  1.0460000  2
   8809   8806   8805   8819     1  0.0000000  0.7531200  3
   8809   8806   8805   8827     1  0.0000000  0.6508444  3
   8810   8809   8806   8818     1  0.0000000  0.6508444  3
   8811   8827   8805   8819     1  180.0000771  0.4184000  2
   8811   8827   8805   8819     1  0.0000000  1.6024720  3
   8811   8810   8809   8817     1  0.0000000  0.6508444  3
   8815   8811   8810   8816     1  0.0000000  4.9162000  2
   8815   8811   8810   8816     1  0.0000000  0.6024960  3
   8816   8810   8811   8827     1  0.0000000  4.9162000  2
   8816   8810   8811   8827     1  0.0000000  0.6024960  3
   8816   8810   8809   8817     1  0.0000000  4.9162000  2
   8816   8810   8809   8817     1  0.0000000  0.6024960  3
   8817   8809   8806   8818     1  0.0000000  4.9162000  2
   8817   8809   8806   8818     1  0.0000000  0.6024960  3
   8818   8806   8805   8819     1  0.0000000  0.6508444  3
   8818   8806   8805   8827     1  0.0000000  4.9162000  2
   8818   8806   8805   8827     1  0.0000000  0.6024960  3
   8825   8819   8805   8827     1  0.0000000  4.9162000  2
   8825   8819   8805   8827     1  0.0000000  0.6024960  3
   8828   8829   8832   8833     1  180.0000771  0.8368000  1
   8828   8829   8832   8833     1  180.0000771  1.0460000  2
   8828   8829   8832   8833     1  0.0000000  0.7531200  3
   8828   8829   8832   8840     1  0.0000000  0.6508444  3
   8828   8850   8834   8833     1  180.0000771  0.4184000  2
   8828   8850   8834   8833     1  0.0000000  1.6024720  3
   8828   8850   8834   8838     1  180.0000771  5.6484000  1
   8828   8850   8834   8838     1  180.0000771  3.5564000  2
   8828   8850   8834   8838     1  0.0000000  0.4184000  3
   8829   8828   8842   8848     1  0.0000000  0.6508444  3
   8829   8828   8850   8834     1  180.0000771  0.4184000  2
   8829   8828   8850   8834     1  0.0000000  1.6024720  3
   8829   8832   8833   8834     1  180.0000771  0.8368000  1
   8829   8832   8833   8834     1  180.0000771  1.0460000  2
   8829   8832   8833   8834     1  0.0000000  0.7531200  3
   8829   8832   8833   8839     1  0.0000000  0.6508444  3
   8832   8829   8828   8842     1  180.0000771  0.8368000  1
   8832   8829   8828   8842     1  180.0000771  1.0460000  2
   8832   8829   8828   8842     1  0.0000000  0.7531200  3
   8832   8829   8828   8850     1  0.0000000  0.6508444  3
   8832   8833   8834   8838     1  0.0000000  0.6508444  3
   8832   8833   8834   8850     1  0.0000000  0.6508444  3
   8833   8832   8829   8841     1  0.0000000  0.6508444  3
   8834   8833   8832   8840     1  0.0000000  0.6508444  3
   8834   8850   8828   8842     1  180.0000771  0.4184000  2
   8834   8850   8828   8842     1  0.0000000  1.6024720  3
   8838   8834   8833   8839     1  0.0000000  4.9162000  2
   8838   8834   8833   8839     1  0.0000000  0.6024960  3
   8839   8833   8832   8840     1  0.0000000  4.9162000  2
   8839   8833   8832   8840     1  0.0000000  0.6024960  3
   8839   8833   8834   8850     1  0.0000000  4.9162000  2
   8839   8833   8834   8850     1  0.0000000  0.6024960  3
   8840   8832   8829   8841     1  0.0000000  4.9162000  2
   8840   8832   8829   8841     1  0.0000000  0.6024960  3
   8841   8829   8828   8842     1  0.0000000  0.6508444  3
   8841   8829   8828   8850     1  0.0000000  4.9162000  2
   8841   8829   8828   8850     1  0.0000000  0.6024960  3
   8848   8842   8828   8850     1  0.0000000  4.9162000  2
   8848   8842   8828   8850     1  0.0000000  0.6024960  3
   8851   8852   8855   8856     1  180.0000771  0.8368000  1
   8851   8852   8855   8856     1  180.0000771  1.0460000  2
   8851   8852   8855   8856     1  0.0000000  0.7531200  3
   8851   8852   8855   8863     1  0.0000000  0.6508444  3
   8851   8873   8857   8861     1  180.0000771  5.6484000  1
   8851   8873   8857   8861     1  180.0000771  3.5564000  2
   8851   8873   8857   8861     1  0.0000000  0.4184000  3
   8851   8873   8857   8856     1  180.0000771  0.4184000  2
   8851   8873   8857   8856     1  0.0000000  1.6024720  3
   8852   8855   8856   8857     1  180.0000771  0.8368000  1
   8852   8855   8856   8857     1  180.0000771  1.0460000  2
   8852   8855   8856   8857     1  0.0000000  0.7531200  3
   8852   8855   8856   8862     1  0.0000000  0.6508444  3
   8852   8851   8865   8871     1  0.0000000  0.6508444  3
   8852   8851   8873   8857     1  180.0000771  0.4184000  2
   8852   8851   8873   8857     1  0.0000000  1.6024720  3
   8855   8856   8857   8861     1  0.0000000  0.6508444  3
   8855   8856   8857   8873     1  0.0000000  0.6508444  3
   8855   8852   8851   8865     1  180.0000771  0.8368000  1
   8855   8852   8851   8865     1  180.0000771  1.0460000  2
   8855   8852   8851   8865     1  0.0000000  0.7531200  3
   8855   8852   8851   8873     1  0.0000000  0.6508444  3
   8856   8855   8852   8864     1  0.0000000  0.6508444  3
   8857   8873   8851   8865     1  180.0000771  0.4184000  2
   8857   8873   8851   8865     1  0.0000000  1.6024720  3
   8857   8856   8855   8863     1  0.0000000  0.6508444  3
   8861   8857   8856   8862     1  0.0000000  4.9162000  2
   8861   8857   8856   8862     1  0.0000000  0.6024960  3
   8862   8856   8857   8873     1  0.0000000  4.9162000  2
   8862   8856   8857   8873     1  0.0000000  0.6024960  3
   8862   8856   8855   8863     1  0.0000000  4.9162000  2
   8862   8856   8855   8863     1  0.0000000  0.6024960  3
   8863   8855   8852   8864     1  0.0000000  4.9162000  2
   8863   8855   8852   8864     1  0.0000000  0.6024960  3
   8864   8852   8851   8865     1  0.0000000  0.6508444  3
   8864   8852   8851   8873     1  0.0000000  4.9162000  2
   8864   8852   8851   8873     1  0.0000000  0.6024960  3
   8871   8865   8851   8873     1  0.0000000  4.9162000  2
   8871   8865   8851   8873     1  0.0000000  0.6024960  3
   8874   8875   8878   8879     1  180.0000771  0.8368000  1
   8874   8875   8878   8879     1  180.0000771  1.0460000  2
   8874   8875   8878   8879     1  0.0000000  0.7531200  3
   8874   8875   8878   8886     1  0.0000000  0.6508444  3
   8874   8896   8880   8879     1  180.0000771  0.4184000  2
   8874   8896   8880   8879     1  0.0000000  1.6024720  3
   8874   8896   8880   8884     1  180.0000771  5.6484000  1
   8874   8896   8880   8884     1  180.0000771  3.5564000  2
   8874   8896   8880   8884     1  0.0000000  0.4184000  3
   8875   8874   8888   8894     1  0.0000000  0.6508444  3
   8875   8874   8896   8880     1  180.0000771  0.4184000  2
   8875   8874   8896   8880     1  0.0000000  1.6024720  3
   8875   8878   8879   8880     1  180.0000771  0.8368000  1
   8875   8878   8879   8880     1  180.0000771  1.0460000  2
   8875   8878   8879   8880     1  0.0000000  0.7531200  3
   8875   8878   8879   8885     1  0.0000000  0.6508444  3
   8878   8875   8874   8888     1  180.0000771  0.8368000  1
   8878   8875   8874   8888     1  180.0000771  1.0460000  2
   8878   8875   8874   8888     1  0.0000000  0.7531200  3
   8878   8875   8874   8896     1  0.0000000  0.6508444  3
   8878   8879   8880   8884     1  0.0000000  0.6508444  3
   8878   8879   8880   8896     1  0.0000000  0.6508444  3
   8879   8878   8875   8887     1  0.0000000  0.6508444  3
   8880   8879   8878   8886     1  0.0000000  0.6508444  3
   8880   8896   8874   8888     1  180.0000771  0.4184000  2
   8880   8896   8874   8888     1  0.0000000  1.6024720  3
   8884   8880   8879   8885     1  0.0000000  4.9162000  2
   8884   8880   8879   8885     1  0.0000000  0.6024960  3
   8885   8879   8878   8886     1  0.0000000  4.9162000  2
   8885   8879   8878   8886     1  0.0000000  0.6024960  3
   8885   8879   8880   8896     1  0.0000000  4.9162000  2
   8885   8879   8880   8896     1  0.0000000  0.6024960  3
   8886   8878   8875   8887     1  0.0000000  4.9162000  2
   8886   8878   8875   8887     1  0.0000000  0.6024960  3
   8887   8875   8874   8888     1  0.0000000  0.6508444  3
   8887   8875   8874   8896     1  0.0000000  4.9162000  2
   8887   8875   8874   8896     1  0.0000000  0.6024960  3
   8894   8888   8874   8896     1  0.0000000  4.9162000  2
   8894   8888   8874   8896     1  0.0000000  0.6024960  3
   8897   8898   8901   8902     1  180.0000771  0.8368000  1
   8897   8898   8901   8902     1  180.0000771  1.0460000  2
   8897   8898   8901   8902     1  0.0000000  0.7531200  3
   8897   8898   8901   8909     1  0.0000000  0.6508444  3
   8897   8919   8903   8907     1  180.0000771  5.6484000  1
   8897   8919   8903   8907     1  180.0000771  3.5564000  2
   8897   8919   8903   8907     1  0.0000000  0.4184000  3
   8897   8919   8903   8902     1  180.0000771  0.4184000  2
   8897   8919   8903   8902     1  0.0000000  1.6024720  3
   8898   8901   8902   8903     1  180.0000771  0.8368000  1
   8898   8901   8902   8903     1  180.0000771  1.0460000  2
   8898   8901   8902   8903     1  0.0000000  0.7531200  3
   8898   8901   8902   8908     1  0.0000000  0.6508444  3
   8898   8897   8911   8917     1  0.0000000  0.6508444  3
   8898   8897   8919   8903     1  180.0000771  0.4184000  2
   8898   8897   8919   8903     1  0.0000000  1.6024720  3
   8901   8902   8903   8907     1  0.0000000  0.6508444  3
   8901   8902   8903   8919     1  0.0000000  0.6508444  3
   8901   8898   8897   8911     1  180.0000771  0.8368000  1
   8901   8898   8897   8911     1  180.0000771  1.0460000  2
   8901   8898   8897   8911     1  0.0000000  0.7531200  3
   8901   8898   8897   8919     1  0.0000000  0.6508444  3
   8902   8901   8898   8910     1  0.0000000  0.6508444  3
   8903   8919   8897   8911     1  180.0000771  0.4184000  2
   8903   8919   8897   8911     1  0.0000000  1.6024720  3
   8903   8902   8901   8909     1  0.0000000  0.6508444  3
   8907   8903   8902   8908     1  0.0000000  4.9162000  2
   8907   8903   8902   8908     1  0.0000000  0.6024960  3
   8908   8902   8903   8919     1  0.0000000  4.9162000  2
   8908   8902   8903   8919     1  0.0000000  0.6024960  3
   8908   8902   8901   8909     1  0.0000000  4.9162000  2
   8908   8902   8901   8909     1  0.0000000  0.6024960  3
   8909   8901   8898   8910     1  0.0000000  4.9162000  2
   8909   8901   8898   8910     1  0.0000000  0.6024960  3
   8910   8898   8897   8911     1  0.0000000  0.6508444  3
   8910   8898   8897   8919     1  0.0000000  4.9162000  2
   8910   8898   8897   8919     1  0.0000000  0.6024960  3
   8917   8911   8897   8919     1  0.0000000  4.9162000  2
   8917   8911   8897   8919     1  0.0000000  0.6024960  3
   8920   8921   8924   8925     1  180.0000771  0.8368000  1
   8920   8921   8924   8925     1  180.0000771  1.0460000  2
   8920   8921   8924   8925     1  0.0000000  0.7531200  3
   8920   8921   8924   8932     1  0.0000000  0.6508444  3
   8920   8942   8926   8925     1  180.0000771  0.4184000  2
   8920   8942   8926   8925     1  0.0000000  1.6024720  3
   8920   8942   8926   8930     1  180.0000771  5.6484000  1
   8920   8942   8926   8930     1  180.0000771  3.5564000  2
   8920   8942   8926   8930     1  0.0000000  0.4184000  3
   8921   8920   8934   8940     1  0.0000000  0.6508444  3
   8921   8920   8942   8926     1  180.0000771  0.4184000  2
   8921   8920   8942   8926     1  0.0000000  1.6024720  3
   8921   8924   8925   8926     1  180.0000771  0.8368000  1
   8921   8924   8925   8926     1  180.0000771  1.0460000  2
   8921   8924   8925   8926     1  0.0000000  0.7531200  3
   8921   8924   8925   8931     1  0.0000000  0.6508444  3
   8924   8921   8920   8934     1  180.0000771  0.8368000  1
   8924   8921   8920   8934     1  180.0000771  1.0460000  2
   8924   8921   8920   8934     1  0.0000000  0.7531200  3
   8924   8921   8920   8942     1  0.0000000  0.6508444  3
   8924   8925   8926   8930     1  0.0000000  0.6508444  3
   8924   8925   8926   8942     1  0.0000000  0.6508444  3
   8925   8924   8921   8933     1  0.0000000  0.6508444  3
   8926   8925   8924   8932     1  0.0000000  0.6508444  3
   8926   8942   8920   8934     1  180.0000771  0.4184000  2
   8926   8942   8920   8934     1  0.0000000  1.6024720  3
   8930   8926   8925   8931     1  0.0000000  4.9162000  2
   8930   8926   8925   8931     1  0.0000000  0.6024960  3
   8931   8925   8924   8932     1  0.0000000  4.9162000  2
   8931   8925   8924   8932     1  0.0000000  0.6024960  3
   8931   8925   8926   8942     1  0.0000000  4.9162000  2
   8931   8925   8926   8942     1  0.0000000  0.6024960  3
   8932   8924   8921   8933     1  0.0000000  4.9162000  2
   8932   8924   8921   8933     1  0.0000000  0.6024960  3
   8933   8921   8920   8934     1  0.0000000  0.6508444  3
   8933   8921   8920   8942     1  0.0000000  4.9162000  2
   8933   8921   8920   8942     1  0.0000000  0.6024960  3
   8940   8934   8920   8942     1  0.0000000  4.9162000  2
   8940   8934   8920   8942     1  0.0000000  0.6024960  3
   8943   8944   8947   8948     1  180.0000771  0.8368000  1
   8943   8944   8947   8948     1  180.0000771  1.0460000  2
   8943   8944   8947   8948     1  0.0000000  0.7531200  3
   8943   8944   8947   8955     1  0.0000000  0.6508444  3
   8943   8965   8949   8953     1  180.0000771  5.6484000  1
   8943   8965   8949   8953     1  180.0000771  3.5564000  2
   8943   8965   8949   8953     1  0.0000000  0.4184000  3
   8943   8965   8949   8948     1  180.0000771  0.4184000  2
   8943   8965   8949   8948     1  0.0000000  1.6024720  3
   8944   8947   8948   8949     1  180.0000771  0.8368000  1
   8944   8947   8948   8949     1  180.0000771  1.0460000  2
   8944   8947   8948   8949     1  0.0000000  0.7531200  3
   8944   8947   8948   8954     1  0.0000000  0.6508444  3
   8944   8943   8957   8963     1  0.0000000  0.6508444  3
   8944   8943   8965   8949     1  180.0000771  0.4184000  2
   8944   8943   8965   8949     1  0.0000000  1.6024720  3
   8947   8948   8949   8953     1  0.0000000  0.6508444  3
   8947   8948   8949   8965     1  0.0000000  0.6508444  3
   8947   8944   8943   8957     1  180.0000771  0.8368000  1
   8947   8944   8943   8957     1  180.0000771  1.0460000  2
   8947   8944   8943   8957     1  0.0000000  0.7531200  3
   8947   8944   8943   8965     1  0.0000000  0.6508444  3
   8948   8947   8944   8956     1  0.0000000  0.6508444  3
   8949   8965   8943   8957     1  180.0000771  0.4184000  2
   8949   8965   8943   8957     1  0.0000000  1.6024720  3
   8949   8948   8947   8955     1  0.0000000  0.6508444  3
   8953   8949   8948   8954     1  0.0000000  4.9162000  2
   8953   8949   8948   8954     1  0.0000000  0.6024960  3
   8954   8948   8949   8965     1  0.0000000  4.9162000  2
   8954   8948   8949   8965     1  0.0000000  0.6024960  3
   8954   8948   8947   8955     1  0.0000000  4.9162000  2
   8954   8948   8947   8955     1  0.0000000  0.6024960  3
   8955   8947   8944   8956     1  0.0000000  4.9162000  2
   8955   8947   8944   8956     1  0.0000000  0.6024960  3
   8956   8944   8943   8957     1  0.0000000  0.6508444  3
   8956   8944   8943   8965     1  0.0000000  4.9162000  2
   8956   8944   8943   8965     1  0.0000000  0.6024960  3
   8963   8957   8943   8965     1  0.0000000  4.9162000  2
   8963   8957   8943   8965     1  0.0000000  0.6024960  3
   8966   8967   8970   8971     1  180.0000771  0.8368000  1
   8966   8967   8970   8971     1  180.0000771  1.0460000  2
   8966   8967   8970   8971     1  0.0000000  0.7531200  3
   8966   8967   8970   8978     1  0.0000000  0.6508444  3
   8966   8988   8972   8971     1  180.0000771  0.4184000  2
   8966   8988   8972   8971     1  0.0000000  1.6024720  3
   8966   8988   8972   8976     1  180.0000771  5.6484000  1
   8966   8988   8972   8976     1  180.0000771  3.5564000  2
   8966   8988   8972   8976     1  0.0000000  0.4184000  3
   8967   8966   8980   8986     1  0.0000000  0.6508444  3
   8967   8966   8988   8972     1  180.0000771  0.4184000  2
   8967   8966   8988   8972     1  0.0000000  1.6024720  3
   8967   8970   8971   8972     1  180.0000771  0.8368000  1
   8967   8970   8971   8972     1  180.0000771  1.0460000  2
   8967   8970   8971   8972     1  0.0000000  0.7531200  3
   8967   8970   8971   8977     1  0.0000000  0.6508444  3
   8970   8967   8966   8980     1  180.0000771  0.8368000  1
   8970   8967   8966   8980     1  180.0000771  1.0460000  2
   8970   8967   8966   8980     1  0.0000000  0.7531200  3
   8970   8967   8966   8988     1  0.0000000  0.6508444  3
   8970   8971   8972   8976     1  0.0000000  0.6508444  3
   8970   8971   8972   8988     1  0.0000000  0.6508444  3
   8971   8970   8967   8979     1  0.0000000  0.6508444  3
   8972   8971   8970   8978     1  0.0000000  0.6508444  3
   8972   8988   8966   8980     1  180.0000771  0.4184000  2
   8972   8988   8966   8980     1  0.0000000  1.6024720  3
   8976   8972   8971   8977     1  0.0000000  4.9162000  2
   8976   8972   8971   8977     1  0.0000000  0.6024960  3
   8977   8971   8970   8978     1  0.0000000  4.9162000  2
   8977   8971   8970   8978     1  0.0000000  0.6024960  3
   8977   8971   8972   8988     1  0.0000000  4.9162000  2
   8977   8971   8972   8988     1  0.0000000  0.6024960  3
   8978   8970   8967   8979     1  0.0000000  4.9162000  2
   8978   8970   8967   8979     1  0.0000000  0.6024960  3
   8979   8967   8966   8980     1  0.0000000  0.6508444  3
   8979   8967   8966   8988     1  0.0000000  4.9162000  2
   8979   8967   8966   8988     1  0.0000000  0.6024960  3
   8986   8980   8966   8988     1  0.0000000  4.9162000  2
   8986   8980   8966   8988     1  0.0000000  0.6024960  3
   8989   8990   8993   8994     1  180.0000771  0.8368000  1
   8989   8990   8993   8994     1  180.0000771  1.0460000  2
   8989   8990   8993   8994     1  0.0000000  0.7531200  3
   8989   8990   8993   9001     1  0.0000000  0.6508444  3
   8989   9011   8995   8999     1  180.0000771  5.6484000  1
   8989   9011   8995   8999     1  180.0000771  3.5564000  2
   8989   9011   8995   8999     1  0.0000000  0.4184000  3
   8989   9011   8995   8994     1  180.0000771  0.4184000  2
   8989   9011   8995   8994     1  0.0000000  1.6024720  3
   8990   8993   8994   8995     1  180.0000771  0.8368000  1
   8990   8993   8994   8995     1  180.0000771  1.0460000  2
   8990   8993   8994   8995     1  0.0000000  0.7531200  3
   8990   8993   8994   9000     1  0.0000000  0.6508444  3
   8990   8989   9003   9009     1  0.0000000  0.6508444  3
   8990   8989   9011   8995     1  180.0000771  0.4184000  2
   8990   8989   9011   8995     1  0.0000000  1.6024720  3
   8993   8994   8995   8999     1  0.0000000  0.6508444  3
   8993   8994   8995   9011     1  0.0000000  0.6508444  3
   8993   8990   8989   9003     1  180.0000771  0.8368000  1
   8993   8990   8989   9003     1  180.0000771  1.0460000  2
   8993   8990   8989   9003     1  0.0000000  0.7531200  3
   8993   8990   8989   9011     1  0.0000000  0.6508444  3
   8994   8993   8990   9002     1  0.0000000  0.6508444  3
   8995   9011   8989   9003     1  180.0000771  0.4184000  2
   8995   9011   8989   9003     1  0.0000000  1.6024720  3
   8995   8994   8993   9001     1  0.0000000  0.6508444  3
   8999   8995   8994   9000     1  0.0000000  4.9162000  2
   8999   8995   8994   9000     1  0.0000000  0.6024960  3
   9000   8994   8995   9011     1  0.0000000  4.9162000  2
   9000   8994   8995   9011     1  0.0000000  0.6024960  3
   9000   8994   8993   9001     1  0.0000000  4.9162000  2
   9000   8994   8993   9001     1  0.0000000  0.6024960  3
   9001   8993   8990   9002     1  0.0000000  4.9162000  2
   9001   8993   8990   9002     1  0.0000000  0.6024960  3
   9002   8990   8989   9003     1  0.0000000  0.6508444  3
   9002   8990   8989   9011     1  0.0000000  4.9162000  2
   9002   8990   8989   9011     1  0.0000000  0.6024960  3
   9009   9003   8989   9011     1  0.0000000  4.9162000  2
   9009   9003   8989   9011     1  0.0000000  0.6024960  3
   9012   9013   9016   9017     1  180.0000771  0.8368000  1
   9012   9013   9016   9017     1  180.0000771  1.0460000  2
   9012   9013   9016   9017     1  0.0000000  0.7531200  3
   9012   9013   9016   9024     1  0.0000000  0.6508444  3
   9012   9034   9018   9017     1  180.0000771  0.4184000  2
   9012   9034   9018   9017     1  0.0000000  1.6024720  3
   9012   9034   9018   9022     1  180.0000771  5.6484000  1
   9012   9034   9018   9022     1  180.0000771  3.5564000  2
   9012   9034   9018   9022     1  0.0000000  0.4184000  3
   9013   9012   9026   9032     1  0.0000000  0.6508444  3
   9013   9012   9034   9018     1  180.0000771  0.4184000  2
   9013   9012   9034   9018     1  0.0000000  1.6024720  3
   9013   9016   9017   9018     1  180.0000771  0.8368000  1
   9013   9016   9017   9018     1  180.0000771  1.0460000  2
   9013   9016   9017   9018     1  0.0000000  0.7531200  3
   9013   9016   9017   9023     1  0.0000000  0.6508444  3
   9016   9013   9012   9026     1  180.0000771  0.8368000  1
   9016   9013   9012   9026     1  180.0000771  1.0460000  2
   9016   9013   9012   9026     1  0.0000000  0.7531200  3
   9016   9013   9012   9034     1  0.0000000  0.6508444  3
   9016   9017   9018   9022     1  0.0000000  0.6508444  3
   9016   9017   9018   9034     1  0.0000000  0.6508444  3
   9017   9016   9013   9025     1  0.0000000  0.6508444  3
   9018   9017   9016   9024     1  0.0000000  0.6508444  3
   9018   9034   9012   9026     1  180.0000771  0.4184000  2
   9018   9034   9012   9026     1  0.0000000  1.6024720  3
   9022   9018   9017   9023     1  0.0000000  4.9162000  2
   9022   9018   9017   9023     1  0.0000000  0.6024960  3
   9023   9017   9016   9024     1  0.0000000  4.9162000  2
   9023   9017   9016   9024     1  0.0000000  0.6024960  3
   9023   9017   9018   9034     1  0.0000000  4.9162000  2
   9023   9017   9018   9034     1  0.0000000  0.6024960  3
   9024   9016   9013   9025     1  0.0000000  4.9162000  2
   9024   9016   9013   9025     1  0.0000000  0.6024960  3
   9025   9013   9012   9026     1  0.0000000  0.6508444  3
   9025   9013   9012   9034     1  0.0000000  4.9162000  2
   9025   9013   9012   9034     1  0.0000000  0.6024960  3
   9032   9026   9012   9034     1  0.0000000  4.9162000  2
   9032   9026   9012   9034     1  0.0000000  0.6024960  3
   9035   9036   9039   9040     1  180.0000771  0.8368000  1
   9035   9036   9039   9040     1  180.0000771  1.0460000  2
   9035   9036   9039   9040     1  0.0000000  0.7531200  3
   9035   9036   9039   9047     1  0.0000000  0.6508444  3
   9035   9057   9041   9045     1  180.0000771  5.6484000  1
   9035   9057   9041   9045     1  180.0000771  3.5564000  2
   9035   9057   9041   9045     1  0.0000000  0.4184000  3
   9035   9057   9041   9040     1  180.0000771  0.4184000  2
   9035   9057   9041   9040     1  0.0000000  1.6024720  3
   9036   9039   9040   9041     1  180.0000771  0.8368000  1
   9036   9039   9040   9041     1  180.0000771  1.0460000  2
   9036   9039   9040   9041     1  0.0000000  0.7531200  3
   9036   9039   9040   9046     1  0.0000000  0.6508444  3
   9036   9035   9049   9055     1  0.0000000  0.6508444  3
   9036   9035   9057   9041     1  180.0000771  0.4184000  2
   9036   9035   9057   9041     1  0.0000000  1.6024720  3
   9039   9040   9041   9045     1  0.0000000  0.6508444  3
   9039   9040   9041   9057     1  0.0000000  0.6508444  3
   9039   9036   9035   9049     1  180.0000771  0.8368000  1
   9039   9036   9035   9049     1  180.0000771  1.0460000  2
   9039   9036   9035   9049     1  0.0000000  0.7531200  3
   9039   9036   9035   9057     1  0.0000000  0.6508444  3
   9040   9039   9036   9048     1  0.0000000  0.6508444  3
   9041   9057   9035   9049     1  180.0000771  0.4184000  2
   9041   9057   9035   9049     1  0.0000000  1.6024720  3
   9041   9040   9039   9047     1  0.0000000  0.6508444  3
   9045   9041   9040   9046     1  0.0000000  4.9162000  2
   9045   9041   9040   9046     1  0.0000000  0.6024960  3
   9046   9040   9041   9057     1  0.0000000  4.9162000  2
   9046   9040   9041   9057     1  0.0000000  0.6024960  3
   9046   9040   9039   9047     1  0.0000000  4.9162000  2
   9046   9040   9039   9047     1  0.0000000  0.6024960  3
   9047   9039   9036   9048     1  0.0000000  4.9162000  2
   9047   9039   9036   9048     1  0.0000000  0.6024960  3
   9048   9036   9035   9049     1  0.0000000  0.6508444  3
   9048   9036   9035   9057     1  0.0000000  4.9162000  2
   9048   9036   9035   9057     1  0.0000000  0.6024960  3
   9055   9049   9035   9057     1  0.0000000  4.9162000  2
   9055   9049   9035   9057     1  0.0000000  0.6024960  3
   9058   9059   9062   9063     1  180.0000771  0.8368000  1
   9058   9059   9062   9063     1  180.0000771  1.0460000  2
   9058   9059   9062   9063     1  0.0000000  0.7531200  3
   9058   9059   9062   9070     1  0.0000000  0.6508444  3
   9058   9080   9064   9063     1  180.0000771  0.4184000  2
   9058   9080   9064   9063     1  0.0000000  1.6024720  3
   9058   9080   9064   9068     1  180.0000771  5.6484000  1
   9058   9080   9064   9068     1  180.0000771  3.5564000  2
   9058   9080   9064   9068     1  0.0000000  0.4184000  3
   9059   9058   9072   9078     1  0.0000000  0.6508444  3
   9059   9058   9080   9064     1  180.0000771  0.4184000  2
   9059   9058   9080   9064     1  0.0000000  1.6024720  3
   9059   9062   9063   9064     1  180.0000771  0.8368000  1
   9059   9062   9063   9064     1  180.0000771  1.0460000  2
   9059   9062   9063   9064     1  0.0000000  0.7531200  3
   9059   9062   9063   9069     1  0.0000000  0.6508444  3
   9062   9059   9058   9072     1  180.0000771  0.8368000  1
   9062   9059   9058   9072     1  180.0000771  1.0460000  2
   9062   9059   9058   9072     1  0.0000000  0.7531200  3
   9062   9059   9058   9080     1  0.0000000  0.6508444  3
   9062   9063   9064   9068     1  0.0000000  0.6508444  3
   9062   9063   9064   9080     1  0.0000000  0.6508444  3
   9063   9062   9059   9071     1  0.0000000  0.6508444  3
   9064   9063   9062   9070     1  0.0000000  0.6508444  3
   9064   9080   9058   9072     1  180.0000771  0.4184000  2
   9064   9080   9058   9072     1  0.0000000  1.6024720  3
   9068   9064   9063   9069     1  0.0000000  4.9162000  2
   9068   9064   9063   9069     1  0.0000000  0.6024960  3
   9069   9063   9062   9070     1  0.0000000  4.9162000  2
   9069   9063   9062   9070     1  0.0000000  0.6024960  3
   9069   9063   9064   9080     1  0.0000000  4.9162000  2
   9069   9063   9064   9080     1  0.0000000  0.6024960  3
   9070   9062   9059   9071     1  0.0000000  4.9162000  2
   9070   9062   9059   9071     1  0.0000000  0.6024960  3
   9071   9059   9058   9072     1  0.0000000  0.6508444  3
   9071   9059   9058   9080     1  0.0000000  4.9162000  2
   9071   9059   9058   9080     1  0.0000000  0.6024960  3
   9078   9072   9058   9080     1  0.0000000  4.9162000  2
   9078   9072   9058   9080     1  0.0000000  0.6024960  3
   9081   9082   9085   9086     1  180.0000771  0.8368000  1
   9081   9082   9085   9086     1  180.0000771  1.0460000  2
   9081   9082   9085   9086     1  0.0000000  0.7531200  3
   9081   9082   9085   9093     1  0.0000000  0.6508444  3
   9081   9103   9087   9091     1  180.0000771  5.6484000  1
   9081   9103   9087   9091     1  180.0000771  3.5564000  2
   9081   9103   9087   9091     1  0.0000000  0.4184000  3
   9081   9103   9087   9086     1  180.0000771  0.4184000  2
   9081   9103   9087   9086     1  0.0000000  1.6024720  3
   9082   9085   9086   9087     1  180.0000771  0.8368000  1
   9082   9085   9086   9087     1  180.0000771  1.0460000  2
   9082   9085   9086   9087     1  0.0000000  0.7531200  3
   9082   9085   9086   9092     1  0.0000000  0.6508444  3
   9082   9081   9095   9101     1  0.0000000  0.6508444  3
   9082   9081   9103   9087     1  180.0000771  0.4184000  2
   9082   9081   9103   9087     1  0.0000000  1.6024720  3
   9085   9086   9087   9091     1  0.0000000  0.6508444  3
   9085   9086   9087   9103     1  0.0000000  0.6508444  3
   9085   9082   9081   9095     1  180.0000771  0.8368000  1
   9085   9082   9081   9095     1  180.0000771  1.0460000  2
   9085   9082   9081   9095     1  0.0000000  0.7531200  3
   9085   9082   9081   9103     1  0.0000000  0.6508444  3
   9086   9085   9082   9094     1  0.0000000  0.6508444  3
   9087   9103   9081   9095     1  180.0000771  0.4184000  2
   9087   9103   9081   9095     1  0.0000000  1.6024720  3
   9087   9086   9085   9093     1  0.0000000  0.6508444  3
   9091   9087   9086   9092     1  0.0000000  4.9162000  2
   9091   9087   9086   9092     1  0.0000000  0.6024960  3
   9092   9086   9087   9103     1  0.0000000  4.9162000  2
   9092   9086   9087   9103     1  0.0000000  0.6024960  3
   9092   9086   9085   9093     1  0.0000000  4.9162000  2
   9092   9086   9085   9093     1  0.0000000  0.6024960  3
   9093   9085   9082   9094     1  0.0000000  4.9162000  2
   9093   9085   9082   9094     1  0.0000000  0.6024960  3
   9094   9082   9081   9095     1  0.0000000  0.6508444  3
   9094   9082   9081   9103     1  0.0000000  4.9162000  2
   9094   9082   9081   9103     1  0.0000000  0.6024960  3
   9101   9095   9081   9103     1  0.0000000  4.9162000  2
   9101   9095   9081   9103     1  0.0000000  0.6024960  3
   9104   9105   9108   9109     1  180.0000771  0.8368000  1
   9104   9105   9108   9109     1  180.0000771  1.0460000  2
   9104   9105   9108   9109     1  0.0000000  0.7531200  3
   9104   9105   9108   9116     1  0.0000000  0.6508444  3
   9104   9126   9110   9109     1  180.0000771  0.4184000  2
   9104   9126   9110   9109     1  0.0000000  1.6024720  3
   9104   9126   9110   9114     1  180.0000771  5.6484000  1
   9104   9126   9110   9114     1  180.0000771  3.5564000  2
   9104   9126   9110   9114     1  0.0000000  0.4184000  3
   9105   9104   9118   9124     1  0.0000000  0.6508444  3
   9105   9104   9126   9110     1  180.0000771  0.4184000  2
   9105   9104   9126   9110     1  0.0000000  1.6024720  3
   9105   9108   9109   9110     1  180.0000771  0.8368000  1
   9105   9108   9109   9110     1  180.0000771  1.0460000  2
   9105   9108   9109   9110     1  0.0000000  0.7531200  3
   9105   9108   9109   9115     1  0.0000000  0.6508444  3
   9108   9105   9104   9118     1  180.0000771  0.8368000  1
   9108   9105   9104   9118     1  180.0000771  1.0460000  2
   9108   9105   9104   9118     1  0.0000000  0.7531200  3
   9108   9105   9104   9126     1  0.0000000  0.6508444  3
   9108   9109   9110   9114     1  0.0000000  0.6508444  3
   9108   9109   9110   9126     1  0.0000000  0.6508444  3
   9109   9108   9105   9117     1  0.0000000  0.6508444  3
   9110   9109   9108   9116     1  0.0000000  0.6508444  3
   9110   9126   9104   9118     1  180.0000771  0.4184000  2
   9110   9126   9104   9118     1  0.0000000  1.6024720  3
   9114   9110   9109   9115     1  0.0000000  4.9162000  2
   9114   9110   9109   9115     1  0.0000000  0.6024960  3
   9115   9109   9108   9116     1  0.0000000  4.9162000  2
   9115   9109   9108   9116     1  0.0000000  0.6024960  3
   9115   9109   9110   9126     1  0.0000000  4.9162000  2
   9115   9109   9110   9126     1  0.0000000  0.6024960  3
   9116   9108   9105   9117     1  0.0000000  4.9162000  2
   9116   9108   9105   9117     1  0.0000000  0.6024960  3
   9117   9105   9104   9118     1  0.0000000  0.6508444  3
   9117   9105   9104   9126     1  0.0000000  4.9162000  2
   9117   9105   9104   9126     1  0.0000000  0.6024960  3
   9124   9118   9104   9126     1  0.0000000  4.9162000  2
   9124   9118   9104   9126     1  0.0000000  0.6024960  3
   9127   9128   9131   9132     1  180.0000771  0.8368000  1
   9127   9128   9131   9132     1  180.0000771  1.0460000  2
   9127   9128   9131   9132     1  0.0000000  0.7531200  3
   9127   9128   9131   9139     1  0.0000000  0.6508444  3
   9127   9149   9133   9137     1  180.0000771  5.6484000  1
   9127   9149   9133   9137     1  180.0000771  3.5564000  2
   9127   9149   9133   9137     1  0.0000000  0.4184000  3
   9127   9149   9133   9132     1  180.0000771  0.4184000  2
   9127   9149   9133   9132     1  0.0000000  1.6024720  3
   9128   9131   9132   9133     1  180.0000771  0.8368000  1
   9128   9131   9132   9133     1  180.0000771  1.0460000  2
   9128   9131   9132   9133     1  0.0000000  0.7531200  3
   9128   9131   9132   9138     1  0.0000000  0.6508444  3
   9128   9127   9141   9147     1  0.0000000  0.6508444  3
   9128   9127   9149   9133     1  180.0000771  0.4184000  2
   9128   9127   9149   9133     1  0.0000000  1.6024720  3
   9131   9132   9133   9137     1  0.0000000  0.6508444  3
   9131   9132   9133   9149     1  0.0000000  0.6508444  3
   9131   9128   9127   9141     1  180.0000771  0.8368000  1
   9131   9128   9127   9141     1  180.0000771  1.0460000  2
   9131   9128   9127   9141     1  0.0000000  0.7531200  3
   9131   9128   9127   9149     1  0.0000000  0.6508444  3
   9132   9131   9128   9140     1  0.0000000  0.6508444  3
   9133   9149   9127   9141     1  180.0000771  0.4184000  2
   9133   9149   9127   9141     1  0.0000000  1.6024720  3
   9133   9132   9131   9139     1  0.0000000  0.6508444  3
   9137   9133   9132   9138     1  0.0000000  4.9162000  2
   9137   9133   9132   9138     1  0.0000000  0.6024960  3
   9138   9132   9133   9149     1  0.0000000  4.9162000  2
   9138   9132   9133   9149     1  0.0000000  0.6024960  3
   9138   9132   9131   9139     1  0.0000000  4.9162000  2
   9138   9132   9131   9139     1  0.0000000  0.6024960  3
   9139   9131   9128   9140     1  0.0000000  4.9162000  2
   9139   9131   9128   9140     1  0.0000000  0.6024960  3
   9140   9128   9127   9141     1  0.0000000  0.6508444  3
   9140   9128   9127   9149     1  0.0000000  4.9162000  2
   9140   9128   9127   9149     1  0.0000000  0.6024960  3
   9147   9141   9127   9149     1  0.0000000  4.9162000  2
   9147   9141   9127   9149     1  0.0000000  0.6024960  3
   9150   9151   9154   9155     1  180.0000771  0.8368000  1
   9150   9151   9154   9155     1  180.0000771  1.0460000  2
   9150   9151   9154   9155     1  0.0000000  0.7531200  3
   9150   9151   9154   9162     1  0.0000000  0.6508444  3
   9150   9172   9156   9155     1  180.0000771  0.4184000  2
   9150   9172   9156   9155     1  0.0000000  1.6024720  3
   9150   9172   9156   9160     1  180.0000771  5.6484000  1
   9150   9172   9156   9160     1  180.0000771  3.5564000  2
   9150   9172   9156   9160     1  0.0000000  0.4184000  3
   9151   9150   9164   9170     1  0.0000000  0.6508444  3
   9151   9150   9172   9156     1  180.0000771  0.4184000  2
   9151   9150   9172   9156     1  0.0000000  1.6024720  3
   9151   9154   9155   9156     1  180.0000771  0.8368000  1
   9151   9154   9155   9156     1  180.0000771  1.0460000  2
   9151   9154   9155   9156     1  0.0000000  0.7531200  3
   9151   9154   9155   9161     1  0.0000000  0.6508444  3
   9154   9151   9150   9164     1  180.0000771  0.8368000  1
   9154   9151   9150   9164     1  180.0000771  1.0460000  2
   9154   9151   9150   9164     1  0.0000000  0.7531200  3
   9154   9151   9150   9172     1  0.0000000  0.6508444  3
   9154   9155   9156   9160     1  0.0000000  0.6508444  3
   9154   9155   9156   9172     1  0.0000000  0.6508444  3
   9155   9154   9151   9163     1  0.0000000  0.6508444  3
   9156   9155   9154   9162     1  0.0000000  0.6508444  3
   9156   9172   9150   9164     1  180.0000771  0.4184000  2
   9156   9172   9150   9164     1  0.0000000  1.6024720  3
   9160   9156   9155   9161     1  0.0000000  4.9162000  2
   9160   9156   9155   9161     1  0.0000000  0.6024960  3
   9161   9155   9154   9162     1  0.0000000  4.9162000  2
   9161   9155   9154   9162     1  0.0000000  0.6024960  3
   9161   9155   9156   9172     1  0.0000000  4.9162000  2
   9161   9155   9156   9172     1  0.0000000  0.6024960  3
   9162   9154   9151   9163     1  0.0000000  4.9162000  2
   9162   9154   9151   9163     1  0.0000000  0.6024960  3
   9163   9151   9150   9164     1  0.0000000  0.6508444  3
   9163   9151   9150   9172     1  0.0000000  4.9162000  2
   9163   9151   9150   9172     1  0.0000000  0.6024960  3
   9170   9164   9150   9172     1  0.0000000  4.9162000  2
   9170   9164   9150   9172     1  0.0000000  0.6024960  3
   9173   9174   9177   9178     1  180.0000771  0.8368000  1
   9173   9174   9177   9178     1  180.0000771  1.0460000  2
   9173   9174   9177   9178     1  0.0000000  0.7531200  3
   9173   9174   9177   9185     1  0.0000000  0.6508444  3
   9173   9195   9179   9183     1  180.0000771  5.6484000  1
   9173   9195   9179   9183     1  180.0000771  3.5564000  2
   9173   9195   9179   9183     1  0.0000000  0.4184000  3
   9173   9195   9179   9178     1  180.0000771  0.4184000  2
   9173   9195   9179   9178     1  0.0000000  1.6024720  3
   9174   9177   9178   9179     1  180.0000771  0.8368000  1
   9174   9177   9178   9179     1  180.0000771  1.0460000  2
   9174   9177   9178   9179     1  0.0000000  0.7531200  3
   9174   9177   9178   9184     1  0.0000000  0.6508444  3
   9174   9173   9187   9193     1  0.0000000  0.6508444  3
   9174   9173   9195   9179     1  180.0000771  0.4184000  2
   9174   9173   9195   9179     1  0.0000000  1.6024720  3
   9177   9178   9179   9183     1  0.0000000  0.6508444  3
   9177   9178   9179   9195     1  0.0000000  0.6508444  3
   9177   9174   9173   9187     1  180.0000771  0.8368000  1
   9177   9174   9173   9187     1  180.0000771  1.0460000  2
   9177   9174   9173   9187     1  0.0000000  0.7531200  3
   9177   9174   9173   9195     1  0.0000000  0.6508444  3
   9178   9177   9174   9186     1  0.0000000  0.6508444  3
   9179   9195   9173   9187     1  180.0000771  0.4184000  2
   9179   9195   9173   9187     1  0.0000000  1.6024720  3
   9179   9178   9177   9185     1  0.0000000  0.6508444  3
   9183   9179   9178   9184     1  0.0000000  4.9162000  2
   9183   9179   9178   9184     1  0.0000000  0.6024960  3
   9184   9178   9179   9195     1  0.0000000  4.9162000  2
   9184   9178   9179   9195     1  0.0000000  0.6024960  3
   9184   9178   9177   9185     1  0.0000000  4.9162000  2
   9184   9178   9177   9185     1  0.0000000  0.6024960  3
   9185   9177   9174   9186     1  0.0000000  4.9162000  2
   9185   9177   9174   9186     1  0.0000000  0.6024960  3
   9186   9174   9173   9187     1  0.0000000  0.6508444  3
   9186   9174   9173   9195     1  0.0000000  4.9162000  2
   9186   9174   9173   9195     1  0.0000000  0.6024960  3
   9193   9187   9173   9195     1  0.0000000  4.9162000  2
   9193   9187   9173   9195     1  0.0000000  0.6024960  3
   9196   9197   9200   9201     1  180.0000771  0.8368000  1
   9196   9197   9200   9201     1  180.0000771  1.0460000  2
   9196   9197   9200   9201     1  0.0000000  0.7531200  3
   9196   9197   9200   9208     1  0.0000000  0.6508444  3
   9196   9218   9202   9201     1  180.0000771  0.4184000  2
   9196   9218   9202   9201     1  0.0000000  1.6024720  3
   9196   9218   9202   9206     1  180.0000771  5.6484000  1
   9196   9218   9202   9206     1  180.0000771  3.5564000  2
   9196   9218   9202   9206     1  0.0000000  0.4184000  3
   9197   9196   9210   9216     1  0.0000000  0.6508444  3
   9197   9196   9218   9202     1  180.0000771  0.4184000  2
   9197   9196   9218   9202     1  0.0000000  1.6024720  3
   9197   9200   9201   9202     1  180.0000771  0.8368000  1
   9197   9200   9201   9202     1  180.0000771  1.0460000  2
   9197   9200   9201   9202     1  0.0000000  0.7531200  3
   9197   9200   9201   9207     1  0.0000000  0.6508444  3
   9200   9197   9196   9210     1  180.0000771  0.8368000  1
   9200   9197   9196   9210     1  180.0000771  1.0460000  2
   9200   9197   9196   9210     1  0.0000000  0.7531200  3
   9200   9197   9196   9218     1  0.0000000  0.6508444  3
   9200   9201   9202   9206     1  0.0000000  0.6508444  3
   9200   9201   9202   9218     1  0.0000000  0.6508444  3
   9201   9200   9197   9209     1  0.0000000  0.6508444  3
   9202   9201   9200   9208     1  0.0000000  0.6508444  3
   9202   9218   9196   9210     1  180.0000771  0.4184000  2
   9202   9218   9196   9210     1  0.0000000  1.6024720  3
   9206   9202   9201   9207     1  0.0000000  4.9162000  2
   9206   9202   9201   9207     1  0.0000000  0.6024960  3
   9207   9201   9200   9208     1  0.0000000  4.9162000  2
   9207   9201   9200   9208     1  0.0000000  0.6024960  3
   9207   9201   9202   9218     1  0.0000000  4.9162000  2
   9207   9201   9202   9218     1  0.0000000  0.6024960  3
   9208   9200   9197   9209     1  0.0000000  4.9162000  2
   9208   9200   9197   9209     1  0.0000000  0.6024960  3
   9209   9197   9196   9210     1  0.0000000  0.6508444  3
   9209   9197   9196   9218     1  0.0000000  4.9162000  2
   9209   9197   9196   9218     1  0.0000000  0.6024960  3
   9216   9210   9196   9218     1  0.0000000  4.9162000  2
   9216   9210   9196   9218     1  0.0000000  0.6024960  3
   9219   9220   9223   9224     1  180.0000771  0.8368000  1
   9219   9220   9223   9224     1  180.0000771  1.0460000  2
   9219   9220   9223   9224     1  0.0000000  0.7531200  3
   9219   9220   9223   9231     1  0.0000000  0.6508444  3
   9219   9241   9225   9229     1  180.0000771  5.6484000  1
   9219   9241   9225   9229     1  180.0000771  3.5564000  2
   9219   9241   9225   9229     1  0.0000000  0.4184000  3
   9219   9241   9225   9224     1  180.0000771  0.4184000  2
   9219   9241   9225   9224     1  0.0000000  1.6024720  3
   9220   9223   9224   9225     1  180.0000771  0.8368000  1
   9220   9223   9224   9225     1  180.0000771  1.0460000  2
   9220   9223   9224   9225     1  0.0000000  0.7531200  3
   9220   9223   9224   9230     1  0.0000000  0.6508444  3
   9220   9219   9233   9239     1  0.0000000  0.6508444  3
   9220   9219   9241   9225     1  180.0000771  0.4184000  2
   9220   9219   9241   9225     1  0.0000000  1.6024720  3
   9223   9224   9225   9229     1  0.0000000  0.6508444  3
   9223   9224   9225   9241     1  0.0000000  0.6508444  3
   9223   9220   9219   9233     1  180.0000771  0.8368000  1
   9223   9220   9219   9233     1  180.0000771  1.0460000  2
   9223   9220   9219   9233     1  0.0000000  0.7531200  3
   9223   9220   9219   9241     1  0.0000000  0.6508444  3
   9224   9223   9220   9232     1  0.0000000  0.6508444  3
   9225   9241   9219   9233     1  180.0000771  0.4184000  2
   9225   9241   9219   9233     1  0.0000000  1.6024720  3
   9225   9224   9223   9231     1  0.0000000  0.6508444  3
   9229   9225   9224   9230     1  0.0000000  4.9162000  2
   9229   9225   9224   9230     1  0.0000000  0.6024960  3
   9230   9224   9225   9241     1  0.0000000  4.9162000  2
   9230   9224   9225   9241     1  0.0000000  0.6024960  3
   9230   9224   9223   9231     1  0.0000000  4.9162000  2
   9230   9224   9223   9231     1  0.0000000  0.6024960  3
   9231   9223   9220   9232     1  0.0000000  4.9162000  2
   9231   9223   9220   9232     1  0.0000000  0.6024960  3
   9232   9220   9219   9233     1  0.0000000  0.6508444  3
   9232   9220   9219   9241     1  0.0000000  4.9162000  2
   9232   9220   9219   9241     1  0.0000000  0.6024960  3
   9239   9233   9219   9241     1  0.0000000  4.9162000  2
   9239   9233   9219   9241     1  0.0000000  0.6024960  3
   9242   9243   9246   9247     1  180.0000771  0.8368000  1
   9242   9243   9246   9247     1  180.0000771  1.0460000  2
   9242   9243   9246   9247     1  0.0000000  0.7531200  3
   9242   9243   9246   9254     1  0.0000000  0.6508444  3
   9242   9264   9248   9247     1  180.0000771  0.4184000  2
   9242   9264   9248   9247     1  0.0000000  1.6024720  3
   9242   9264   9248   9252     1  180.0000771  5.6484000  1
   9242   9264   9248   9252     1  180.0000771  3.5564000  2
   9242   9264   9248   9252     1  0.0000000  0.4184000  3
   9243   9242   9256   9262     1  0.0000000  0.6508444  3
   9243   9242   9264   9248     1  180.0000771  0.4184000  2
   9243   9242   9264   9248     1  0.0000000  1.6024720  3
   9243   9246   9247   9248     1  180.0000771  0.8368000  1
   9243   9246   9247   9248     1  180.0000771  1.0460000  2
   9243   9246   9247   9248     1  0.0000000  0.7531200  3
   9243   9246   9247   9253     1  0.0000000  0.6508444  3
   9246   9243   9242   9256     1  180.0000771  0.8368000  1
   9246   9243   9242   9256     1  180.0000771  1.0460000  2
   9246   9243   9242   9256     1  0.0000000  0.7531200  3
   9246   9243   9242   9264     1  0.0000000  0.6508444  3
   9246   9247   9248   9252     1  0.0000000  0.6508444  3
   9246   9247   9248   9264     1  0.0000000  0.6508444  3
   9247   9246   9243   9255     1  0.0000000  0.6508444  3
   9248   9247   9246   9254     1  0.0000000  0.6508444  3
   9248   9264   9242   9256     1  180.0000771  0.4184000  2
   9248   9264   9242   9256     1  0.0000000  1.6024720  3
   9252   9248   9247   9253     1  0.0000000  4.9162000  2
   9252   9248   9247   9253     1  0.0000000  0.6024960  3
   9253   9247   9246   9254     1  0.0000000  4.9162000  2
   9253   9247   9246   9254     1  0.0000000  0.6024960  3
   9253   9247   9248   9264     1  0.0000000  4.9162000  2
   9253   9247   9248   9264     1  0.0000000  0.6024960  3
   9254   9246   9243   9255     1  0.0000000  4.9162000  2
   9254   9246   9243   9255     1  0.0000000  0.6024960  3
   9255   9243   9242   9256     1  0.0000000  0.6508444  3
   9255   9243   9242   9264     1  0.0000000  4.9162000  2
   9255   9243   9242   9264     1  0.0000000  0.6024960  3
   9262   9256   9242   9264     1  0.0000000  4.9162000  2
   9262   9256   9242   9264     1  0.0000000  0.6024960  3
   9265   9266   9269   9270     1  180.0000771  0.8368000  1
   9265   9266   9269   9270     1  180.0000771  1.0460000  2
   9265   9266   9269   9270     1  0.0000000  0.7531200  3
   9265   9266   9269   9277     1  0.0000000  0.6508444  3
   9265   9287   9271   9275     1  180.0000771  5.6484000  1
   9265   9287   9271   9275     1  180.0000771  3.5564000  2
   9265   9287   9271   9275     1  0.0000000  0.4184000  3
   9265   9287   9271   9270     1  180.0000771  0.4184000  2
   9265   9287   9271   9270     1  0.0000000  1.6024720  3
   9266   9269   9270   9271     1  180.0000771  0.8368000  1
   9266   9269   9270   9271     1  180.0000771  1.0460000  2
   9266   9269   9270   9271     1  0.0000000  0.7531200  3
   9266   9269   9270   9276     1  0.0000000  0.6508444  3
   9266   9265   9279   9285     1  0.0000000  0.6508444  3
   9266   9265   9287   9271     1  180.0000771  0.4184000  2
   9266   9265   9287   9271     1  0.0000000  1.6024720  3
   9269   9270   9271   9275     1  0.0000000  0.6508444  3
   9269   9270   9271   9287     1  0.0000000  0.6508444  3
   9269   9266   9265   9279     1  180.0000771  0.8368000  1
   9269   9266   9265   9279     1  180.0000771  1.0460000  2
   9269   9266   9265   9279     1  0.0000000  0.7531200  3
   9269   9266   9265   9287     1  0.0000000  0.6508444  3
   9270   9269   9266   9278     1  0.0000000  0.6508444  3
   9271   9287   9265   9279     1  180.0000771  0.4184000  2
   9271   9287   9265   9279     1  0.0000000  1.6024720  3
   9271   9270   9269   9277     1  0.0000000  0.6508444  3
   9275   9271   9270   9276     1  0.0000000  4.9162000  2
   9275   9271   9270   9276     1  0.0000000  0.6024960  3
   9276   9270   9271   9287     1  0.0000000  4.9162000  2
   9276   9270   9271   9287     1  0.0000000  0.6024960  3
   9276   9270   9269   9277     1  0.0000000  4.9162000  2
   9276   9270   9269   9277     1  0.0000000  0.6024960  3
   9277   9269   9266   9278     1  0.0000000  4.9162000  2
   9277   9269   9266   9278     1  0.0000000  0.6024960  3
   9278   9266   9265   9279     1  0.0000000  0.6508444  3
   9278   9266   9265   9287     1  0.0000000  4.9162000  2
   9278   9266   9265   9287     1  0.0000000  0.6024960  3
   9285   9279   9265   9287     1  0.0000000  4.9162000  2
   9285   9279   9265   9287     1  0.0000000  0.6024960  3
   9288   9289   9292   9293     1  180.0000771  0.8368000  1
   9288   9289   9292   9293     1  180.0000771  1.0460000  2
   9288   9289   9292   9293     1  0.0000000  0.7531200  3
   9288   9289   9292   9300     1  0.0000000  0.6508444  3
   9288   9310   9294   9293     1  180.0000771  0.4184000  2
   9288   9310   9294   9293     1  0.0000000  1.6024720  3
   9288   9310   9294   9298     1  180.0000771  5.6484000  1
   9288   9310   9294   9298     1  180.0000771  3.5564000  2
   9288   9310   9294   9298     1  0.0000000  0.4184000  3
   9289   9288   9302   9308     1  0.0000000  0.6508444  3
   9289   9288   9310   9294     1  180.0000771  0.4184000  2
   9289   9288   9310   9294     1  0.0000000  1.6024720  3
   9289   9292   9293   9294     1  180.0000771  0.8368000  1
   9289   9292   9293   9294     1  180.0000771  1.0460000  2
   9289   9292   9293   9294     1  0.0000000  0.7531200  3
   9289   9292   9293   9299     1  0.0000000  0.6508444  3
   9292   9289   9288   9302     1  180.0000771  0.8368000  1
   9292   9289   9288   9302     1  180.0000771  1.0460000  2
   9292   9289   9288   9302     1  0.0000000  0.7531200  3
   9292   9289   9288   9310     1  0.0000000  0.6508444  3
   9292   9293   9294   9298     1  0.0000000  0.6508444  3
   9292   9293   9294   9310     1  0.0000000  0.6508444  3
   9293   9292   9289   9301     1  0.0000000  0.6508444  3
   9294   9293   9292   9300     1  0.0000000  0.6508444  3
   9294   9310   9288   9302     1  180.0000771  0.4184000  2
   9294   9310   9288   9302     1  0.0000000  1.6024720  3
   9298   9294   9293   9299     1  0.0000000  4.9162000  2
   9298   9294   9293   9299     1  0.0000000  0.6024960  3
   9299   9293   9292   9300     1  0.0000000  4.9162000  2
   9299   9293   9292   9300     1  0.0000000  0.6024960  3
   9299   9293   9294   9310     1  0.0000000  4.9162000  2
   9299   9293   9294   9310     1  0.0000000  0.6024960  3
   9300   9292   9289   9301     1  0.0000000  4.9162000  2
   9300   9292   9289   9301     1  0.0000000  0.6024960  3
   9301   9289   9288   9302     1  0.0000000  0.6508444  3
   9301   9289   9288   9310     1  0.0000000  4.9162000  2
   9301   9289   9288   9310     1  0.0000000  0.6024960  3
   9308   9302   9288   9310     1  0.0000000  4.9162000  2
   9308   9302   9288   9310     1  0.0000000  0.6024960  3
   9311   9312   9315   9316     1  180.0000771  0.8368000  1
   9311   9312   9315   9316     1  180.0000771  1.0460000  2
   9311   9312   9315   9316     1  0.0000000  0.7531200  3
   9311   9312   9315   9323     1  0.0000000  0.6508444  3
   9311   9333   9317   9321     1  180.0000771  5.6484000  1
   9311   9333   9317   9321     1  180.0000771  3.5564000  2
   9311   9333   9317   9321     1  0.0000000  0.4184000  3
   9311   9333   9317   9316     1  180.0000771  0.4184000  2
   9311   9333   9317   9316     1  0.0000000  1.6024720  3
   9312   9315   9316   9317     1  180.0000771  0.8368000  1
   9312   9315   9316   9317     1  180.0000771  1.0460000  2
   9312   9315   9316   9317     1  0.0000000  0.7531200  3
   9312   9315   9316   9322     1  0.0000000  0.6508444  3
   9312   9311   9325   9331     1  0.0000000  0.6508444  3
   9312   9311   9333   9317     1  180.0000771  0.4184000  2
   9312   9311   9333   9317     1  0.0000000  1.6024720  3
   9315   9316   9317   9321     1  0.0000000  0.6508444  3
   9315   9316   9317   9333     1  0.0000000  0.6508444  3
   9315   9312   9311   9325     1  180.0000771  0.8368000  1
   9315   9312   9311   9325     1  180.0000771  1.0460000  2
   9315   9312   9311   9325     1  0.0000000  0.7531200  3
   9315   9312   9311   9333     1  0.0000000  0.6508444  3
   9316   9315   9312   9324     1  0.0000000  0.6508444  3
   9317   9333   9311   9325     1  180.0000771  0.4184000  2
   9317   9333   9311   9325     1  0.0000000  1.6024720  3
   9317   9316   9315   9323     1  0.0000000  0.6508444  3
   9321   9317   9316   9322     1  0.0000000  4.9162000  2
   9321   9317   9316   9322     1  0.0000000  0.6024960  3
   9322   9316   9317   9333     1  0.0000000  4.9162000  2
   9322   9316   9317   9333     1  0.0000000  0.6024960  3
   9322   9316   9315   9323     1  0.0000000  4.9162000  2
   9322   9316   9315   9323     1  0.0000000  0.6024960  3
   9323   9315   9312   9324     1  0.0000000  4.9162000  2
   9323   9315   9312   9324     1  0.0000000  0.6024960  3
   9324   9312   9311   9325     1  0.0000000  0.6508444  3
   9324   9312   9311   9333     1  0.0000000  4.9162000  2
   9324   9312   9311   9333     1  0.0000000  0.6024960  3
   9331   9325   9311   9333     1  0.0000000  4.9162000  2
   9331   9325   9311   9333     1  0.0000000  0.6024960  3
   9334   9335   9338   9339     1  180.0000771  0.8368000  1
   9334   9335   9338   9339     1  180.0000771  1.0460000  2
   9334   9335   9338   9339     1  0.0000000  0.7531200  3
   9334   9335   9338   9346     1  0.0000000  0.6508444  3
   9334   9356   9340   9339     1  180.0000771  0.4184000  2
   9334   9356   9340   9339     1  0.0000000  1.6024720  3
   9334   9356   9340   9344     1  180.0000771  5.6484000  1
   9334   9356   9340   9344     1  180.0000771  3.5564000  2
   9334   9356   9340   9344     1  0.0000000  0.4184000  3
   9335   9334   9348   9354     1  0.0000000  0.6508444  3
   9335   9334   9356   9340     1  180.0000771  0.4184000  2
   9335   9334   9356   9340     1  0.0000000  1.6024720  3
   9335   9338   9339   9340     1  180.0000771  0.8368000  1
   9335   9338   9339   9340     1  180.0000771  1.0460000  2
   9335   9338   9339   9340     1  0.0000000  0.7531200  3
   9335   9338   9339   9345     1  0.0000000  0.6508444  3
   9338   9335   9334   9348     1  180.0000771  0.8368000  1
   9338   9335   9334   9348     1  180.0000771  1.0460000  2
   9338   9335   9334   9348     1  0.0000000  0.7531200  3
   9338   9335   9334   9356     1  0.0000000  0.6508444  3
   9338   9339   9340   9344     1  0.0000000  0.6508444  3
   9338   9339   9340   9356     1  0.0000000  0.6508444  3
   9339   9338   9335   9347     1  0.0000000  0.6508444  3
   9340   9339   9338   9346     1  0.0000000  0.6508444  3
   9340   9356   9334   9348     1  180.0000771  0.4184000  2
   9340   9356   9334   9348     1  0.0000000  1.6024720  3
   9344   9340   9339   9345     1  0.0000000  4.9162000  2
   9344   9340   9339   9345     1  0.0000000  0.6024960  3
   9345   9339   9338   9346     1  0.0000000  4.9162000  2
   9345   9339   9338   9346     1  0.0000000  0.6024960  3
   9345   9339   9340   9356     1  0.0000000  4.9162000  2
   9345   9339   9340   9356     1  0.0000000  0.6024960  3
   9346   9338   9335   9347     1  0.0000000  4.9162000  2
   9346   9338   9335   9347     1  0.0000000  0.6024960  3
   9347   9335   9334   9348     1  0.0000000  0.6508444  3
   9347   9335   9334   9356     1  0.0000000  4.9162000  2
   9347   9335   9334   9356     1  0.0000000  0.6024960  3
   9354   9348   9334   9356     1  0.0000000  4.9162000  2
   9354   9348   9334   9356     1  0.0000000  0.6024960  3
   9357   9358   9361   9362     1  180.0000771  0.8368000  1
   9357   9358   9361   9362     1  180.0000771  1.0460000  2
   9357   9358   9361   9362     1  0.0000000  0.7531200  3
   9357   9358   9361   9369     1  0.0000000  0.6508444  3
   9357   9379   9363   9367     1  180.0000771  5.6484000  1
   9357   9379   9363   9367     1  180.0000771  3.5564000  2
   9357   9379   9363   9367     1  0.0000000  0.4184000  3
   9357   9379   9363   9362     1  180.0000771  0.4184000  2
   9357   9379   9363   9362     1  0.0000000  1.6024720  3
   9358   9361   9362   9363     1  180.0000771  0.8368000  1
   9358   9361   9362   9363     1  180.0000771  1.0460000  2
   9358   9361   9362   9363     1  0.0000000  0.7531200  3
   9358   9361   9362   9368     1  0.0000000  0.6508444  3
   9358   9357   9371   9377     1  0.0000000  0.6508444  3
   9358   9357   9379   9363     1  180.0000771  0.4184000  2
   9358   9357   9379   9363     1  0.0000000  1.6024720  3
   9361   9362   9363   9367     1  0.0000000  0.6508444  3
   9361   9362   9363   9379     1  0.0000000  0.6508444  3
   9361   9358   9357   9371     1  180.0000771  0.8368000  1
   9361   9358   9357   9371     1  180.0000771  1.0460000  2
   9361   9358   9357   9371     1  0.0000000  0.7531200  3
   9361   9358   9357   9379     1  0.0000000  0.6508444  3
   9362   9361   9358   9370     1  0.0000000  0.6508444  3
   9363   9379   9357   9371     1  180.0000771  0.4184000  2
   9363   9379   9357   9371     1  0.0000000  1.6024720  3
   9363   9362   9361   9369     1  0.0000000  0.6508444  3
   9367   9363   9362   9368     1  0.0000000  4.9162000  2
   9367   9363   9362   9368     1  0.0000000  0.6024960  3
   9368   9362   9363   9379     1  0.0000000  4.9162000  2
   9368   9362   9363   9379     1  0.0000000  0.6024960  3
   9368   9362   9361   9369     1  0.0000000  4.9162000  2
   9368   9362   9361   9369     1  0.0000000  0.6024960  3
   9369   9361   9358   9370     1  0.0000000  4.9162000  2
   9369   9361   9358   9370     1  0.0000000  0.6024960  3
   9370   9358   9357   9371     1  0.0000000  0.6508444  3
   9370   9358   9357   9379     1  0.0000000  4.9162000  2
   9370   9358   9357   9379     1  0.0000000  0.6024960  3
   9377   9371   9357   9379     1  0.0000000  4.9162000  2
   9377   9371   9357   9379     1  0.0000000  0.6024960  3
   9380   9381   9384   9385     1  180.0000771  0.8368000  1
   9380   9381   9384   9385     1  180.0000771  1.0460000  2
   9380   9381   9384   9385     1  0.0000000  0.7531200  3
   9380   9381   9384   9392     1  0.0000000  0.6508444  3
   9380   9402   9386   9385     1  180.0000771  0.4184000  2
   9380   9402   9386   9385     1  0.0000000  1.6024720  3
   9380   9402   9386   9390     1  180.0000771  5.6484000  1
   9380   9402   9386   9390     1  180.0000771  3.5564000  2
   9380   9402   9386   9390     1  0.0000000  0.4184000  3
   9381   9380   9394   9400     1  0.0000000  0.6508444  3
   9381   9380   9402   9386     1  180.0000771  0.4184000  2
   9381   9380   9402   9386     1  0.0000000  1.6024720  3
   9381   9384   9385   9386     1  180.0000771  0.8368000  1
   9381   9384   9385   9386     1  180.0000771  1.0460000  2
   9381   9384   9385   9386     1  0.0000000  0.7531200  3
   9381   9384   9385   9391     1  0.0000000  0.6508444  3
   9384   9381   9380   9394     1  180.0000771  0.8368000  1
   9384   9381   9380   9394     1  180.0000771  1.0460000  2
   9384   9381   9380   9394     1  0.0000000  0.7531200  3
   9384   9381   9380   9402     1  0.0000000  0.6508444  3
   9384   9385   9386   9390     1  0.0000000  0.6508444  3
   9384   9385   9386   9402     1  0.0000000  0.6508444  3
   9385   9384   9381   9393     1  0.0000000  0.6508444  3
   9386   9385   9384   9392     1  0.0000000  0.6508444  3
   9386   9402   9380   9394     1  180.0000771  0.4184000  2
   9386   9402   9380   9394     1  0.0000000  1.6024720  3
   9390   9386   9385   9391     1  0.0000000  4.9162000  2
   9390   9386   9385   9391     1  0.0000000  0.6024960  3
   9391   9385   9384   9392     1  0.0000000  4.9162000  2
   9391   9385   9384   9392     1  0.0000000  0.6024960  3
   9391   9385   9386   9402     1  0.0000000  4.9162000  2
   9391   9385   9386   9402     1  0.0000000  0.6024960  3
   9392   9384   9381   9393     1  0.0000000  4.9162000  2
   9392   9384   9381   9393     1  0.0000000  0.6024960  3
   9393   9381   9380   9394     1  0.0000000  0.6508444  3
   9393   9381   9380   9402     1  0.0000000  4.9162000  2
   9393   9381   9380   9402     1  0.0000000  0.6024960  3
   9400   9394   9380   9402     1  0.0000000  4.9162000  2
   9400   9394   9380   9402     1  0.0000000  0.6024960  3
   9403   9404   9407   9408     1  180.0000771  0.8368000  1
   9403   9404   9407   9408     1  180.0000771  1.0460000  2
   9403   9404   9407   9408     1  0.0000000  0.7531200  3
   9403   9404   9407   9415     1  0.0000000  0.6508444  3
   9403   9425   9409   9413     1  180.0000771  5.6484000  1
   9403   9425   9409   9413     1  180.0000771  3.5564000  2
   9403   9425   9409   9413     1  0.0000000  0.4184000  3
   9403   9425   9409   9408     1  180.0000771  0.4184000  2
   9403   9425   9409   9408     1  0.0000000  1.6024720  3
   9404   9407   9408   9409     1  180.0000771  0.8368000  1
   9404   9407   9408   9409     1  180.0000771  1.0460000  2
   9404   9407   9408   9409     1  0.0000000  0.7531200  3
   9404   9407   9408   9414     1  0.0000000  0.6508444  3
   9404   9403   9417   9423     1  0.0000000  0.6508444  3
   9404   9403   9425   9409     1  180.0000771  0.4184000  2
   9404   9403   9425   9409     1  0.0000000  1.6024720  3
   9407   9408   9409   9413     1  0.0000000  0.6508444  3
   9407   9408   9409   9425     1  0.0000000  0.6508444  3
   9407   9404   9403   9417     1  180.0000771  0.8368000  1
   9407   9404   9403   9417     1  180.0000771  1.0460000  2
   9407   9404   9403   9417     1  0.0000000  0.7531200  3
   9407   9404   9403   9425     1  0.0000000  0.6508444  3
   9408   9407   9404   9416     1  0.0000000  0.6508444  3
   9409   9425   9403   9417     1  180.0000771  0.4184000  2
   9409   9425   9403   9417     1  0.0000000  1.6024720  3
   9409   9408   9407   9415     1  0.0000000  0.6508444  3
   9413   9409   9408   9414     1  0.0000000  4.9162000  2
   9413   9409   9408   9414     1  0.0000000  0.6024960  3
   9414   9408   9409   9425     1  0.0000000  4.9162000  2
   9414   9408   9409   9425     1  0.0000000  0.6024960  3
   9414   9408   9407   9415     1  0.0000000  4.9162000  2
   9414   9408   9407   9415     1  0.0000000  0.6024960  3
   9415   9407   9404   9416     1  0.0000000  4.9162000  2
   9415   9407   9404   9416     1  0.0000000  0.6024960  3
   9416   9404   9403   9417     1  0.0000000  0.6508444  3
   9416   9404   9403   9425     1  0.0000000  4.9162000  2
   9416   9404   9403   9425     1  0.0000000  0.6024960  3
   9423   9417   9403   9425     1  0.0000000  4.9162000  2
   9423   9417   9403   9425     1  0.0000000  0.6024960  3
   9426   9427   9430   9431     1  180.0000771  0.8368000  1
   9426   9427   9430   9431     1  180.0000771  1.0460000  2
   9426   9427   9430   9431     1  0.0000000  0.7531200  3
   9426   9427   9430   9438     1  0.0000000  0.6508444  3
   9426   9448   9432   9431     1  180.0000771  0.4184000  2
   9426   9448   9432   9431     1  0.0000000  1.6024720  3
   9426   9448   9432   9436     1  180.0000771  5.6484000  1
   9426   9448   9432   9436     1  180.0000771  3.5564000  2
   9426   9448   9432   9436     1  0.0000000  0.4184000  3
   9427   9426   9440   9446     1  0.0000000  0.6508444  3
   9427   9426   9448   9432     1  180.0000771  0.4184000  2
   9427   9426   9448   9432     1  0.0000000  1.6024720  3
   9427   9430   9431   9432     1  180.0000771  0.8368000  1
   9427   9430   9431   9432     1  180.0000771  1.0460000  2
   9427   9430   9431   9432     1  0.0000000  0.7531200  3
   9427   9430   9431   9437     1  0.0000000  0.6508444  3
   9430   9427   9426   9440     1  180.0000771  0.8368000  1
   9430   9427   9426   9440     1  180.0000771  1.0460000  2
   9430   9427   9426   9440     1  0.0000000  0.7531200  3
   9430   9427   9426   9448     1  0.0000000  0.6508444  3
   9430   9431   9432   9436     1  0.0000000  0.6508444  3
   9430   9431   9432   9448     1  0.0000000  0.6508444  3
   9431   9430   9427   9439     1  0.0000000  0.6508444  3
   9432   9431   9430   9438     1  0.0000000  0.6508444  3
   9432   9448   9426   9440     1  180.0000771  0.4184000  2
   9432   9448   9426   9440     1  0.0000000  1.6024720  3
   9436   9432   9431   9437     1  0.0000000  4.9162000  2
   9436   9432   9431   9437     1  0.0000000  0.6024960  3
   9437   9431   9430   9438     1  0.0000000  4.9162000  2
   9437   9431   9430   9438     1  0.0000000  0.6024960  3
   9437   9431   9432   9448     1  0.0000000  4.9162000  2
   9437   9431   9432   9448     1  0.0000000  0.6024960  3
   9438   9430   9427   9439     1  0.0000000  4.9162000  2
   9438   9430   9427   9439     1  0.0000000  0.6024960  3
   9439   9427   9426   9440     1  0.0000000  0.6508444  3
   9439   9427   9426   9448     1  0.0000000  4.9162000  2
   9439   9427   9426   9448     1  0.0000000  0.6024960  3
   9446   9440   9426   9448     1  0.0000000  4.9162000  2
   9446   9440   9426   9448     1  0.0000000  0.6024960  3
   9449   9450   9453   9454     1  180.0000771  0.8368000  1
   9449   9450   9453   9454     1  180.0000771  1.0460000  2
   9449   9450   9453   9454     1  0.0000000  0.7531200  3
   9449   9450   9453   9461     1  0.0000000  0.6508444  3
   9449   9471   9455   9459     1  180.0000771  5.6484000  1
   9449   9471   9455   9459     1  180.0000771  3.5564000  2
   9449   9471   9455   9459     1  0.0000000  0.4184000  3
   9449   9471   9455   9454     1  180.0000771  0.4184000  2
   9449   9471   9455   9454     1  0.0000000  1.6024720  3
   9450   9453   9454   9455     1  180.0000771  0.8368000  1
   9450   9453   9454   9455     1  180.0000771  1.0460000  2
   9450   9453   9454   9455     1  0.0000000  0.7531200  3
   9450   9453   9454   9460     1  0.0000000  0.6508444  3
   9450   9449   9463   9469     1  0.0000000  0.6508444  3
   9450   9449   9471   9455     1  180.0000771  0.4184000  2
   9450   9449   9471   9455     1  0.0000000  1.6024720  3
   9453   9454   9455   9459     1  0.0000000  0.6508444  3
   9453   9454   9455   9471     1  0.0000000  0.6508444  3
   9453   9450   9449   9463     1  180.0000771  0.8368000  1
   9453   9450   9449   9463     1  180.0000771  1.0460000  2
   9453   9450   9449   9463     1  0.0000000  0.7531200  3
   9453   9450   9449   9471     1  0.0000000  0.6508444  3
   9454   9453   9450   9462     1  0.0000000  0.6508444  3
   9455   9471   9449   9463     1  180.0000771  0.4184000  2
   9455   9471   9449   9463     1  0.0000000  1.6024720  3
   9455   9454   9453   9461     1  0.0000000  0.6508444  3
   9459   9455   9454   9460     1  0.0000000  4.9162000  2
   9459   9455   9454   9460     1  0.0000000  0.6024960  3
   9460   9454   9455   9471     1  0.0000000  4.9162000  2
   9460   9454   9455   9471     1  0.0000000  0.6024960  3
   9460   9454   9453   9461     1  0.0000000  4.9162000  2
   9460   9454   9453   9461     1  0.0000000  0.6024960  3
   9461   9453   9450   9462     1  0.0000000  4.9162000  2
   9461   9453   9450   9462     1  0.0000000  0.6024960  3
   9462   9450   9449   9463     1  0.0000000  0.6508444  3
   9462   9450   9449   9471     1  0.0000000  4.9162000  2
   9462   9450   9449   9471     1  0.0000000  0.6024960  3
   9469   9463   9449   9471     1  0.0000000  4.9162000  2
   9469   9463   9449   9471     1  0.0000000  0.6024960  3
   9472   9473   9476   9477     1  180.0000771  0.8368000  1
   9472   9473   9476   9477     1  180.0000771  1.0460000  2
   9472   9473   9476   9477     1  0.0000000  0.7531200  3
   9472   9473   9476   9484     1  0.0000000  0.6508444  3
   9472   9494   9478   9477     1  180.0000771  0.4184000  2
   9472   9494   9478   9477     1  0.0000000  1.6024720  3
   9472   9494   9478   9482     1  180.0000771  5.6484000  1
   9472   9494   9478   9482     1  180.0000771  3.5564000  2
   9472   9494   9478   9482     1  0.0000000  0.4184000  3
   9473   9472   9486   9492     1  0.0000000  0.6508444  3
   9473   9472   9494   9478     1  180.0000771  0.4184000  2
   9473   9472   9494   9478     1  0.0000000  1.6024720  3
   9473   9476   9477   9478     1  180.0000771  0.8368000  1
   9473   9476   9477   9478     1  180.0000771  1.0460000  2
   9473   9476   9477   9478     1  0.0000000  0.7531200  3
   9473   9476   9477   9483     1  0.0000000  0.6508444  3
   9476   9473   9472   9486     1  180.0000771  0.8368000  1
   9476   9473   9472   9486     1  180.0000771  1.0460000  2
   9476   9473   9472   9486     1  0.0000000  0.7531200  3
   9476   9473   9472   9494     1  0.0000000  0.6508444  3
   9476   9477   9478   9482     1  0.0000000  0.6508444  3
   9476   9477   9478   9494     1  0.0000000  0.6508444  3
   9477   9476   9473   9485     1  0.0000000  0.6508444  3
   9478   9477   9476   9484     1  0.0000000  0.6508444  3
   9478   9494   9472   9486     1  180.0000771  0.4184000  2
   9478   9494   9472   9486     1  0.0000000  1.6024720  3
   9482   9478   9477   9483     1  0.0000000  4.9162000  2
   9482   9478   9477   9483     1  0.0000000  0.6024960  3
   9483   9477   9476   9484     1  0.0000000  4.9162000  2
   9483   9477   9476   9484     1  0.0000000  0.6024960  3
   9483   9477   9478   9494     1  0.0000000  4.9162000  2
   9483   9477   9478   9494     1  0.0000000  0.6024960  3
   9484   9476   9473   9485     1  0.0000000  4.9162000  2
   9484   9476   9473   9485     1  0.0000000  0.6024960  3
   9485   9473   9472   9486     1  0.0000000  0.6508444  3
   9485   9473   9472   9494     1  0.0000000  4.9162000  2
   9485   9473   9472   9494     1  0.0000000  0.6024960  3
   9492   9486   9472   9494     1  0.0000000  4.9162000  2
   9492   9486   9472   9494     1  0.0000000  0.6024960  3
   9495   9496   9499   9500     1  180.0000771  0.8368000  1
   9495   9496   9499   9500     1  180.0000771  1.0460000  2
   9495   9496   9499   9500     1  0.0000000  0.7531200  3
   9495   9496   9499   9507     1  0.0000000  0.6508444  3
   9495   9517   9501   9505     1  180.0000771  5.6484000  1
   9495   9517   9501   9505     1  180.0000771  3.5564000  2
   9495   9517   9501   9505     1  0.0000000  0.4184000  3
   9495   9517   9501   9500     1  180.0000771  0.4184000  2
   9495   9517   9501   9500     1  0.0000000  1.6024720  3
   9496   9499   9500   9501     1  180.0000771  0.8368000  1
   9496   9499   9500   9501     1  180.0000771  1.0460000  2
   9496   9499   9500   9501     1  0.0000000  0.7531200  3
   9496   9499   9500   9506     1  0.0000000  0.6508444  3
   9496   9495   9509   9515     1  0.0000000  0.6508444  3
   9496   9495   9517   9501     1  180.0000771  0.4184000  2
   9496   9495   9517   9501     1  0.0000000  1.6024720  3
   9499   9500   9501   9505     1  0.0000000  0.6508444  3
   9499   9500   9501   9517     1  0.0000000  0.6508444  3
   9499   9496   9495   9509     1  180.0000771  0.8368000  1
   9499   9496   9495   9509     1  180.0000771  1.0460000  2
   9499   9496   9495   9509     1  0.0000000  0.7531200  3
   9499   9496   9495   9517     1  0.0000000  0.6508444  3
   9500   9499   9496   9508     1  0.0000000  0.6508444  3
   9501   9517   9495   9509     1  180.0000771  0.4184000  2
   9501   9517   9495   9509     1  0.0000000  1.6024720  3
   9501   9500   9499   9507     1  0.0000000  0.6508444  3
   9505   9501   9500   9506     1  0.0000000  4.9162000  2
   9505   9501   9500   9506     1  0.0000000  0.6024960  3
   9506   9500   9501   9517     1  0.0000000  4.9162000  2
   9506   9500   9501   9517     1  0.0000000  0.6024960  3
   9506   9500   9499   9507     1  0.0000000  4.9162000  2
   9506   9500   9499   9507     1  0.0000000  0.6024960  3
   9507   9499   9496   9508     1  0.0000000  4.9162000  2
   9507   9499   9496   9508     1  0.0000000  0.6024960  3
   9508   9496   9495   9509     1  0.0000000  0.6508444  3
   9508   9496   9495   9517     1  0.0000000  4.9162000  2
   9508   9496   9495   9517     1  0.0000000  0.6024960  3
   9515   9509   9495   9517     1  0.0000000  4.9162000  2
   9515   9509   9495   9517     1  0.0000000  0.6024960  3
   9518   9519   9522   9523     1  180.0000771  0.8368000  1
   9518   9519   9522   9523     1  180.0000771  1.0460000  2
   9518   9519   9522   9523     1  0.0000000  0.7531200  3
   9518   9519   9522   9530     1  0.0000000  0.6508444  3
   9518   9540   9524   9523     1  180.0000771  0.4184000  2
   9518   9540   9524   9523     1  0.0000000  1.6024720  3
   9518   9540   9524   9528     1  180.0000771  5.6484000  1
   9518   9540   9524   9528     1  180.0000771  3.5564000  2
   9518   9540   9524   9528     1  0.0000000  0.4184000  3
   9519   9518   9532   9538     1  0.0000000  0.6508444  3
   9519   9518   9540   9524     1  180.0000771  0.4184000  2
   9519   9518   9540   9524     1  0.0000000  1.6024720  3
   9519   9522   9523   9524     1  180.0000771  0.8368000  1
   9519   9522   9523   9524     1  180.0000771  1.0460000  2
   9519   9522   9523   9524     1  0.0000000  0.7531200  3
   9519   9522   9523   9529     1  0.0000000  0.6508444  3
   9522   9519   9518   9532     1  180.0000771  0.8368000  1
   9522   9519   9518   9532     1  180.0000771  1.0460000  2
   9522   9519   9518   9532     1  0.0000000  0.7531200  3
   9522   9519   9518   9540     1  0.0000000  0.6508444  3
   9522   9523   9524   9528     1  0.0000000  0.6508444  3
   9522   9523   9524   9540     1  0.0000000  0.6508444  3
   9523   9522   9519   9531     1  0.0000000  0.6508444  3
   9524   9523   9522   9530     1  0.0000000  0.6508444  3
   9524   9540   9518   9532     1  180.0000771  0.4184000  2
   9524   9540   9518   9532     1  0.0000000  1.6024720  3
   9528   9524   9523   9529     1  0.0000000  4.9162000  2
   9528   9524   9523   9529     1  0.0000000  0.6024960  3
   9529   9523   9522   9530     1  0.0000000  4.9162000  2
   9529   9523   9522   9530     1  0.0000000  0.6024960  3
   9529   9523   9524   9540     1  0.0000000  4.9162000  2
   9529   9523   9524   9540     1  0.0000000  0.6024960  3
   9530   9522   9519   9531     1  0.0000000  4.9162000  2
   9530   9522   9519   9531     1  0.0000000  0.6024960  3
   9531   9519   9518   9532     1  0.0000000  0.6508444  3
   9531   9519   9518   9540     1  0.0000000  4.9162000  2
   9531   9519   9518   9540     1  0.0000000  0.6024960  3
   9538   9532   9518   9540     1  0.0000000  4.9162000  2
   9538   9532   9518   9540     1  0.0000000  0.6024960  3
   9541   9542   9545   9546     1  180.0000771  0.8368000  1
   9541   9542   9545   9546     1  180.0000771  1.0460000  2
   9541   9542   9545   9546     1  0.0000000  0.7531200  3
   9541   9542   9545   9553     1  0.0000000  0.6508444  3
   9541   9563   9547   9551     1  180.0000771  5.6484000  1
   9541   9563   9547   9551     1  180.0000771  3.5564000  2
   9541   9563   9547   9551     1  0.0000000  0.4184000  3
   9541   9563   9547   9546     1  180.0000771  0.4184000  2
   9541   9563   9547   9546     1  0.0000000  1.6024720  3
   9542   9545   9546   9547     1  180.0000771  0.8368000  1
   9542   9545   9546   9547     1  180.0000771  1.0460000  2
   9542   9545   9546   9547     1  0.0000000  0.7531200  3
   9542   9545   9546   9552     1  0.0000000  0.6508444  3
   9542   9541   9555   9561     1  0.0000000  0.6508444  3
   9542   9541   9563   9547     1  180.0000771  0.4184000  2
   9542   9541   9563   9547     1  0.0000000  1.6024720  3
   9545   9546   9547   9551     1  0.0000000  0.6508444  3
   9545   9546   9547   9563     1  0.0000000  0.6508444  3
   9545   9542   9541   9555     1  180.0000771  0.8368000  1
   9545   9542   9541   9555     1  180.0000771  1.0460000  2
   9545   9542   9541   9555     1  0.0000000  0.7531200  3
   9545   9542   9541   9563     1  0.0000000  0.6508444  3
   9546   9545   9542   9554     1  0.0000000  0.6508444  3
   9547   9563   9541   9555     1  180.0000771  0.4184000  2
   9547   9563   9541   9555     1  0.0000000  1.6024720  3
   9547   9546   9545   9553     1  0.0000000  0.6508444  3
   9551   9547   9546   9552     1  0.0000000  4.9162000  2
   9551   9547   9546   9552     1  0.0000000  0.6024960  3
   9552   9546   9547   9563     1  0.0000000  4.9162000  2
   9552   9546   9547   9563     1  0.0000000  0.6024960  3
   9552   9546   9545   9553     1  0.0000000  4.9162000  2
   9552   9546   9545   9553     1  0.0000000  0.6024960  3
   9553   9545   9542   9554     1  0.0000000  4.9162000  2
   9553   9545   9542   9554     1  0.0000000  0.6024960  3
   9554   9542   9541   9555     1  0.0000000  0.6508444  3
   9554   9542   9541   9563     1  0.0000000  4.9162000  2
   9554   9542   9541   9563     1  0.0000000  0.6024960  3
   9561   9555   9541   9563     1  0.0000000  4.9162000  2
   9561   9555   9541   9563     1  0.0000000  0.6024960  3
   9564   9565   9568   9569     1  180.0000771  0.8368000  1
   9564   9565   9568   9569     1  180.0000771  1.0460000  2
   9564   9565   9568   9569     1  0.0000000  0.7531200  3
   9564   9565   9568   9576     1  0.0000000  0.6508444  3
   9564   9586   9570   9569     1  180.0000771  0.4184000  2
   9564   9586   9570   9569     1  0.0000000  1.6024720  3
   9564   9586   9570   9574     1  180.0000771  5.6484000  1
   9564   9586   9570   9574     1  180.0000771  3.5564000  2
   9564   9586   9570   9574     1  0.0000000  0.4184000  3
   9565   9564   9578   9584     1  0.0000000  0.6508444  3
   9565   9564   9586   9570     1  180.0000771  0.4184000  2
   9565   9564   9586   9570     1  0.0000000  1.6024720  3
   9565   9568   9569   9570     1  180.0000771  0.8368000  1
   9565   9568   9569   9570     1  180.0000771  1.0460000  2
   9565   9568   9569   9570     1  0.0000000  0.7531200  3
   9565   9568   9569   9575     1  0.0000000  0.6508444  3
   9568   9565   9564   9578     1  180.0000771  0.8368000  1
   9568   9565   9564   9578     1  180.0000771  1.0460000  2
   9568   9565   9564   9578     1  0.0000000  0.7531200  3
   9568   9565   9564   9586     1  0.0000000  0.6508444  3
   9568   9569   9570   9574     1  0.0000000  0.6508444  3
   9568   9569   9570   9586     1  0.0000000  0.6508444  3
   9569   9568   9565   9577     1  0.0000000  0.6508444  3
   9570   9569   9568   9576     1  0.0000000  0.6508444  3
   9570   9586   9564   9578     1  180.0000771  0.4184000  2
   9570   9586   9564   9578     1  0.0000000  1.6024720  3
   9574   9570   9569   9575     1  0.0000000  4.9162000  2
   9574   9570   9569   9575     1  0.0000000  0.6024960  3
   9575   9569   9568   9576     1  0.0000000  4.9162000  2
   9575   9569   9568   9576     1  0.0000000  0.6024960  3
   9575   9569   9570   9586     1  0.0000000  4.9162000  2
   9575   9569   9570   9586     1  0.0000000  0.6024960  3
   9576   9568   9565   9577     1  0.0000000  4.9162000  2
   9576   9568   9565   9577     1  0.0000000  0.6024960  3
   9577   9565   9564   9578     1  0.0000000  0.6508444  3
   9577   9565   9564   9586     1  0.0000000  4.9162000  2
   9577   9565   9564   9586     1  0.0000000  0.6024960  3
   9584   9578   9564   9586     1  0.0000000  4.9162000  2
   9584   9578   9564   9586     1  0.0000000  0.6024960  3
   9587   9588   9591   9592     1  180.0000771  0.8368000  1
   9587   9588   9591   9592     1  180.0000771  1.0460000  2
   9587   9588   9591   9592     1  0.0000000  0.7531200  3
   9587   9588   9591   9599     1  0.0000000  0.6508444  3
   9587   9609   9593   9597     1  180.0000771  5.6484000  1
   9587   9609   9593   9597     1  180.0000771  3.5564000  2
   9587   9609   9593   9597     1  0.0000000  0.4184000  3
   9587   9609   9593   9592     1  180.0000771  0.4184000  2
   9587   9609   9593   9592     1  0.0000000  1.6024720  3
   9588   9591   9592   9593     1  180.0000771  0.8368000  1
   9588   9591   9592   9593     1  180.0000771  1.0460000  2
   9588   9591   9592   9593     1  0.0000000  0.7531200  3
   9588   9591   9592   9598     1  0.0000000  0.6508444  3
   9588   9587   9601   9607     1  0.0000000  0.6508444  3
   9588   9587   9609   9593     1  180.0000771  0.4184000  2
   9588   9587   9609   9593     1  0.0000000  1.6024720  3
   9591   9592   9593   9597     1  0.0000000  0.6508444  3
   9591   9592   9593   9609     1  0.0000000  0.6508444  3
   9591   9588   9587   9601     1  180.0000771  0.8368000  1
   9591   9588   9587   9601     1  180.0000771  1.0460000  2
   9591   9588   9587   9601     1  0.0000000  0.7531200  3
   9591   9588   9587   9609     1  0.0000000  0.6508444  3
   9592   9591   9588   9600     1  0.0000000  0.6508444  3
   9593   9609   9587   9601     1  180.0000771  0.4184000  2
   9593   9609   9587   9601     1  0.0000000  1.6024720  3
   9593   9592   9591   9599     1  0.0000000  0.6508444  3
   9597   9593   9592   9598     1  0.0000000  4.9162000  2
   9597   9593   9592   9598     1  0.0000000  0.6024960  3
   9598   9592   9593   9609     1  0.0000000  4.9162000  2
   9598   9592   9593   9609     1  0.0000000  0.6024960  3
   9598   9592   9591   9599     1  0.0000000  4.9162000  2
   9598   9592   9591   9599     1  0.0000000  0.6024960  3
   9599   9591   9588   9600     1  0.0000000  4.9162000  2
   9599   9591   9588   9600     1  0.0000000  0.6024960  3
   9600   9588   9587   9601     1  0.0000000  0.6508444  3
   9600   9588   9587   9609     1  0.0000000  4.9162000  2
   9600   9588   9587   9609     1  0.0000000  0.6024960  3
   9607   9601   9587   9609     1  0.0000000  4.9162000  2
   9607   9601   9587   9609     1  0.0000000  0.6024960  3
   9610   9611   9614   9615     1  180.0000771  0.8368000  1
   9610   9611   9614   9615     1  180.0000771  1.0460000  2
   9610   9611   9614   9615     1  0.0000000  0.7531200  3
   9610   9611   9614   9622     1  0.0000000  0.6508444  3
   9610   9632   9616   9615     1  180.0000771  0.4184000  2
   9610   9632   9616   9615     1  0.0000000  1.6024720  3
   9610   9632   9616   9620     1  180.0000771  5.6484000  1
   9610   9632   9616   9620     1  180.0000771  3.5564000  2
   9610   9632   9616   9620     1  0.0000000  0.4184000  3
   9611   9610   9624   9630     1  0.0000000  0.6508444  3
   9611   9610   9632   9616     1  180.0000771  0.4184000  2
   9611   9610   9632   9616     1  0.0000000  1.6024720  3
   9611   9614   9615   9616     1  180.0000771  0.8368000  1
   9611   9614   9615   9616     1  180.0000771  1.0460000  2
   9611   9614   9615   9616     1  0.0000000  0.7531200  3
   9611   9614   9615   9621     1  0.0000000  0.6508444  3
   9614   9611   9610   9624     1  180.0000771  0.8368000  1
   9614   9611   9610   9624     1  180.0000771  1.0460000  2
   9614   9611   9610   9624     1  0.0000000  0.7531200  3
   9614   9611   9610   9632     1  0.0000000  0.6508444  3
   9614   9615   9616   9620     1  0.0000000  0.6508444  3
   9614   9615   9616   9632     1  0.0000000  0.6508444  3
   9615   9614   9611   9623     1  0.0000000  0.6508444  3
   9616   9615   9614   9622     1  0.0000000  0.6508444  3
   9616   9632   9610   9624     1  180.0000771  0.4184000  2
   9616   9632   9610   9624     1  0.0000000  1.6024720  3
   9620   9616   9615   9621     1  0.0000000  4.9162000  2
   9620   9616   9615   9621     1  0.0000000  0.6024960  3
   9621   9615   9614   9622     1  0.0000000  4.9162000  2
   9621   9615   9614   9622     1  0.0000000  0.6024960  3
   9621   9615   9616   9632     1  0.0000000  4.9162000  2
   9621   9615   9616   9632     1  0.0000000  0.6024960  3
   9622   9614   9611   9623     1  0.0000000  4.9162000  2
   9622   9614   9611   9623     1  0.0000000  0.6024960  3
   9623   9611   9610   9624     1  0.0000000  0.6508444  3
   9623   9611   9610   9632     1  0.0000000  4.9162000  2
   9623   9611   9610   9632     1  0.0000000  0.6024960  3
   9630   9624   9610   9632     1  0.0000000  4.9162000  2
   9630   9624   9610   9632     1  0.0000000  0.6024960  3
   9633   9634   9637   9638     1  180.0000771  0.8368000  1
   9633   9634   9637   9638     1  180.0000771  1.0460000  2
   9633   9634   9637   9638     1  0.0000000  0.7531200  3
   9633   9634   9637   9645     1  0.0000000  0.6508444  3
   9633   9655   9639   9643     1  180.0000771  5.6484000  1
   9633   9655   9639   9643     1  180.0000771  3.5564000  2
   9633   9655   9639   9643     1  0.0000000  0.4184000  3
   9633   9655   9639   9638     1  180.0000771  0.4184000  2
   9633   9655   9639   9638     1  0.0000000  1.6024720  3
   9634   9637   9638   9639     1  180.0000771  0.8368000  1
   9634   9637   9638   9639     1  180.0000771  1.0460000  2
   9634   9637   9638   9639     1  0.0000000  0.7531200  3
   9634   9637   9638   9644     1  0.0000000  0.6508444  3
   9634   9633   9647   9653     1  0.0000000  0.6508444  3
   9634   9633   9655   9639     1  180.0000771  0.4184000  2
   9634   9633   9655   9639     1  0.0000000  1.6024720  3
   9637   9638   9639   9643     1  0.0000000  0.6508444  3
   9637   9638   9639   9655     1  0.0000000  0.6508444  3
   9637   9634   9633   9647     1  180.0000771  0.8368000  1
   9637   9634   9633   9647     1  180.0000771  1.0460000  2
   9637   9634   9633   9647     1  0.0000000  0.7531200  3
   9637   9634   9633   9655     1  0.0000000  0.6508444  3
   9638   9637   9634   9646     1  0.0000000  0.6508444  3
   9639   9655   9633   9647     1  180.0000771  0.4184000  2
   9639   9655   9633   9647     1  0.0000000  1.6024720  3
   9639   9638   9637   9645     1  0.0000000  0.6508444  3
   9643   9639   9638   9644     1  0.0000000  4.9162000  2
   9643   9639   9638   9644     1  0.0000000  0.6024960  3
   9644   9638   9639   9655     1  0.0000000  4.9162000  2
   9644   9638   9639   9655     1  0.0000000  0.6024960  3
   9644   9638   9637   9645     1  0.0000000  4.9162000  2
   9644   9638   9637   9645     1  0.0000000  0.6024960  3
   9645   9637   9634   9646     1  0.0000000  4.9162000  2
   9645   9637   9634   9646     1  0.0000000  0.6024960  3
   9646   9634   9633   9647     1  0.0000000  0.6508444  3
   9646   9634   9633   9655     1  0.0000000  4.9162000  2
   9646   9634   9633   9655     1  0.0000000  0.6024960  3
   9653   9647   9633   9655     1  0.0000000  4.9162000  2
   9653   9647   9633   9655     1  0.0000000  0.6024960  3
   9656   9657   9660   9661     1  180.0000771  0.8368000  1
   9656   9657   9660   9661     1  180.0000771  1.0460000  2
   9656   9657   9660   9661     1  0.0000000  0.7531200  3
   9656   9657   9660   9668     1  0.0000000  0.6508444  3
   9656   9678   9662   9661     1  180.0000771  0.4184000  2
   9656   9678   9662   9661     1  0.0000000  1.6024720  3
   9656   9678   9662   9666     1  180.0000771  5.6484000  1
   9656   9678   9662   9666     1  180.0000771  3.5564000  2
   9656   9678   9662   9666     1  0.0000000  0.4184000  3
   9657   9656   9670   9676     1  0.0000000  0.6508444  3
   9657   9656   9678   9662     1  180.0000771  0.4184000  2
   9657   9656   9678   9662     1  0.0000000  1.6024720  3
   9657   9660   9661   9662     1  180.0000771  0.8368000  1
   9657   9660   9661   9662     1  180.0000771  1.0460000  2
   9657   9660   9661   9662     1  0.0000000  0.7531200  3
   9657   9660   9661   9667     1  0.0000000  0.6508444  3
   9660   9657   9656   9670     1  180.0000771  0.8368000  1
   9660   9657   9656   9670     1  180.0000771  1.0460000  2
   9660   9657   9656   9670     1  0.0000000  0.7531200  3
   9660   9657   9656   9678     1  0.0000000  0.6508444  3
   9660   9661   9662   9666     1  0.0000000  0.6508444  3
   9660   9661   9662   9678     1  0.0000000  0.6508444  3
   9661   9660   9657   9669     1  0.0000000  0.6508444  3
   9662   9661   9660   9668     1  0.0000000  0.6508444  3
   9662   9678   9656   9670     1  180.0000771  0.4184000  2
   9662   9678   9656   9670     1  0.0000000  1.6024720  3
   9666   9662   9661   9667     1  0.0000000  4.9162000  2
   9666   9662   9661   9667     1  0.0000000  0.6024960  3
   9667   9661   9660   9668     1  0.0000000  4.9162000  2
   9667   9661   9660   9668     1  0.0000000  0.6024960  3
   9667   9661   9662   9678     1  0.0000000  4.9162000  2
   9667   9661   9662   9678     1  0.0000000  0.6024960  3
   9668   9660   9657   9669     1  0.0000000  4.9162000  2
   9668   9660   9657   9669     1  0.0000000  0.6024960  3
   9669   9657   9656   9670     1  0.0000000  0.6508444  3
   9669   9657   9656   9678     1  0.0000000  4.9162000  2
   9669   9657   9656   9678     1  0.0000000  0.6024960  3
   9676   9670   9656   9678     1  0.0000000  4.9162000  2
   9676   9670   9656   9678     1  0.0000000  0.6024960  3
   9679   9680   9683   9684     1  180.0000771  0.8368000  1
   9679   9680   9683   9684     1  180.0000771  1.0460000  2
   9679   9680   9683   9684     1  0.0000000  0.7531200  3
   9679   9680   9683   9691     1  0.0000000  0.6508444  3
   9679   9701   9685   9689     1  180.0000771  5.6484000  1
   9679   9701   9685   9689     1  180.0000771  3.5564000  2
   9679   9701   9685   9689     1  0.0000000  0.4184000  3
   9679   9701   9685   9684     1  180.0000771  0.4184000  2
   9679   9701   9685   9684     1  0.0000000  1.6024720  3
   9680   9683   9684   9685     1  180.0000771  0.8368000  1
   9680   9683   9684   9685     1  180.0000771  1.0460000  2
   9680   9683   9684   9685     1  0.0000000  0.7531200  3
   9680   9683   9684   9690     1  0.0000000  0.6508444  3
   9680   9679   9693   9699     1  0.0000000  0.6508444  3
   9680   9679   9701   9685     1  180.0000771  0.4184000  2
   9680   9679   9701   9685     1  0.0000000  1.6024720  3
   9683   9684   9685   9689     1  0.0000000  0.6508444  3
   9683   9684   9685   9701     1  0.0000000  0.6508444  3
   9683   9680   9679   9693     1  180.0000771  0.8368000  1
   9683   9680   9679   9693     1  180.0000771  1.0460000  2
   9683   9680   9679   9693     1  0.0000000  0.7531200  3
   9683   9680   9679   9701     1  0.0000000  0.6508444  3
   9684   9683   9680   9692     1  0.0000000  0.6508444  3
   9685   9701   9679   9693     1  180.0000771  0.4184000  2
   9685   9701   9679   9693     1  0.0000000  1.6024720  3
   9685   9684   9683   9691     1  0.0000000  0.6508444  3
   9689   9685   9684   9690     1  0.0000000  4.9162000  2
   9689   9685   9684   9690     1  0.0000000  0.6024960  3
   9690   9684   9685   9701     1  0.0000000  4.9162000  2
   9690   9684   9685   9701     1  0.0000000  0.6024960  3
   9690   9684   9683   9691     1  0.0000000  4.9162000  2
   9690   9684   9683   9691     1  0.0000000  0.6024960  3
   9691   9683   9680   9692     1  0.0000000  4.9162000  2
   9691   9683   9680   9692     1  0.0000000  0.6024960  3
   9692   9680   9679   9693     1  0.0000000  0.6508444  3
   9692   9680   9679   9701     1  0.0000000  4.9162000  2
   9692   9680   9679   9701     1  0.0000000  0.6024960  3
   9699   9693   9679   9701     1  0.0000000  4.9162000  2
   9699   9693   9679   9701     1  0.0000000  0.6024960  3
   9702   9703   9706   9707     1  180.0000771  0.8368000  1
   9702   9703   9706   9707     1  180.0000771  1.0460000  2
   9702   9703   9706   9707     1  0.0000000  0.7531200  3
   9702   9703   9706   9714     1  0.0000000  0.6508444  3
   9702   9724   9708   9707     1  180.0000771  0.4184000  2
   9702   9724   9708   9707     1  0.0000000  1.6024720  3
   9702   9724   9708   9712     1  180.0000771  5.6484000  1
   9702   9724   9708   9712     1  180.0000771  3.5564000  2
   9702   9724   9708   9712     1  0.0000000  0.4184000  3
   9703   9702   9716   9722     1  0.0000000  0.6508444  3
   9703   9702   9724   9708     1  180.0000771  0.4184000  2
   9703   9702   9724   9708     1  0.0000000  1.6024720  3
   9703   9706   9707   9708     1  180.0000771  0.8368000  1
   9703   9706   9707   9708     1  180.0000771  1.0460000  2
   9703   9706   9707   9708     1  0.0000000  0.7531200  3
   9703   9706   9707   9713     1  0.0000000  0.6508444  3
   9706   9703   9702   9716     1  180.0000771  0.8368000  1
   9706   9703   9702   9716     1  180.0000771  1.0460000  2
   9706   9703   9702   9716     1  0.0000000  0.7531200  3
   9706   9703   9702   9724     1  0.0000000  0.6508444  3
   9706   9707   9708   9712     1  0.0000000  0.6508444  3
   9706   9707   9708   9724     1  0.0000000  0.6508444  3
   9707   9706   9703   9715     1  0.0000000  0.6508444  3
   9708   9707   9706   9714     1  0.0000000  0.6508444  3
   9708   9724   9702   9716     1  180.0000771  0.4184000  2
   9708   9724   9702   9716     1  0.0000000  1.6024720  3
   9712   9708   9707   9713     1  0.0000000  4.9162000  2
   9712   9708   9707   9713     1  0.0000000  0.6024960  3
   9713   9707   9706   9714     1  0.0000000  4.9162000  2
   9713   9707   9706   9714     1  0.0000000  0.6024960  3
   9713   9707   9708   9724     1  0.0000000  4.9162000  2
   9713   9707   9708   9724     1  0.0000000  0.6024960  3
   9714   9706   9703   9715     1  0.0000000  4.9162000  2
   9714   9706   9703   9715     1  0.0000000  0.6024960  3
   9715   9703   9702   9716     1  0.0000000  0.6508444  3
   9715   9703   9702   9724     1  0.0000000  4.9162000  2
   9715   9703   9702   9724     1  0.0000000  0.6024960  3
   9722   9716   9702   9724     1  0.0000000  4.9162000  2
   9722   9716   9702   9724     1  0.0000000  0.6024960  3
   9725   9726   9729   9730     1  180.0000771  0.8368000  1
   9725   9726   9729   9730     1  180.0000771  1.0460000  2
   9725   9726   9729   9730     1  0.0000000  0.7531200  3
   9725   9726   9729   9737     1  0.0000000  0.6508444  3
   9725   9747   9731   9735     1  180.0000771  5.6484000  1
   9725   9747   9731   9735     1  180.0000771  3.5564000  2
   9725   9747   9731   9735     1  0.0000000  0.4184000  3
   9725   9747   9731   9730     1  180.0000771  0.4184000  2
   9725   9747   9731   9730     1  0.0000000  1.6024720  3
   9726   9729   9730   9731     1  180.0000771  0.8368000  1
   9726   9729   9730   9731     1  180.0000771  1.0460000  2
   9726   9729   9730   9731     1  0.0000000  0.7531200  3
   9726   9729   9730   9736     1  0.0000000  0.6508444  3
   9726   9725   9739   9745     1  0.0000000  0.6508444  3
   9726   9725   9747   9731     1  180.0000771  0.4184000  2
   9726   9725   9747   9731     1  0.0000000  1.6024720  3
   9729   9730   9731   9735     1  0.0000000  0.6508444  3
   9729   9730   9731   9747     1  0.0000000  0.6508444  3
   9729   9726   9725   9739     1  180.0000771  0.8368000  1
   9729   9726   9725   9739     1  180.0000771  1.0460000  2
   9729   9726   9725   9739     1  0.0000000  0.7531200  3
   9729   9726   9725   9747     1  0.0000000  0.6508444  3
   9730   9729   9726   9738     1  0.0000000  0.6508444  3
   9731   9747   9725   9739     1  180.0000771  0.4184000  2
   9731   9747   9725   9739     1  0.0000000  1.6024720  3
   9731   9730   9729   9737     1  0.0000000  0.6508444  3
   9735   9731   9730   9736     1  0.0000000  4.9162000  2
   9735   9731   9730   9736     1  0.0000000  0.6024960  3
   9736   9730   9731   9747     1  0.0000000  4.9162000  2
   9736   9730   9731   9747     1  0.0000000  0.6024960  3
   9736   9730   9729   9737     1  0.0000000  4.9162000  2
   9736   9730   9729   9737     1  0.0000000  0.6024960  3
   9737   9729   9726   9738     1  0.0000000  4.9162000  2
   9737   9729   9726   9738     1  0.0000000  0.6024960  3
   9738   9726   9725   9739     1  0.0000000  0.6508444  3
   9738   9726   9725   9747     1  0.0000000  4.9162000  2
   9738   9726   9725   9747     1  0.0000000  0.6024960  3
   9745   9739   9725   9747     1  0.0000000  4.9162000  2
   9745   9739   9725   9747     1  0.0000000  0.6024960  3
   9748   9749   9752   9753     1  180.0000771  0.8368000  1
   9748   9749   9752   9753     1  180.0000771  1.0460000  2
   9748   9749   9752   9753     1  0.0000000  0.7531200  3
   9748   9749   9752   9760     1  0.0000000  0.6508444  3
   9748   9770   9754   9753     1  180.0000771  0.4184000  2
   9748   9770   9754   9753     1  0.0000000  1.6024720  3
   9748   9770   9754   9758     1  180.0000771  5.6484000  1
   9748   9770   9754   9758     1  180.0000771  3.5564000  2
   9748   9770   9754   9758     1  0.0000000  0.4184000  3
   9749   9748   9762   9768     1  0.0000000  0.6508444  3
   9749   9748   9770   9754     1  180.0000771  0.4184000  2
   9749   9748   9770   9754     1  0.0000000  1.6024720  3
   9749   9752   9753   9754     1  180.0000771  0.8368000  1
   9749   9752   9753   9754     1  180.0000771  1.0460000  2
   9749   9752   9753   9754     1  0.0000000  0.7531200  3
   9749   9752   9753   9759     1  0.0000000  0.6508444  3
   9752   9749   9748   9762     1  180.0000771  0.8368000  1
   9752   9749   9748   9762     1  180.0000771  1.0460000  2
   9752   9749   9748   9762     1  0.0000000  0.7531200  3
   9752   9749   9748   9770     1  0.0000000  0.6508444  3
   9752   9753   9754   9758     1  0.0000000  0.6508444  3
   9752   9753   9754   9770     1  0.0000000  0.6508444  3
   9753   9752   9749   9761     1  0.0000000  0.6508444  3
   9754   9753   9752   9760     1  0.0000000  0.6508444  3
   9754   9770   9748   9762     1  180.0000771  0.4184000  2
   9754   9770   9748   9762     1  0.0000000  1.6024720  3
   9758   9754   9753   9759     1  0.0000000  4.9162000  2
   9758   9754   9753   9759     1  0.0000000  0.6024960  3
   9759   9753   9752   9760     1  0.0000000  4.9162000  2
   9759   9753   9752   9760     1  0.0000000  0.6024960  3
   9759   9753   9754   9770     1  0.0000000  4.9162000  2
   9759   9753   9754   9770     1  0.0000000  0.6024960  3
   9760   9752   9749   9761     1  0.0000000  4.9162000  2
   9760   9752   9749   9761     1  0.0000000  0.6024960  3
   9761   9749   9748   9762     1  0.0000000  0.6508444  3
   9761   9749   9748   9770     1  0.0000000  4.9162000  2
   9761   9749   9748   9770     1  0.0000000  0.6024960  3
   9768   9762   9748   9770     1  0.0000000  4.9162000  2
   9768   9762   9748   9770     1  0.0000000  0.6024960  3
   9771   9772   9775   9776     1  180.0000771  0.8368000  1
   9771   9772   9775   9776     1  180.0000771  1.0460000  2
   9771   9772   9775   9776     1  0.0000000  0.7531200  3
   9771   9772   9775   9783     1  0.0000000  0.6508444  3
   9771   9793   9777   9781     1  180.0000771  5.6484000  1
   9771   9793   9777   9781     1  180.0000771  3.5564000  2
   9771   9793   9777   9781     1  0.0000000  0.4184000  3
   9771   9793   9777   9776     1  180.0000771  0.4184000  2
   9771   9793   9777   9776     1  0.0000000  1.6024720  3
   9772   9775   9776   9777     1  180.0000771  0.8368000  1
   9772   9775   9776   9777     1  180.0000771  1.0460000  2
   9772   9775   9776   9777     1  0.0000000  0.7531200  3
   9772   9775   9776   9782     1  0.0000000  0.6508444  3
   9772   9771   9785   9791     1  0.0000000  0.6508444  3
   9772   9771   9793   9777     1  180.0000771  0.4184000  2
   9772   9771   9793   9777     1  0.0000000  1.6024720  3
   9775   9776   9777   9781     1  0.0000000  0.6508444  3
   9775   9776   9777   9793     1  0.0000000  0.6508444  3
   9775   9772   9771   9785     1  180.0000771  0.8368000  1
   9775   9772   9771   9785     1  180.0000771  1.0460000  2
   9775   9772   9771   9785     1  0.0000000  0.7531200  3
   9775   9772   9771   9793     1  0.0000000  0.6508444  3
   9776   9775   9772   9784     1  0.0000000  0.6508444  3
   9777   9793   9771   9785     1  180.0000771  0.4184000  2
   9777   9793   9771   9785     1  0.0000000  1.6024720  3
   9777   9776   9775   9783     1  0.0000000  0.6508444  3
   9781   9777   9776   9782     1  0.0000000  4.9162000  2
   9781   9777   9776   9782     1  0.0000000  0.6024960  3
   9782   9776   9777   9793     1  0.0000000  4.9162000  2
   9782   9776   9777   9793     1  0.0000000  0.6024960  3
   9782   9776   9775   9783     1  0.0000000  4.9162000  2
   9782   9776   9775   9783     1  0.0000000  0.6024960  3
   9783   9775   9772   9784     1  0.0000000  4.9162000  2
   9783   9775   9772   9784     1  0.0000000  0.6024960  3
   9784   9772   9771   9785     1  0.0000000  0.6508444  3
   9784   9772   9771   9793     1  0.0000000  4.9162000  2
   9784   9772   9771   9793     1  0.0000000  0.6024960  3
   9791   9785   9771   9793     1  0.0000000  4.9162000  2
   9791   9785   9771   9793     1  0.0000000  0.6024960  3
   9794   9795   9798   9799     1  180.0000771  0.8368000  1
   9794   9795   9798   9799     1  180.0000771  1.0460000  2
   9794   9795   9798   9799     1  0.0000000  0.7531200  3
   9794   9795   9798   9806     1  0.0000000  0.6508444  3
   9794   9816   9800   9799     1  180.0000771  0.4184000  2
   9794   9816   9800   9799     1  0.0000000  1.6024720  3
   9794   9816   9800   9804     1  180.0000771  5.6484000  1
   9794   9816   9800   9804     1  180.0000771  3.5564000  2
   9794   9816   9800   9804     1  0.0000000  0.4184000  3
   9795   9794   9808   9814     1  0.0000000  0.6508444  3
   9795   9794   9816   9800     1  180.0000771  0.4184000  2
   9795   9794   9816   9800     1  0.0000000  1.6024720  3
   9795   9798   9799   9800     1  180.0000771  0.8368000  1
   9795   9798   9799   9800     1  180.0000771  1.0460000  2
   9795   9798   9799   9800     1  0.0000000  0.7531200  3
   9795   9798   9799   9805     1  0.0000000  0.6508444  3
   9798   9795   9794   9808     1  180.0000771  0.8368000  1
   9798   9795   9794   9808     1  180.0000771  1.0460000  2
   9798   9795   9794   9808     1  0.0000000  0.7531200  3
   9798   9795   9794   9816     1  0.0000000  0.6508444  3
   9798   9799   9800   9804     1  0.0000000  0.6508444  3
   9798   9799   9800   9816     1  0.0000000  0.6508444  3
   9799   9798   9795   9807     1  0.0000000  0.6508444  3
   9800   9799   9798   9806     1  0.0000000  0.6508444  3
   9800   9816   9794   9808     1  180.0000771  0.4184000  2
   9800   9816   9794   9808     1  0.0000000  1.6024720  3
   9804   9800   9799   9805     1  0.0000000  4.9162000  2
   9804   9800   9799   9805     1  0.0000000  0.6024960  3
   9805   9799   9798   9806     1  0.0000000  4.9162000  2
   9805   9799   9798   9806     1  0.0000000  0.6024960  3
   9805   9799   9800   9816     1  0.0000000  4.9162000  2
   9805   9799   9800   9816     1  0.0000000  0.6024960  3
   9806   9798   9795   9807     1  0.0000000  4.9162000  2
   9806   9798   9795   9807     1  0.0000000  0.6024960  3
   9807   9795   9794   9808     1  0.0000000  0.6508444  3
   9807   9795   9794   9816     1  0.0000000  4.9162000  2
   9807   9795   9794   9816     1  0.0000000  0.6024960  3
   9814   9808   9794   9816     1  0.0000000  4.9162000  2
   9814   9808   9794   9816     1  0.0000000  0.6024960  3
   9817   9818   9821   9822     1  180.0000771  0.8368000  1
   9817   9818   9821   9822     1  180.0000771  1.0460000  2
   9817   9818   9821   9822     1  0.0000000  0.7531200  3
   9817   9818   9821   9829     1  0.0000000  0.6508444  3
   9817   9839   9823   9827     1  180.0000771  5.6484000  1
   9817   9839   9823   9827     1  180.0000771  3.5564000  2
   9817   9839   9823   9827     1  0.0000000  0.4184000  3
   9817   9839   9823   9822     1  180.0000771  0.4184000  2
   9817   9839   9823   9822     1  0.0000000  1.6024720  3
   9818   9821   9822   9823     1  180.0000771  0.8368000  1
   9818   9821   9822   9823     1  180.0000771  1.0460000  2
   9818   9821   9822   9823     1  0.0000000  0.7531200  3
   9818   9821   9822   9828     1  0.0000000  0.6508444  3
   9818   9817   9831   9837     1  0.0000000  0.6508444  3
   9818   9817   9839   9823     1  180.0000771  0.4184000  2
   9818   9817   9839   9823     1  0.0000000  1.6024720  3
   9821   9822   9823   9827     1  0.0000000  0.6508444  3
   9821   9822   9823   9839     1  0.0000000  0.6508444  3
   9821   9818   9817   9831     1  180.0000771  0.8368000  1
   9821   9818   9817   9831     1  180.0000771  1.0460000  2
   9821   9818   9817   9831     1  0.0000000  0.7531200  3
   9821   9818   9817   9839     1  0.0000000  0.6508444  3
   9822   9821   9818   9830     1  0.0000000  0.6508444  3
   9823   9839   9817   9831     1  180.0000771  0.4184000  2
   9823   9839   9817   9831     1  0.0000000  1.6024720  3
   9823   9822   9821   9829     1  0.0000000  0.6508444  3
   9827   9823   9822   9828     1  0.0000000  4.9162000  2
   9827   9823   9822   9828     1  0.0000000  0.6024960  3
   9828   9822   9823   9839     1  0.0000000  4.9162000  2
   9828   9822   9823   9839     1  0.0000000  0.6024960  3
   9828   9822   9821   9829     1  0.0000000  4.9162000  2
   9828   9822   9821   9829     1  0.0000000  0.6024960  3
   9829   9821   9818   9830     1  0.0000000  4.9162000  2
   9829   9821   9818   9830     1  0.0000000  0.6024960  3
   9830   9818   9817   9831     1  0.0000000  0.6508444  3
   9830   9818   9817   9839     1  0.0000000  4.9162000  2
   9830   9818   9817   9839     1  0.0000000  0.6024960  3
   9837   9831   9817   9839     1  0.0000000  4.9162000  2
   9837   9831   9817   9839     1  0.0000000  0.6024960  3
   9840   9841   9844   9845     1  180.0000771  0.8368000  1
   9840   9841   9844   9845     1  180.0000771  1.0460000  2
   9840   9841   9844   9845     1  0.0000000  0.7531200  3
   9840   9841   9844   9852     1  0.0000000  0.6508444  3
   9840   9862   9846   9845     1  180.0000771  0.4184000  2
   9840   9862   9846   9845     1  0.0000000  1.6024720  3
   9840   9862   9846   9850     1  180.0000771  5.6484000  1
   9840   9862   9846   9850     1  180.0000771  3.5564000  2
   9840   9862   9846   9850     1  0.0000000  0.4184000  3
   9841   9840   9854   9860     1  0.0000000  0.6508444  3
   9841   9840   9862   9846     1  180.0000771  0.4184000  2
   9841   9840   9862   9846     1  0.0000000  1.6024720  3
   9841   9844   9845   9846     1  180.0000771  0.8368000  1
   9841   9844   9845   9846     1  180.0000771  1.0460000  2
   9841   9844   9845   9846     1  0.0000000  0.7531200  3
   9841   9844   9845   9851     1  0.0000000  0.6508444  3
   9844   9841   9840   9854     1  180.0000771  0.8368000  1
   9844   9841   9840   9854     1  180.0000771  1.0460000  2
   9844   9841   9840   9854     1  0.0000000  0.7531200  3
   9844   9841   9840   9862     1  0.0000000  0.6508444  3
   9844   9845   9846   9850     1  0.0000000  0.6508444  3
   9844   9845   9846   9862     1  0.0000000  0.6508444  3
   9845   9844   9841   9853     1  0.0000000  0.6508444  3
   9846   9845   9844   9852     1  0.0000000  0.6508444  3
   9846   9862   9840   9854     1  180.0000771  0.4184000  2
   9846   9862   9840   9854     1  0.0000000  1.6024720  3
   9850   9846   9845   9851     1  0.0000000  4.9162000  2
   9850   9846   9845   9851     1  0.0000000  0.6024960  3
   9851   9845   9844   9852     1  0.0000000  4.9162000  2
   9851   9845   9844   9852     1  0.0000000  0.6024960  3
   9851   9845   9846   9862     1  0.0000000  4.9162000  2
   9851   9845   9846   9862     1  0.0000000  0.6024960  3
   9852   9844   9841   9853     1  0.0000000  4.9162000  2
   9852   9844   9841   9853     1  0.0000000  0.6024960  3
   9853   9841   9840   9854     1  0.0000000  0.6508444  3
   9853   9841   9840   9862     1  0.0000000  4.9162000  2
   9853   9841   9840   9862     1  0.0000000  0.6024960  3
   9860   9854   9840   9862     1  0.0000000  4.9162000  2
   9860   9854   9840   9862     1  0.0000000  0.6024960  3
   9863   9864   9867   9868     1  180.0000771  0.8368000  1
   9863   9864   9867   9868     1  180.0000771  1.0460000  2
   9863   9864   9867   9868     1  0.0000000  0.7531200  3
   9863   9864   9867   9875     1  0.0000000  0.6508444  3
   9863   9885   9869   9873     1  180.0000771  5.6484000  1
   9863   9885   9869   9873     1  180.0000771  3.5564000  2
   9863   9885   9869   9873     1  0.0000000  0.4184000  3
   9863   9885   9869   9868     1  180.0000771  0.4184000  2
   9863   9885   9869   9868     1  0.0000000  1.6024720  3
   9864   9867   9868   9869     1  180.0000771  0.8368000  1
   9864   9867   9868   9869     1  180.0000771  1.0460000  2
   9864   9867   9868   9869     1  0.0000000  0.7531200  3
   9864   9867   9868   9874     1  0.0000000  0.6508444  3
   9864   9863   9877   9883     1  0.0000000  0.6508444  3
   9864   9863   9885   9869     1  180.0000771  0.4184000  2
   9864   9863   9885   9869     1  0.0000000  1.6024720  3
   9867   9868   9869   9873     1  0.0000000  0.6508444  3
   9867   9868   9869   9885     1  0.0000000  0.6508444  3
   9867   9864   9863   9877     1  180.0000771  0.8368000  1
   9867   9864   9863   9877     1  180.0000771  1.0460000  2
   9867   9864   9863   9877     1  0.0000000  0.7531200  3
   9867   9864   9863   9885     1  0.0000000  0.6508444  3
   9868   9867   9864   9876     1  0.0000000  0.6508444  3
   9869   9885   9863   9877     1  180.0000771  0.4184000  2
   9869   9885   9863   9877     1  0.0000000  1.6024720  3
   9869   9868   9867   9875     1  0.0000000  0.6508444  3
   9873   9869   9868   9874     1  0.0000000  4.9162000  2
   9873   9869   9868   9874     1  0.0000000  0.6024960  3
   9874   9868   9869   9885     1  0.0000000  4.9162000  2
   9874   9868   9869   9885     1  0.0000000  0.6024960  3
   9874   9868   9867   9875     1  0.0000000  4.9162000  2
   9874   9868   9867   9875     1  0.0000000  0.6024960  3
   9875   9867   9864   9876     1  0.0000000  4.9162000  2
   9875   9867   9864   9876     1  0.0000000  0.6024960  3
   9876   9864   9863   9877     1  0.0000000  0.6508444  3
   9876   9864   9863   9885     1  0.0000000  4.9162000  2
   9876   9864   9863   9885     1  0.0000000  0.6024960  3
   9883   9877   9863   9885     1  0.0000000  4.9162000  2
   9883   9877   9863   9885     1  0.0000000  0.6024960  3
   9886   9887   9890   9891     1  180.0000771  0.8368000  1
   9886   9887   9890   9891     1  180.0000771  1.0460000  2
   9886   9887   9890   9891     1  0.0000000  0.7531200  3
   9886   9887   9890   9898     1  0.0000000  0.6508444  3
   9886   9908   9892   9891     1  180.0000771  0.4184000  2
   9886   9908   9892   9891     1  0.0000000  1.6024720  3
   9886   9908   9892   9896     1  180.0000771  5.6484000  1
   9886   9908   9892   9896     1  180.0000771  3.5564000  2
   9886   9908   9892   9896     1  0.0000000  0.4184000  3
   9887   9886   9900   9906     1  0.0000000  0.6508444  3
   9887   9886   9908   9892     1  180.0000771  0.4184000  2
   9887   9886   9908   9892     1  0.0000000  1.6024720  3
   9887   9890   9891   9892     1  180.0000771  0.8368000  1
   9887   9890   9891   9892     1  180.0000771  1.0460000  2
   9887   9890   9891   9892     1  0.0000000  0.7531200  3
   9887   9890   9891   9897     1  0.0000000  0.6508444  3
   9890   9887   9886   9900     1  180.0000771  0.8368000  1
   9890   9887   9886   9900     1  180.0000771  1.0460000  2
   9890   9887   9886   9900     1  0.0000000  0.7531200  3
   9890   9887   9886   9908     1  0.0000000  0.6508444  3
   9890   9891   9892   9896     1  0.0000000  0.6508444  3
   9890   9891   9892   9908     1  0.0000000  0.6508444  3
   9891   9890   9887   9899     1  0.0000000  0.6508444  3
   9892   9891   9890   9898     1  0.0000000  0.6508444  3
   9892   9908   9886   9900     1  180.0000771  0.4184000  2
   9892   9908   9886   9900     1  0.0000000  1.6024720  3
   9896   9892   9891   9897     1  0.0000000  4.9162000  2
   9896   9892   9891   9897     1  0.0000000  0.6024960  3
   9897   9891   9890   9898     1  0.0000000  4.9162000  2
   9897   9891   9890   9898     1  0.0000000  0.6024960  3
   9897   9891   9892   9908     1  0.0000000  4.9162000  2
   9897   9891   9892   9908     1  0.0000000  0.6024960  3
   9898   9890   9887   9899     1  0.0000000  4.9162000  2
   9898   9890   9887   9899     1  0.0000000  0.6024960  3
   9899   9887   9886   9900     1  0.0000000  0.6508444  3
   9899   9887   9886   9908     1  0.0000000  4.9162000  2
   9899   9887   9886   9908     1  0.0000000  0.6024960  3
   9906   9900   9886   9908     1  0.0000000  4.9162000  2
   9906   9900   9886   9908     1  0.0000000  0.6024960  3
   9909   9910   9913   9914     1  180.0000771  0.8368000  1
   9909   9910   9913   9914     1  180.0000771  1.0460000  2
   9909   9910   9913   9914     1  0.0000000  0.7531200  3
   9909   9910   9913   9921     1  0.0000000  0.6508444  3
   9909   9931   9915   9919     1  180.0000771  5.6484000  1
   9909   9931   9915   9919     1  180.0000771  3.5564000  2
   9909   9931   9915   9919     1  0.0000000  0.4184000  3
   9909   9931   9915   9914     1  180.0000771  0.4184000  2
   9909   9931   9915   9914     1  0.0000000  1.6024720  3
   9910   9913   9914   9915     1  180.0000771  0.8368000  1
   9910   9913   9914   9915     1  180.0000771  1.0460000  2
   9910   9913   9914   9915     1  0.0000000  0.7531200  3
   9910   9913   9914   9920     1  0.0000000  0.6508444  3
   9910   9909   9923   9929     1  0.0000000  0.6508444  3
   9910   9909   9931   9915     1  180.0000771  0.4184000  2
   9910   9909   9931   9915     1  0.0000000  1.6024720  3
   9913   9914   9915   9919     1  0.0000000  0.6508444  3
   9913   9914   9915   9931     1  0.0000000  0.6508444  3
   9913   9910   9909   9923     1  180.0000771  0.8368000  1
   9913   9910   9909   9923     1  180.0000771  1.0460000  2
   9913   9910   9909   9923     1  0.0000000  0.7531200  3
   9913   9910   9909   9931     1  0.0000000  0.6508444  3
   9914   9913   9910   9922     1  0.0000000  0.6508444  3
   9915   9931   9909   9923     1  180.0000771  0.4184000  2
   9915   9931   9909   9923     1  0.0000000  1.6024720  3
   9915   9914   9913   9921     1  0.0000000  0.6508444  3
   9919   9915   9914   9920     1  0.0000000  4.9162000  2
   9919   9915   9914   9920     1  0.0000000  0.6024960  3
   9920   9914   9915   9931     1  0.0000000  4.9162000  2
   9920   9914   9915   9931     1  0.0000000  0.6024960  3
   9920   9914   9913   9921     1  0.0000000  4.9162000  2
   9920   9914   9913   9921     1  0.0000000  0.6024960  3
   9921   9913   9910   9922     1  0.0000000  4.9162000  2
   9921   9913   9910   9922     1  0.0000000  0.6024960  3
   9922   9910   9909   9923     1  0.0000000  0.6508444  3
   9922   9910   9909   9931     1  0.0000000  4.9162000  2
   9922   9910   9909   9931     1  0.0000000  0.6024960  3
   9929   9923   9909   9931     1  0.0000000  4.9162000  2
   9929   9923   9909   9931     1  0.0000000  0.6024960  3
   9932   9933   9936   9937     1  180.0000771  0.8368000  1
   9932   9933   9936   9937     1  180.0000771  1.0460000  2
   9932   9933   9936   9937     1  0.0000000  0.7531200  3
   9932   9933   9936   9944     1  0.0000000  0.6508444  3
   9932   9954   9938   9937     1  180.0000771  0.4184000  2
   9932   9954   9938   9937     1  0.0000000  1.6024720  3
   9932   9954   9938   9942     1  180.0000771  5.6484000  1
   9932   9954   9938   9942     1  180.0000771  3.5564000  2
   9932   9954   9938   9942     1  0.0000000  0.4184000  3
   9933   9932   9946   9952     1  0.0000000  0.6508444  3
   9933   9932   9954   9938     1  180.0000771  0.4184000  2
   9933   9932   9954   9938     1  0.0000000  1.6024720  3
   9933   9936   9937   9938     1  180.0000771  0.8368000  1
   9933   9936   9937   9938     1  180.0000771  1.0460000  2
   9933   9936   9937   9938     1  0.0000000  0.7531200  3
   9933   9936   9937   9943     1  0.0000000  0.6508444  3
   9936   9933   9932   9946     1  180.0000771  0.8368000  1
   9936   9933   9932   9946     1  180.0000771  1.0460000  2
   9936   9933   9932   9946     1  0.0000000  0.7531200  3
   9936   9933   9932   9954     1  0.0000000  0.6508444  3
   9936   9937   9938   9942     1  0.0000000  0.6508444  3
   9936   9937   9938   9954     1  0.0000000  0.6508444  3
   9937   9936   9933   9945     1  0.0000000  0.6508444  3
   9938   9937   9936   9944     1  0.0000000  0.6508444  3
   9938   9954   9932   9946     1  180.0000771  0.4184000  2
   9938   9954   9932   9946     1  0.0000000  1.6024720  3
   9942   9938   9937   9943     1  0.0000000  4.9162000  2
   9942   9938   9937   9943     1  0.0000000  0.6024960  3
   9943   9937   9936   9944     1  0.0000000  4.9162000  2
   9943   9937   9936   9944     1  0.0000000  0.6024960  3
   9943   9937   9938   9954     1  0.0000000  4.9162000  2
   9943   9937   9938   9954     1  0.0000000  0.6024960  3
   9944   9936   9933   9945     1  0.0000000  4.9162000  2
   9944   9936   9933   9945     1  0.0000000  0.6024960  3
   9945   9933   9932   9946     1  0.0000000  0.6508444  3
   9945   9933   9932   9954     1  0.0000000  4.9162000  2
   9945   9933   9932   9954     1  0.0000000  0.6024960  3
   9952   9946   9932   9954     1  0.0000000  4.9162000  2
   9952   9946   9932   9954     1  0.0000000  0.6024960  3
   9955   9956   9959   9960     1  180.0000771  0.8368000  1
   9955   9956   9959   9960     1  180.0000771  1.0460000  2
   9955   9956   9959   9960     1  0.0000000  0.7531200  3
   9955   9956   9959   9967     1  0.0000000  0.6508444  3
   9955   9977   9961   9965     1  180.0000771  5.6484000  1
   9955   9977   9961   9965     1  180.0000771  3.5564000  2
   9955   9977   9961   9965     1  0.0000000  0.4184000  3
   9955   9977   9961   9960     1  180.0000771  0.4184000  2
   9955   9977   9961   9960     1  0.0000000  1.6024720  3
   9956   9959   9960   9961     1  180.0000771  0.8368000  1
   9956   9959   9960   9961     1  180.0000771  1.0460000  2
   9956   9959   9960   9961     1  0.0000000  0.7531200  3
   9956   9959   9960   9966     1  0.0000000  0.6508444  3
   9956   9955   9969   9975     1  0.0000000  0.6508444  3
   9956   9955   9977   9961     1  180.0000771  0.4184000  2
   9956   9955   9977   9961     1  0.0000000  1.6024720  3
   9959   9960   9961   9965     1  0.0000000  0.6508444  3
   9959   9960   9961   9977     1  0.0000000  0.6508444  3
   9959   9956   9955   9969     1  180.0000771  0.8368000  1
   9959   9956   9955   9969     1  180.0000771  1.0460000  2
   9959   9956   9955   9969     1  0.0000000  0.7531200  3
   9959   9956   9955   9977     1  0.0000000  0.6508444  3
   9960   9959   9956   9968     1  0.0000000  0.6508444  3
   9961   9977   9955   9969     1  180.0000771  0.4184000  2
   9961   9977   9955   9969     1  0.0000000  1.6024720  3
   9961   9960   9959   9967     1  0.0000000  0.6508444  3
   9965   9961   9960   9966     1  0.0000000  4.9162000  2
   9965   9961   9960   9966     1  0.0000000  0.6024960  3
   9966   9960   9961   9977     1  0.0000000  4.9162000  2
   9966   9960   9961   9977     1  0.0000000  0.6024960  3
   9966   9960   9959   9967     1  0.0000000  4.9162000  2
   9966   9960   9959   9967     1  0.0000000  0.6024960  3
   9967   9959   9956   9968     1  0.0000000  4.9162000  2
   9967   9959   9956   9968     1  0.0000000  0.6024960  3
   9968   9956   9955   9969     1  0.0000000  0.6508444  3
   9968   9956   9955   9977     1  0.0000000  4.9162000  2
   9968   9956   9955   9977     1  0.0000000  0.6024960  3
   9975   9969   9955   9977     1  0.0000000  4.9162000  2
   9975   9969   9955   9977     1  0.0000000  0.6024960  3
   9978   9979   9982   9983     1  180.0000771  0.8368000  1
   9978   9979   9982   9983     1  180.0000771  1.0460000  2
   9978   9979   9982   9983     1  0.0000000  0.7531200  3
   9978   9979   9982   9990     1  0.0000000  0.6508444  3
   9978  10000   9984   9983     1  180.0000771  0.4184000  2
   9978  10000   9984   9983     1  0.0000000  1.6024720  3
   9978  10000   9984   9988     1  180.0000771  5.6484000  1
   9978  10000   9984   9988     1  180.0000771  3.5564000  2
   9978  10000   9984   9988     1  0.0000000  0.4184000  3
   9979   9978   9992   9998     1  0.0000000  0.6508444  3
   9979   9978  10000   9984     1  180.0000771  0.4184000  2
   9979   9978  10000   9984     1  0.0000000  1.6024720  3
   9979   9982   9983   9984     1  180.0000771  0.8368000  1
   9979   9982   9983   9984     1  180.0000771  1.0460000  2
   9979   9982   9983   9984     1  0.0000000  0.7531200  3
   9979   9982   9983   9989     1  0.0000000  0.6508444  3
   9982   9979   9978   9992     1  180.0000771  0.8368000  1
   9982   9979   9978   9992     1  180.0000771  1.0460000  2
   9982   9979   9978   9992     1  0.0000000  0.7531200  3
   9982   9979   9978  10000     1  0.0000000  0.6508444  3
   9982   9983   9984   9988     1  0.0000000  0.6508444  3
   9982   9983   9984  10000     1  0.0000000  0.6508444  3
   9983   9982   9979   9991     1  0.0000000  0.6508444  3
   9984   9983   9982   9990     1  0.0000000  0.6508444  3
   9984  10000   9978   9992     1  180.0000771  0.4184000  2
   9984  10000   9978   9992     1  0.0000000  1.6024720  3
   9988   9984   9983   9989     1  0.0000000  4.9162000  2
   9988   9984   9983   9989     1  0.0000000  0.6024960  3
   9989   9983   9982   9990     1  0.0000000  4.9162000  2
   9989   9983   9982   9990     1  0.0000000  0.6024960  3
   9989   9983   9984  10000     1  0.0000000  4.9162000  2
   9989   9983   9984  10000     1  0.0000000  0.6024960  3
   9990   9982   9979   9991     1  0.0000000  4.9162000  2
   9990   9982   9979   9991     1  0.0000000  0.6024960  3
   9991   9979   9978   9992     1  0.0000000  0.6508444  3
   9991   9979   9978  10000     1  0.0000000  4.9162000  2
   9991   9979   9978  10000     1  0.0000000  0.6024960  3
   9998   9992   9978  10000     1  0.0000000  4.9162000  2
   9998   9992   9978  10000     1  0.0000000  0.6024960  3
  10001  10002  10005  10006     1  180.0000771  0.8368000  1
  10001  10002  10005  10006     1  180.0000771  1.0460000  2
  10001  10002  10005  10006     1  0.0000000  0.7531200  3
  10001  10002  10005  10013     1  0.0000000  0.6508444  3
  10001  10023  10007  10011     1  180.0000771  5.6484000  1
  10001  10023  10007  10011     1  180.0000771  3.5564000  2
  10001  10023  10007  10011     1  0.0000000  0.4184000  3
  10001  10023  10007  10006     1  180.0000771  0.4184000  2
  10001  10023  10007  10006     1  0.0000000  1.6024720  3
  10002  10005  10006  10007     1  180.0000771  0.8368000  1
  10002  10005  10006  10007     1  180.0000771  1.0460000  2
  10002  10005  10006  10007     1  0.0000000  0.7531200  3
  10002  10005  10006  10012     1  0.0000000  0.6508444  3
  10002  10001  10015  10021     1  0.0000000  0.6508444  3
  10002  10001  10023  10007     1  180.0000771  0.4184000  2
  10002  10001  10023  10007     1  0.0000000  1.6024720  3
  10005  10006  10007  10011     1  0.0000000  0.6508444  3
  10005  10006  10007  10023     1  0.0000000  0.6508444  3
  10005  10002  10001  10015     1  180.0000771  0.8368000  1
  10005  10002  10001  10015     1  180.0000771  1.0460000  2
  10005  10002  10001  10015     1  0.0000000  0.7531200  3
  10005  10002  10001  10023     1  0.0000000  0.6508444  3
  10006  10005  10002  10014     1  0.0000000  0.6508444  3
  10007  10023  10001  10015     1  180.0000771  0.4184000  2
  10007  10023  10001  10015     1  0.0000000  1.6024720  3
  10007  10006  10005  10013     1  0.0000000  0.6508444  3
  10011  10007  10006  10012     1  0.0000000  4.9162000  2
  10011  10007  10006  10012     1  0.0000000  0.6024960  3
  10012  10006  10007  10023     1  0.0000000  4.9162000  2
  10012  10006  10007  10023     1  0.0000000  0.6024960  3
  10012  10006  10005  10013     1  0.0000000  4.9162000  2
  10012  10006  10005  10013     1  0.0000000  0.6024960  3
  10013  10005  10002  10014     1  0.0000000  4.9162000  2
  10013  10005  10002  10014     1  0.0000000  0.6024960  3
  10014  10002  10001  10015     1  0.0000000  0.6508444  3
  10014  10002  10001  10023     1  0.0000000  4.9162000  2
  10014  10002  10001  10023     1  0.0000000  0.6024960  3
  10021  10015  10001  10023     1  0.0000000  4.9162000  2
  10021  10015  10001  10023     1  0.0000000  0.6024960  3
  10024  10025  10028  10029     1  180.0000771  0.8368000  1
  10024  10025  10028  10029     1  180.0000771  1.0460000  2
  10024  10025  10028  10029     1  0.0000000  0.7531200  3
  10024  10025  10028  10036     1  0.0000000  0.6508444  3
  10024  10046  10030  10029     1  180.0000771  0.4184000  2
  10024  10046  10030  10029     1  0.0000000  1.6024720  3
  10024  10046  10030  10034     1  180.0000771  5.6484000  1
  10024  10046  10030  10034     1  180.0000771  3.5564000  2
  10024  10046  10030  10034     1  0.0000000  0.4184000  3
  10025  10024  10038  10044     1  0.0000000  0.6508444  3
  10025  10024  10046  10030     1  180.0000771  0.4184000  2
  10025  10024  10046  10030     1  0.0000000  1.6024720  3
  10025  10028  10029  10030     1  180.0000771  0.8368000  1
  10025  10028  10029  10030     1  180.0000771  1.0460000  2
  10025  10028  10029  10030     1  0.0000000  0.7531200  3
  10025  10028  10029  10035     1  0.0000000  0.6508444  3
  10028  10025  10024  10038     1  180.0000771  0.8368000  1
  10028  10025  10024  10038     1  180.0000771  1.0460000  2
  10028  10025  10024  10038     1  0.0000000  0.7531200  3
  10028  10025  10024  10046     1  0.0000000  0.6508444  3
  10028  10029  10030  10034     1  0.0000000  0.6508444  3
  10028  10029  10030  10046     1  0.0000000  0.6508444  3
  10029  10028  10025  10037     1  0.0000000  0.6508444  3
  10030  10029  10028  10036     1  0.0000000  0.6508444  3
  10030  10046  10024  10038     1  180.0000771  0.4184000  2
  10030  10046  10024  10038     1  0.0000000  1.6024720  3
  10034  10030  10029  10035     1  0.0000000  4.9162000  2
  10034  10030  10029  10035     1  0.0000000  0.6024960  3
  10035  10029  10028  10036     1  0.0000000  4.9162000  2
  10035  10029  10028  10036     1  0.0000000  0.6024960  3
  10035  10029  10030  10046     1  0.0000000  4.9162000  2
  10035  10029  10030  10046     1  0.0000000  0.6024960  3
  10036  10028  10025  10037     1  0.0000000  4.9162000  2
  10036  10028  10025  10037     1  0.0000000  0.6024960  3
  10037  10025  10024  10038     1  0.0000000  0.6508444  3
  10037  10025  10024  10046     1  0.0000000  4.9162000  2
  10037  10025  10024  10046     1  0.0000000  0.6024960  3
  10044  10038  10024  10046     1  0.0000000  4.9162000  2
  10044  10038  10024  10046     1  0.0000000  0.6024960  3
  10047  10048  10051  10052     1  180.0000771  0.8368000  1
  10047  10048  10051  10052     1  180.0000771  1.0460000  2
  10047  10048  10051  10052     1  0.0000000  0.7531200  3
  10047  10048  10051  10059     1  0.0000000  0.6508444  3
  10047  10069  10053  10057     1  180.0000771  5.6484000  1
  10047  10069  10053  10057     1  180.0000771  3.5564000  2
  10047  10069  10053  10057     1  0.0000000  0.4184000  3
  10047  10069  10053  10052     1  180.0000771  0.4184000  2
  10047  10069  10053  10052     1  0.0000000  1.6024720  3
  10048  10051  10052  10053     1  180.0000771  0.8368000  1
  10048  10051  10052  10053     1  180.0000771  1.0460000  2
  10048  10051  10052  10053     1  0.0000000  0.7531200  3
  10048  10051  10052  10058     1  0.0000000  0.6508444  3
  10048  10047  10061  10067     1  0.0000000  0.6508444  3
  10048  10047  10069  10053     1  180.0000771  0.4184000  2
  10048  10047  10069  10053     1  0.0000000  1.6024720  3
  10051  10052  10053  10057     1  0.0000000  0.6508444  3
  10051  10052  10053  10069     1  0.0000000  0.6508444  3
  10051  10048  10047  10061     1  180.0000771  0.8368000  1
  10051  10048  10047  10061     1  180.0000771  1.0460000  2
  10051  10048  10047  10061     1  0.0000000  0.7531200  3
  10051  10048  10047  10069     1  0.0000000  0.6508444  3
  10052  10051  10048  10060     1  0.0000000  0.6508444  3
  10053  10069  10047  10061     1  180.0000771  0.4184000  2
  10053  10069  10047  10061     1  0.0000000  1.6024720  3
  10053  10052  10051  10059     1  0.0000000  0.6508444  3
  10057  10053  10052  10058     1  0.0000000  4.9162000  2
  10057  10053  10052  10058     1  0.0000000  0.6024960  3
  10058  10052  10053  10069     1  0.0000000  4.9162000  2
  10058  10052  10053  10069     1  0.0000000  0.6024960  3
  10058  10052  10051  10059     1  0.0000000  4.9162000  2
  10058  10052  10051  10059     1  0.0000000  0.6024960  3
  10059  10051  10048  10060     1  0.0000000  4.9162000  2
  10059  10051  10048  10060     1  0.0000000  0.6024960  3
  10060  10048  10047  10061     1  0.0000000  0.6508444  3
  10060  10048  10047  10069     1  0.0000000  4.9162000  2
  10060  10048  10047  10069     1  0.0000000  0.6024960  3
  10067  10061  10047  10069     1  0.0000000  4.9162000  2
  10067  10061  10047  10069     1  0.0000000  0.6024960  3
  10070  10071  10074  10075     1  180.0000771  0.8368000  1
  10070  10071  10074  10075     1  180.0000771  1.0460000  2
  10070  10071  10074  10075     1  0.0000000  0.7531200  3
  10070  10071  10074  10082     1  0.0000000  0.6508444  3
  10070  10092  10076  10075     1  180.0000771  0.4184000  2
  10070  10092  10076  10075     1  0.0000000  1.6024720  3
  10070  10092  10076  10080     1  180.0000771  5.6484000  1
  10070  10092  10076  10080     1  180.0000771  3.5564000  2
  10070  10092  10076  10080     1  0.0000000  0.4184000  3
  10071  10070  10084  10090     1  0.0000000  0.6508444  3
  10071  10070  10092  10076     1  180.0000771  0.4184000  2
  10071  10070  10092  10076     1  0.0000000  1.6024720  3
  10071  10074  10075  10076     1  180.0000771  0.8368000  1
  10071  10074  10075  10076     1  180.0000771  1.0460000  2
  10071  10074  10075  10076     1  0.0000000  0.7531200  3
  10071  10074  10075  10081     1  0.0000000  0.6508444  3
  10074  10071  10070  10084     1  180.0000771  0.8368000  1
  10074  10071  10070  10084     1  180.0000771  1.0460000  2
  10074  10071  10070  10084     1  0.0000000  0.7531200  3
  10074  10071  10070  10092     1  0.0000000  0.6508444  3
  10074  10075  10076  10080     1  0.0000000  0.6508444  3
  10074  10075  10076  10092     1  0.0000000  0.6508444  3
  10075  10074  10071  10083     1  0.0000000  0.6508444  3
  10076  10075  10074  10082     1  0.0000000  0.6508444  3
  10076  10092  10070  10084     1  180.0000771  0.4184000  2
  10076  10092  10070  10084     1  0.0000000  1.6024720  3
  10080  10076  10075  10081     1  0.0000000  4.9162000  2
  10080  10076  10075  10081     1  0.0000000  0.6024960  3
  10081  10075  10074  10082     1  0.0000000  4.9162000  2
  10081  10075  10074  10082     1  0.0000000  0.6024960  3
  10081  10075  10076  10092     1  0.0000000  4.9162000  2
  10081  10075  10076  10092     1  0.0000000  0.6024960  3
  10082  10074  10071  10083     1  0.0000000  4.9162000  2
  10082  10074  10071  10083     1  0.0000000  0.6024960  3
  10083  10071  10070  10084     1  0.0000000  0.6508444  3
  10083  10071  10070  10092     1  0.0000000  4.9162000  2
  10083  10071  10070  10092     1  0.0000000  0.6024960  3
  10090  10084  10070  10092     1  0.0000000  4.9162000  2
  10090  10084  10070  10092     1  0.0000000  0.6024960  3
  10093  10094  10097  10098     1  180.0000771  0.8368000  1
  10093  10094  10097  10098     1  180.0000771  1.0460000  2
  10093  10094  10097  10098     1  0.0000000  0.7531200  3
  10093  10094  10097  10105     1  0.0000000  0.6508444  3
  10093  10115  10099  10103     1  180.0000771  5.6484000  1
  10093  10115  10099  10103     1  180.0000771  3.5564000  2
  10093  10115  10099  10103     1  0.0000000  0.4184000  3
  10093  10115  10099  10098     1  180.0000771  0.4184000  2
  10093  10115  10099  10098     1  0.0000000  1.6024720  3
  10094  10097  10098  10099     1  180.0000771  0.8368000  1
  10094  10097  10098  10099     1  180.0000771  1.0460000  2
  10094  10097  10098  10099     1  0.0000000  0.7531200  3
  10094  10097  10098  10104     1  0.0000000  0.6508444  3
  10094  10093  10107  10113     1  0.0000000  0.6508444  3
  10094  10093  10115  10099     1  180.0000771  0.4184000  2
  10094  10093  10115  10099     1  0.0000000  1.6024720  3
  10097  10098  10099  10103     1  0.0000000  0.6508444  3
  10097  10098  10099  10115     1  0.0000000  0.6508444  3
  10097  10094  10093  10107     1  180.0000771  0.8368000  1
  10097  10094  10093  10107     1  180.0000771  1.0460000  2
  10097  10094  10093  10107     1  0.0000000  0.7531200  3
  10097  10094  10093  10115     1  0.0000000  0.6508444  3
  10098  10097  10094  10106     1  0.0000000  0.6508444  3
  10099  10115  10093  10107     1  180.0000771  0.4184000  2
  10099  10115  10093  10107     1  0.0000000  1.6024720  3
  10099  10098  10097  10105     1  0.0000000  0.6508444  3
  10103  10099  10098  10104     1  0.0000000  4.9162000  2
  10103  10099  10098  10104     1  0.0000000  0.6024960  3
  10104  10098  10099  10115     1  0.0000000  4.9162000  2
  10104  10098  10099  10115     1  0.0000000  0.6024960  3
  10104  10098  10097  10105     1  0.0000000  4.9162000  2
  10104  10098  10097  10105     1  0.0000000  0.6024960  3
  10105  10097  10094  10106     1  0.0000000  4.9162000  2
  10105  10097  10094  10106     1  0.0000000  0.6024960  3
  10106  10094  10093  10107     1  0.0000000  0.6508444  3
  10106  10094  10093  10115     1  0.0000000  4.9162000  2
  10106  10094  10093  10115     1  0.0000000  0.6024960  3
  10113  10107  10093  10115     1  0.0000000  4.9162000  2
  10113  10107  10093  10115     1  0.0000000  0.6024960  3
      1      2     14     15     1  0.0000000  0.6508444  3
      1      2     14     16     1  0.0000000  0.6508444  3
      1      5     17     18     1  0.0000000  0.6508444  3
      1      5     17     19     1  0.0000000  0.6508444  3
      1      8     11     12     1  0.0000000  0.6508444  3
      1      8     11     13     1  0.0000000  0.6508444  3
      2      1      5      6     1  0.0000000  0.6508444  3
      2      1      5      7     1  0.0000000  0.6508444  3
      2      1      8      9     1  0.0000000  0.6508444  3
      2      1      8     10     1  0.0000000  0.6508444  3
      2     14     26     27     1  0.0000000  0.6508444  3
      2     14     26     28     1  0.0000000  0.6508444  3
      5      1      2      3     1  0.0000000  0.6508444  3
      8      1      2      3     1  0.0000000  0.6508444  3
     29      1      2      3     1  0.0000000  0.6508444  3
      3      2     14     26     1  0.0000000  0.6508444  3
      3      2     14     15     1  0.0000000  0.6508444  3
      3      2     14     16     1  0.0000000  0.6508444  3
      5      1      2      4     1  0.0000000  0.6508444  3
      8      1      2      4     1  0.0000000  0.6508444  3
     29      1      2      4     1  0.0000000  0.6508444  3
      4      2     14     26     1  0.0000000  0.6508444  3
      4      2     14     15     1  0.0000000  0.6508444  3
      4      2     14     16     1  0.0000000  0.6508444  3
      5      1      8      9     1  0.0000000  0.6508444  3
      5      1      8     10     1  0.0000000  0.6508444  3
      5     17     20     21     1  0.0000000  0.6508444  3
      5     17     20     22     1  0.0000000  0.6508444  3
      8      1      5      6     1  0.0000000  0.6508444  3
     29      1      5      6     1  0.0000000  0.6508444  3
      6      5     17     20     1  0.0000000  0.6508444  3
      6      5     17     18     1  0.0000000  0.6508444  3
      6      5     17     19     1  0.0000000  0.6508444  3
      8      1      5      7     1  0.0000000  0.6508444  3
     29      1      5      7     1  0.0000000  0.6508444  3
      7      5     17     20     1  0.0000000  0.6508444  3
      7      5     17     18     1  0.0000000  0.6508444  3
      7      5     17     19     1  0.0000000  0.6508444  3
      8     11     23     24     1  0.0000000  0.6508444  3
      8     11     23     25     1  0.0000000  0.6508444  3
     29      1      8      9     1  0.0000000  0.6508444  3
      9      8     11     23     1  0.0000000  0.6508444  3
      9      8     11     12     1  0.0000000  0.6508444  3
      9      8     11     13     1  0.0000000  0.6508444  3
     29      1      8     10     1  0.0000000  0.6508444  3
     10      8     11     23     1  0.0000000  0.6508444  3
     10      8     11     12     1  0.0000000  0.6508444  3
     10      8     11     13     1  0.0000000  0.6508444  3
     29      1      8     11     1  0.0000000  0.6508444  3
     12     11     23     88     1  0.0000000  1.0460000  1
     12     11     23     88     1  0.0000000  0.0000000  3
     12     11     23     24     1  0.0000000  0.6508444  3
     12     11     23     25     1  0.0000000  0.6508444  3
     13     11     23     88     1  0.0000000  1.0460000  1
     13     11     23     88     1  0.0000000  0.0000000  3
     13     11     23     24     1  0.0000000  0.6508444  3
     13     11     23     25     1  0.0000000  0.6508444  3
     29      1      2     14     1  0.0000000  0.6508444  3
     15     14     26    118     1  0.0000000  1.0460000  1
     15     14     26    118     1  0.0000000  0.0000000  3
     15     14     26     27     1  0.0000000  0.6508444  3
     15     14     26     28     1  0.0000000  0.6508444  3
     16     14     26    118     1  0.0000000  1.0460000  1
     16     14     26    118     1  0.0000000  0.0000000  3
     16     14     26     27     1  0.0000000  0.6508444  3
     16     14     26     28     1  0.0000000  0.6508444  3
     29      1      5     17     1  0.0000000  0.6508444  3
     18     17     20     58     1  0.0000000  1.0460000  1
     18     17     20     58     1  0.0000000  0.0000000  3
     18     17     20     21     1  0.0000000  0.6508444  3
     18     17     20     22     1  0.0000000  0.6508444  3
     19     17     20     58     1  0.0000000  1.0460000  1
     19     17     20     58     1  0.0000000  0.0000000  3
     19     17     20     21     1  0.0000000  0.6508444  3
     19     17     20     22     1  0.0000000  0.6508444  3
     20     58     49     50     1  0.0000000  1.6038667  3
     20     58     49     51     1  0.0000000  1.6038667  3
     21     20     58     49     1  0.0000000  1.6038667  3
     22     20     58     49     1  0.0000000  1.6038667  3
     23     88     79     80     1  0.0000000  1.6038667  3
     23     88     79     81     1  0.0000000  1.6038667  3
     24     23     88     79     1  0.0000000  1.6038667  3
     25     23     88     79     1  0.0000000  1.6038667  3
     26    118    109    110     1  0.0000000  1.6038667  3
     26    118    109    111     1  0.0000000  1.6038667  3
     27     26    118    109     1  0.0000000  1.6038667  3
     28     26    118    109     1  0.0000000  1.6038667  3
     30     31     43     44     1  0.0000000  0.6508444  3
     30     31     43     45     1  0.0000000  0.6508444  3
     30     34     46     47     1  0.0000000  0.6508444  3
     30     34     46     48     1  0.0000000  0.6508444  3
     30     37     40     41     1  0.0000000  0.6508444  3
     30     37     40     42     1  0.0000000  0.6508444  3
     31     30     34     35     1  0.0000000  0.6508444  3
     31     30     34     36     1  0.0000000  0.6508444  3
     31     30     37     38     1  0.0000000  0.6508444  3
     31     30     37     39     1  0.0000000  0.6508444  3
     31     43     55     56     1  0.0000000  0.6508444  3
     31     43     55     57     1  0.0000000  0.6508444  3
     32     31     30     34     1  0.0000000  0.6508444  3
     32     31     30     37     1  0.0000000  0.6508444  3
     32     31     30     59     1  0.0000000  0.6508444  3
     32     31     43     55     1  0.0000000  0.6508444  3
     32     31     43     44     1  0.0000000  0.6508444  3
     32     31     43     45     1  0.0000000  0.6508444  3
     33     31     30     34     1  0.0000000  0.6508444  3
     33     31     30     37     1  0.0000000  0.6508444  3
     33     31     30     59     1  0.0000000  0.6508444  3
     33     31     43     55     1  0.0000000  0.6508444  3
     33     31     43     44     1  0.0000000  0.6508444  3
     33     31     43     45     1  0.0000000  0.6508444  3
     34     30     37     38     1  0.0000000  0.6508444  3
     34     30     37     39     1  0.0000000  0.6508444  3
     34     46     52     53     1  0.0000000  0.6508444  3
     34     46     52     54     1  0.0000000  0.6508444  3
     35     34     30     37     1  0.0000000  0.6508444  3
     35     34     30     59     1  0.0000000  0.6508444  3
     35     34     46     52     1  0.0000000  0.6508444  3
     35     34     46     47     1  0.0000000  0.6508444  3
     35     34     46     48     1  0.0000000  0.6508444  3
     36     34     30     37     1  0.0000000  0.6508444  3
     36     34     30     59     1  0.0000000  0.6508444  3
     36     34     46     52     1  0.0000000  0.6508444  3
     36     34     46     47     1  0.0000000  0.6508444  3
     36     34     46     48     1  0.0000000  0.6508444  3
     37     40     49     50     1  0.0000000  0.6508444  3
     37     40     49     51     1  0.0000000  0.6508444  3
     38     37     30     59     1  0.0000000  0.6508444  3
     38     37     40     49     1  0.0000000  0.6508444  3
     38     37     40     41     1  0.0000000  0.6508444  3
     38     37     40     42     1  0.0000000  0.6508444  3
     39     37     30     59     1  0.0000000  0.6508444  3
     39     37     40     49     1  0.0000000  0.6508444  3
     39     37     40     41     1  0.0000000  0.6508444  3
     39     37     40     42     1  0.0000000  0.6508444  3
     40     37     30     59     1  0.0000000  0.6508444  3
     41     40     49     58     1  0.0000000  1.0460000  1
     41     40     49     58     1  0.0000000  0.0000000  3
     41     40     49     50     1  0.0000000  0.6508444  3
     41     40     49     51     1  0.0000000  0.6508444  3
     42     40     49     58     1  0.0000000  1.0460000  1
     42     40     49     58     1  0.0000000  0.0000000  3
     42     40     49     50     1  0.0000000  0.6508444  3
     42     40     49     51     1  0.0000000  0.6508444  3
     43     31     30     59     1  0.0000000  0.6508444  3
     44     43     55    178     1  0.0000000  1.0460000  1
     44     43     55    178     1  0.0000000  0.0000000  3
     44     43     55     56     1  0.0000000  0.6508444  3
     44     43     55     57     1  0.0000000  0.6508444  3
     45     43     55    178     1  0.0000000  1.0460000  1
     45     43     55    178     1  0.0000000  0.0000000  3
     45     43     55     56     1  0.0000000  0.6508444  3
     45     43     55     57     1  0.0000000  0.6508444  3
     46     34     30     59     1  0.0000000  0.6508444  3
     47     46     52    148     1  0.0000000  1.0460000  1
     47     46     52    148     1  0.0000000  0.0000000  3
     47     46     52     53     1  0.0000000  0.6508444  3
     47     46     52     54     1  0.0000000  0.6508444  3
     48     46     52    148     1  0.0000000  1.0460000  1
     48     46     52    148     1  0.0000000  0.0000000  3
     48     46     52     53     1  0.0000000  0.6508444  3
     48     46     52     54     1  0.0000000  0.6508444  3
     52    148    139    140     1  0.0000000  1.6038667  3
     52    148    139    141     1  0.0000000  1.6038667  3
     53     52    148    139     1  0.0000000  1.6038667  3
     54     52    148    139     1  0.0000000  1.6038667  3
     55    178    169    170     1  0.0000000  1.6038667  3
     55    178    169    171     1  0.0000000  1.6038667  3
     56     55    178    169     1  0.0000000  1.6038667  3
     57     55    178    169     1  0.0000000  1.6038667  3
     60     61     73     74     1  0.0000000  0.6508444  3
     60     61     73     75     1  0.0000000  0.6508444  3
     60     64     76     77     1  0.0000000  0.6508444  3
     60     64     76     78     1  0.0000000  0.6508444  3
     60     67     70     71     1  0.0000000  0.6508444  3
     60     67     70     72     1  0.0000000  0.6508444  3
     61     60     64     65     1  0.0000000  0.6508444  3
     61     60     64     66     1  0.0000000  0.6508444  3
     61     60     67     68     1  0.0000000  0.6508444  3
     61     60     67     69     1  0.0000000  0.6508444  3
     61     73     85     86     1  0.0000000  0.6508444  3
     61     73     85     87     1  0.0000000  0.6508444  3
     62     61     60     64     1  0.0000000  0.6508444  3
     62     61     60     67     1  0.0000000  0.6508444  3
     62     61     60     89     1  0.0000000  0.6508444  3
     62     61     73     85     1  0.0000000  0.6508444  3
     62     61     73     74     1  0.0000000  0.6508444  3
     62     61     73     75     1  0.0000000  0.6508444  3
     63     61     60     64     1  0.0000000  0.6508444  3
     63     61     60     67     1  0.0000000  0.6508444  3
     63     61     60     89     1  0.0000000  0.6508444  3
     63     61     73     85     1  0.0000000  0.6508444  3
     63     61     73     74     1  0.0000000  0.6508444  3
     63     61     73     75     1  0.0000000  0.6508444  3
     64     60     67     68     1  0.0000000  0.6508444  3
     64     60     67     69     1  0.0000000  0.6508444  3
     64     76     82     83     1  0.0000000  0.6508444  3
     64     76     82     84     1  0.0000000  0.6508444  3
     65     64     60     67     1  0.0000000  0.6508444  3
     65     64     60     89     1  0.0000000  0.6508444  3
     65     64     76     82     1  0.0000000  0.6508444  3
     65     64     76     77     1  0.0000000  0.6508444  3
     65     64     76     78     1  0.0000000  0.6508444  3
     66     64     60     67     1  0.0000000  0.6508444  3
     66     64     60     89     1  0.0000000  0.6508444  3
     66     64     76     82     1  0.0000000  0.6508444  3
     66     64     76     77     1  0.0000000  0.6508444  3
     66     64     76     78     1  0.0000000  0.6508444  3
     67     70     79     80     1  0.0000000  0.6508444  3
     67     70     79     81     1  0.0000000  0.6508444  3
     68     67     60     89     1  0.0000000  0.6508444  3
     68     67     70     79     1  0.0000000  0.6508444  3
     68     67     70     71     1  0.0000000  0.6508444  3
     68     67     70     72     1  0.0000000  0.6508444  3
     69     67     60     89     1  0.0000000  0.6508444  3
     69     67     70     79     1  0.0000000  0.6508444  3
     69     67     70     71     1  0.0000000  0.6508444  3
     69     67     70     72     1  0.0000000  0.6508444  3
     70     67     60     89     1  0.0000000  0.6508444  3
     71     70     79     88     1  0.0000000  1.0460000  1
     71     70     79     88     1  0.0000000  0.0000000  3
     71     70     79     80     1  0.0000000  0.6508444  3
     71     70     79     81     1  0.0000000  0.6508444  3
     72     70     79     88     1  0.0000000  1.0460000  1
     72     70     79     88     1  0.0000000  0.0000000  3
     72     70     79     80     1  0.0000000  0.6508444  3
     72     70     79     81     1  0.0000000  0.6508444  3
     73     61     60     89     1  0.0000000  0.6508444  3
     74     73     85    238     1  0.0000000  1.0460000  1
     74     73     85    238     1  0.0000000  0.0000000  3
     74     73     85     86     1  0.0000000  0.6508444  3
     74     73     85     87     1  0.0000000  0.6508444  3
     75     73     85    238     1  0.0000000  1.0460000  1
     75     73     85    238     1  0.0000000  0.0000000  3
     75     73     85     86     1  0.0000000  0.6508444  3
     75     73     85     87     1  0.0000000  0.6508444  3
     76     64     60     89     1  0.0000000  0.6508444  3
     77     76     82    208     1  0.0000000  1.0460000  1
     77     76     82    208     1  0.0000000  0.0000000  3
     77     76     82     83     1  0.0000000  0.6508444  3
     77     76     82     84     1  0.0000000  0.6508444  3
     78     76     82    208     1  0.0000000  1.0460000  1
     78     76     82    208     1  0.0000000  0.0000000  3
     78     76     82     83     1  0.0000000  0.6508444  3
     78     76     82     84     1  0.0000000  0.6508444  3
     82    208    199    200     1  0.0000000  1.6038667  3
     82    208    199    201     1  0.0000000  1.6038667  3
     83     82    208    199     1  0.0000000  1.6038667  3
     84     82    208    199     1  0.0000000  1.6038667  3
     85    238    229    230     1  0.0000000  1.6038667  3
     85    238    229    231     1  0.0000000  1.6038667  3
     86     85    238    229     1  0.0000000  1.6038667  3
     87     85    238    229     1  0.0000000  1.6038667  3
     90     91    103    104     1  0.0000000  0.6508444  3
     90     91    103    105     1  0.0000000  0.6508444  3
     90     94    106    107     1  0.0000000  0.6508444  3
     90     94    106    108     1  0.0000000  0.6508444  3
     90     97    100    101     1  0.0000000  0.6508444  3
     90     97    100    102     1  0.0000000  0.6508444  3
     91     90     94     95     1  0.0000000  0.6508444  3
     91     90     94     96     1  0.0000000  0.6508444  3
     91     90     97     98     1  0.0000000  0.6508444  3
     91     90     97     99     1  0.0000000  0.6508444  3
     91    103    115    116     1  0.0000000  0.6508444  3
     91    103    115    117     1  0.0000000  0.6508444  3
     92     91     90     94     1  0.0000000  0.6508444  3
     92     91     90     97     1  0.0000000  0.6508444  3
     92     91     90    119     1  0.0000000  0.6508444  3
     92     91    103    115     1  0.0000000  0.6508444  3
     92     91    103    104     1  0.0000000  0.6508444  3
     92     91    103    105     1  0.0000000  0.6508444  3
     93     91     90     94     1  0.0000000  0.6508444  3
     93     91     90     97     1  0.0000000  0.6508444  3
     93     91     90    119     1  0.0000000  0.6508444  3
     93     91    103    115     1  0.0000000  0.6508444  3
     93     91    103    104     1  0.0000000  0.6508444  3
     93     91    103    105     1  0.0000000  0.6508444  3
     94     90     97     98     1  0.0000000  0.6508444  3
     94     90     97     99     1  0.0000000  0.6508444  3
     94    106    112    113     1  0.0000000  0.6508444  3
     94    106    112    114     1  0.0000000  0.6508444  3
     95     94     90     97     1  0.0000000  0.6508444  3
     95     94     90    119     1  0.0000000  0.6508444  3
     95     94    106    112     1  0.0000000  0.6508444  3
     95     94    106    107     1  0.0000000  0.6508444  3
     95     94    106    108     1  0.0000000  0.6508444  3
     96     94     90     97     1  0.0000000  0.6508444  3
     96     94     90    119     1  0.0000000  0.6508444  3
     96     94    106    112     1  0.0000000  0.6508444  3
     96     94    106    107     1  0.0000000  0.6508444  3
     96     94    106    108     1  0.0000000  0.6508444  3
     97    100    109    110     1  0.0000000  0.6508444  3
     97    100    109    111     1  0.0000000  0.6508444  3
     98     97     90    119     1  0.0000000  0.6508444  3
     98     97    100    109     1  0.0000000  0.6508444  3
     98     97    100    101     1  0.0000000  0.6508444  3
     98     97    100    102     1  0.0000000  0.6508444  3
     99     97     90    119     1  0.0000000  0.6508444  3
     99     97    100    109     1  0.0000000  0.6508444  3
     99     97    100    101     1  0.0000000  0.6508444  3
     99     97    100    102     1  0.0000000  0.6508444  3
    100     97     90    119     1  0.0000000  0.6508444  3
    101    100    109    118     1  0.0000000  1.0460000  1
    101    100    109    118     1  0.0000000  0.0000000  3
    101    100    109    110     1  0.0000000  0.6508444  3
    101    100    109    111     1  0.0000000  0.6508444  3
    102    100    109    118     1  0.0000000  1.0460000  1
    102    100    109    118     1  0.0000000  0.0000000  3
    102    100    109    110     1  0.0000000  0.6508444  3
    102    100    109    111     1  0.0000000  0.6508444  3
    103     91     90    119     1  0.0000000  0.6508444  3
    104    103    115    298     1  0.0000000  1.0460000  1
    104    103    115    298     1  0.0000000  0.0000000  3
    104    103    115    116     1  0.0000000  0.6508444  3
    104    103    115    117     1  0.0000000  0.6508444  3
    105    103    115    298     1  0.0000000  1.0460000  1
    105    103    115    298     1  0.0000000  0.0000000  3
    105    103    115    116     1  0.0000000  0.6508444  3
    105    103    115    117     1  0.0000000  0.6508444  3
    106     94     90    119     1  0.0000000  0.6508444  3
    107    106    112    268     1  0.0000000  1.0460000  1
    107    106    112    268     1  0.0000000  0.0000000  3
    107    106    112    113     1  0.0000000  0.6508444  3
    107    106    112    114     1  0.0000000  0.6508444  3
    108    106    112    268     1  0.0000000  1.0460000  1
    108    106    112    268     1  0.0000000  0.0000000  3
    108    106    112    113     1  0.0000000  0.6508444  3
    108    106    112    114     1  0.0000000  0.6508444  3
    112    268    259    260     1  0.0000000  1.6038667  3
    112    268    259    261     1  0.0000000  1.6038667  3
    113    112    268    259     1  0.0000000  1.6038667  3
    114    112    268    259     1  0.0000000  1.6038667  3
    115    298    289    290     1  0.0000000  1.6038667  3
    115    298    289    291     1  0.0000000  1.6038667  3
    116    115    298    289     1  0.0000000  1.6038667  3
    117    115    298    289     1  0.0000000  1.6038667  3
    120    121    133    134     1  0.0000000  0.6508444  3
    120    121    133    135     1  0.0000000  0.6508444  3
    120    124    136    137     1  0.0000000  0.6508444  3
    120    124    136    138     1  0.0000000  0.6508444  3
    120    127    130    131     1  0.0000000  0.6508444  3
    120    127    130    132     1  0.0000000  0.6508444  3
    121    120    124    125     1  0.0000000  0.6508444  3
    121    120    124    126     1  0.0000000  0.6508444  3
    121    120    127    128     1  0.0000000  0.6508444  3
    121    120    127    129     1  0.0000000  0.6508444  3
    121    133    145    146     1  0.0000000  0.6508444  3
    121    133    145    147     1  0.0000000  0.6508444  3
    122    121    120    124     1  0.0000000  0.6508444  3
    122    121    120    127     1  0.0000000  0.6508444  3
    122    121    120    149     1  0.0000000  0.6508444  3
    122    121    133    145     1  0.0000000  0.6508444  3
    122    121    133    134     1  0.0000000  0.6508444  3
    122    121    133    135     1  0.0000000  0.6508444  3
    123    121    120    124     1  0.0000000  0.6508444  3
    123    121    120    127     1  0.0000000  0.6508444  3
    123    121    120    149     1  0.0000000  0.6508444  3
    123    121    133    145     1  0.0000000  0.6508444  3
    123    121    133    134     1  0.0000000  0.6508444  3
    123    121    133    135     1  0.0000000  0.6508444  3
    124    120    127    128     1  0.0000000  0.6508444  3
    124    120    127    129     1  0.0000000  0.6508444  3
    124    136    142    143     1  0.0000000  0.6508444  3
    124    136    142    144     1  0.0000000  0.6508444  3
    125    124    120    127     1  0.0000000  0.6508444  3
    125    124    120    149     1  0.0000000  0.6508444  3
    125    124    136    142     1  0.0000000  0.6508444  3
    125    124    136    137     1  0.0000000  0.6508444  3
    125    124    136    138     1  0.0000000  0.6508444  3
    126    124    120    127     1  0.0000000  0.6508444  3
    126    124    120    149     1  0.0000000  0.6508444  3
    126    124    136    142     1  0.0000000  0.6508444  3
    126    124    136    137     1  0.0000000  0.6508444  3
    126    124    136    138     1  0.0000000  0.6508444  3
    127    130    139    140     1  0.0000000  0.6508444  3
    127    130    139    141     1  0.0000000  0.6508444  3
    128    127    120    149     1  0.0000000  0.6508444  3
    128    127    130    139     1  0.0000000  0.6508444  3
    128    127    130    131     1  0.0000000  0.6508444  3
    128    127    130    132     1  0.0000000  0.6508444  3
    129    127    120    149     1  0.0000000  0.6508444  3
    129    127    130    139     1  0.0000000  0.6508444  3
    129    127    130    131     1  0.0000000  0.6508444  3
    129    127    130    132     1  0.0000000  0.6508444  3
    130    127    120    149     1  0.0000000  0.6508444  3
    131    130    139    148     1  0.0000000  1.0460000  1
    131    130    139    148     1  0.0000000  0.0000000  3
    131    130    139    140     1  0.0000000  0.6508444  3
    131    130    139    141     1  0.0000000  0.6508444  3
    132    130    139    148     1  0.0000000  1.0460000  1
    132    130    139    148     1  0.0000000  0.0000000  3
    132    130    139    140     1  0.0000000  0.6508444  3
    132    130    139    141     1  0.0000000  0.6508444  3
    133    121    120    149     1  0.0000000  0.6508444  3
    134    133    145    358     1  0.0000000  1.0460000  1
    134    133    145    358     1  0.0000000  0.0000000  3
    134    133    145    146     1  0.0000000  0.6508444  3
    134    133    145    147     1  0.0000000  0.6508444  3
    135    133    145    358     1  0.0000000  1.0460000  1
    135    133    145    358     1  0.0000000  0.0000000  3
    135    133    145    146     1  0.0000000  0.6508444  3
    135    133    145    147     1  0.0000000  0.6508444  3
    136    124    120    149     1  0.0000000  0.6508444  3
    137    136    142    328     1  0.0000000  1.0460000  1
    137    136    142    328     1  0.0000000  0.0000000  3
    137    136    142    143     1  0.0000000  0.6508444  3
    137    136    142    144     1  0.0000000  0.6508444  3
    138    136    142    328     1  0.0000000  1.0460000  1
    138    136    142    328     1  0.0000000  0.0000000  3
    138    136    142    143     1  0.0000000  0.6508444  3
    138    136    142    144     1  0.0000000  0.6508444  3
    142    328    319    320     1  0.0000000  1.6038667  3
    142    328    319    321     1  0.0000000  1.6038667  3
    143    142    328    319     1  0.0000000  1.6038667  3
    144    142    328    319     1  0.0000000  1.6038667  3
    145    358    349    350     1  0.0000000  1.6038667  3
    145    358    349    351     1  0.0000000  1.6038667  3
    146    145    358    349     1  0.0000000  1.6038667  3
    147    145    358    349     1  0.0000000  1.6038667  3
    150    151    163    164     1  0.0000000  0.6508444  3
    150    151    163    165     1  0.0000000  0.6508444  3
    150    154    166    167     1  0.0000000  0.6508444  3
    150    154    166    168     1  0.0000000  0.6508444  3
    150    157    160    161     1  0.0000000  0.6508444  3
    150    157    160    162     1  0.0000000  0.6508444  3
    151    150    154    155     1  0.0000000  0.6508444  3
    151    150    154    156     1  0.0000000  0.6508444  3
    151    150    157    158     1  0.0000000  0.6508444  3
    151    150    157    159     1  0.0000000  0.6508444  3
    151    163    175    176     1  0.0000000  0.6508444  3
    151    163    175    177     1  0.0000000  0.6508444  3
    152    151    150    154     1  0.0000000  0.6508444  3
    152    151    150    157     1  0.0000000  0.6508444  3
    152    151    150    179     1  0.0000000  0.6508444  3
    152    151    163    175     1  0.0000000  0.6508444  3
    152    151    163    164     1  0.0000000  0.6508444  3
    152    151    163    165     1  0.0000000  0.6508444  3
    153    151    150    154     1  0.0000000  0.6508444  3
    153    151    150    157     1  0.0000000  0.6508444  3
    153    151    150    179     1  0.0000000  0.6508444  3
    153    151    163    175     1  0.0000000  0.6508444  3
    153    151    163    164     1  0.0000000  0.6508444  3
    153    151    163    165     1  0.0000000  0.6508444  3
    154    150    157    158     1  0.0000000  0.6508444  3
    154    150    157    159     1  0.0000000  0.6508444  3
    154    166    172    173     1  0.0000000  0.6508444  3
    154    166    172    174     1  0.0000000  0.6508444  3
    155    154    150    157     1  0.0000000  0.6508444  3
    155    154    150    179     1  0.0000000  0.6508444  3
    155    154    166    172     1  0.0000000  0.6508444  3
    155    154    166    167     1  0.0000000  0.6508444  3
    155    154    166    168     1  0.0000000  0.6508444  3
    156    154    150    157     1  0.0000000  0.6508444  3
    156    154    150    179     1  0.0000000  0.6508444  3
    156    154    166    172     1  0.0000000  0.6508444  3
    156    154    166    167     1  0.0000000  0.6508444  3
    156    154    166    168     1  0.0000000  0.6508444  3
    157    160    169    170     1  0.0000000  0.6508444  3
    157    160    169    171     1  0.0000000  0.6508444  3
    158    157    150    179     1  0.0000000  0.6508444  3
    158    157    160    169     1  0.0000000  0.6508444  3
    158    157    160    161     1  0.0000000  0.6508444  3
    158    157    160    162     1  0.0000000  0.6508444  3
    159    157    150    179     1  0.0000000  0.6508444  3
    159    157    160    169     1  0.0000000  0.6508444  3
    159    157    160    161     1  0.0000000  0.6508444  3
    159    157    160    162     1  0.0000000  0.6508444  3
    160    157    150    179     1  0.0000000  0.6508444  3
    161    160    169    178     1  0.0000000  1.0460000  1
    161    160    169    178     1  0.0000000  0.0000000  3
    161    160    169    170     1  0.0000000  0.6508444  3
    161    160    169    171     1  0.0000000  0.6508444  3
    162    160    169    178     1  0.0000000  1.0460000  1
    162    160    169    178     1  0.0000000  0.0000000  3
    162    160    169    170     1  0.0000000  0.6508444  3
    162    160    169    171     1  0.0000000  0.6508444  3
    163    151    150    179     1  0.0000000  0.6508444  3
    164    163    175    418     1  0.0000000  1.0460000  1
    164    163    175    418     1  0.0000000  0.0000000  3
    164    163    175    176     1  0.0000000  0.6508444  3
    164    163    175    177     1  0.0000000  0.6508444  3
    165    163    175    418     1  0.0000000  1.0460000  1
    165    163    175    418     1  0.0000000  0.0000000  3
    165    163    175    176     1  0.0000000  0.6508444  3
    165    163    175    177     1  0.0000000  0.6508444  3
    166    154    150    179     1  0.0000000  0.6508444  3
    167    166    172    388     1  0.0000000  1.0460000  1
    167    166    172    388     1  0.0000000  0.0000000  3
    167    166    172    173     1  0.0000000  0.6508444  3
    167    166    172    174     1  0.0000000  0.6508444  3
    168    166    172    388     1  0.0000000  1.0460000  1
    168    166    172    388     1  0.0000000  0.0000000  3
    168    166    172    173     1  0.0000000  0.6508444  3
    168    166    172    174     1  0.0000000  0.6508444  3
    172    388    379    380     1  0.0000000  1.6038667  3
    172    388    379    381     1  0.0000000  1.6038667  3
    173    172    388    379     1  0.0000000  1.6038667  3
    174    172    388    379     1  0.0000000  1.6038667  3
    175    418    409    410     1  0.0000000  1.6038667  3
    175    418    409    411     1  0.0000000  1.6038667  3
    176    175    418    409     1  0.0000000  1.6038667  3
    177    175    418    409     1  0.0000000  1.6038667  3
    180    181    193    194     1  0.0000000  0.6508444  3
    180    181    193    195     1  0.0000000  0.6508444  3
    180    184    196    197     1  0.0000000  0.6508444  3
    180    184    196    198     1  0.0000000  0.6508444  3
    180    187    190    191     1  0.0000000  0.6508444  3
    180    187    190    192     1  0.0000000  0.6508444  3
    181    180    184    185     1  0.0000000  0.6508444  3
    181    180    184    186     1  0.0000000  0.6508444  3
    181    180    187    188     1  0.0000000  0.6508444  3
    181    180    187    189     1  0.0000000  0.6508444  3
    181    193    205    206     1  0.0000000  0.6508444  3
    181    193    205    207     1  0.0000000  0.6508444  3
    182    181    180    184     1  0.0000000  0.6508444  3
    182    181    180    187     1  0.0000000  0.6508444  3
    182    181    180    209     1  0.0000000  0.6508444  3
    182    181    193    205     1  0.0000000  0.6508444  3
    182    181    193    194     1  0.0000000  0.6508444  3
    182    181    193    195     1  0.0000000  0.6508444  3
    183    181    180    184     1  0.0000000  0.6508444  3
    183    181    180    187     1  0.0000000  0.6508444  3
    183    181    180    209     1  0.0000000  0.6508444  3
    183    181    193    205     1  0.0000000  0.6508444  3
    183    181    193    194     1  0.0000000  0.6508444  3
    183    181    193    195     1  0.0000000  0.6508444  3
    184    180    187    188     1  0.0000000  0.6508444  3
    184    180    187    189     1  0.0000000  0.6508444  3
    184    196    202    203     1  0.0000000  0.6508444  3
    184    196    202    204     1  0.0000000  0.6508444  3
    185    184    180    187     1  0.0000000  0.6508444  3
    185    184    180    209     1  0.0000000  0.6508444  3
    185    184    196    202     1  0.0000000  0.6508444  3
    185    184    196    197     1  0.0000000  0.6508444  3
    185    184    196    198     1  0.0000000  0.6508444  3
    186    184    180    187     1  0.0000000  0.6508444  3
    186    184    180    209     1  0.0000000  0.6508444  3
    186    184    196    202     1  0.0000000  0.6508444  3
    186    184    196    197     1  0.0000000  0.6508444  3
    186    184    196    198     1  0.0000000  0.6508444  3
    187    190    199    200     1  0.0000000  0.6508444  3
    187    190    199    201     1  0.0000000  0.6508444  3
    188    187    180    209     1  0.0000000  0.6508444  3
    188    187    190    199     1  0.0000000  0.6508444  3
    188    187    190    191     1  0.0000000  0.6508444  3
    188    187    190    192     1  0.0000000  0.6508444  3
    189    187    180    209     1  0.0000000  0.6508444  3
    189    187    190    199     1  0.0000000  0.6508444  3
    189    187    190    191     1  0.0000000  0.6508444  3
    189    187    190    192     1  0.0000000  0.6508444  3
    190    187    180    209     1  0.0000000  0.6508444  3
    191    190    199    208     1  0.0000000  1.0460000  1
    191    190    199    208     1  0.0000000  0.0000000  3
    191    190    199    200     1  0.0000000  0.6508444  3
    191    190    199    201     1  0.0000000  0.6508444  3
    192    190    199    208     1  0.0000000  1.0460000  1
    192    190    199    208     1  0.0000000  0.0000000  3
    192    190    199    200     1  0.0000000  0.6508444  3
    192    190    199    201     1  0.0000000  0.6508444  3
    193    181    180    209     1  0.0000000  0.6508444  3
    194    193    205    478     1  0.0000000  1.0460000  1
    194    193    205    478     1  0.0000000  0.0000000  3
    194    193    205    206     1  0.0000000  0.6508444  3
    194    193    205    207     1  0.0000000  0.6508444  3
    195    193    205    478     1  0.0000000  1.0460000  1
    195    193    205    478     1  0.0000000  0.0000000  3
    195    193    205    206     1  0.0000000  0.6508444  3
    195    193    205    207     1  0.0000000  0.6508444  3
    196    184    180    209     1  0.0000000  0.6508444  3
    197    196    202    448     1  0.0000000  1.0460000  1
    197    196    202    448     1  0.0000000  0.0000000  3
    197    196    202    203     1  0.0000000  0.6508444  3
    197    196    202    204     1  0.0000000  0.6508444  3
    198    196    202    448     1  0.0000000  1.0460000  1
    198    196    202    448     1  0.0000000  0.0000000  3
    198    196    202    203     1  0.0000000  0.6508444  3
    198    196    202    204     1  0.0000000  0.6508444  3
    202    448    439    440     1  0.0000000  1.6038667  3
    202    448    439    441     1  0.0000000  1.6038667  3
    203    202    448    439     1  0.0000000  1.6038667  3
    204    202    448    439     1  0.0000000  1.6038667  3
    205    478    469    470     1  0.0000000  1.6038667  3
    205    478    469    471     1  0.0000000  1.6038667  3
    206    205    478    469     1  0.0000000  1.6038667  3
    207    205    478    469     1  0.0000000  1.6038667  3
    210    211    223    224     1  0.0000000  0.6508444  3
    210    211    223    225     1  0.0000000  0.6508444  3
    210    214    226    227     1  0.0000000  0.6508444  3
    210    214    226    228     1  0.0000000  0.6508444  3
    210    217    220    221     1  0.0000000  0.6508444  3
    210    217    220    222     1  0.0000000  0.6508444  3
    211    210    214    215     1  0.0000000  0.6508444  3
    211    210    214    216     1  0.0000000  0.6508444  3
    211    210    217    218     1  0.0000000  0.6508444  3
    211    210    217    219     1  0.0000000  0.6508444  3
    211    223    235    236     1  0.0000000  0.6508444  3
    211    223    235    237     1  0.0000000  0.6508444  3
    212    211    210    214     1  0.0000000  0.6508444  3
    212    211    210    217     1  0.0000000  0.6508444  3
    212    211    210    239     1  0.0000000  0.6508444  3
    212    211    223    235     1  0.0000000  0.6508444  3
    212    211    223    224     1  0.0000000  0.6508444  3
    212    211    223    225     1  0.0000000  0.6508444  3
    213    211    210    214     1  0.0000000  0.6508444  3
    213    211    210    217     1  0.0000000  0.6508444  3
    213    211    210    239     1  0.0000000  0.6508444  3
    213    211    223    235     1  0.0000000  0.6508444  3
    213    211    223    224     1  0.0000000  0.6508444  3
    213    211    223    225     1  0.0000000  0.6508444  3
    214    210    217    218     1  0.0000000  0.6508444  3
    214    210    217    219     1  0.0000000  0.6508444  3
    214    226    232    233     1  0.0000000  0.6508444  3
    214    226    232    234     1  0.0000000  0.6508444  3
    215    214    210    217     1  0.0000000  0.6508444  3
    215    214    210    239     1  0.0000000  0.6508444  3
    215    214    226    232     1  0.0000000  0.6508444  3
    215    214    226    227     1  0.0000000  0.6508444  3
    215    214    226    228     1  0.0000000  0.6508444  3
    216    214    210    217     1  0.0000000  0.6508444  3
    216    214    210    239     1  0.0000000  0.6508444  3
    216    214    226    232     1  0.0000000  0.6508444  3
    216    214    226    227     1  0.0000000  0.6508444  3
    216    214    226    228     1  0.0000000  0.6508444  3
    217    220    229    230     1  0.0000000  0.6508444  3
    217    220    229    231     1  0.0000000  0.6508444  3
    218    217    210    239     1  0.0000000  0.6508444  3
    218    217    220    229     1  0.0000000  0.6508444  3
    218    217    220    221     1  0.0000000  0.6508444  3
    218    217    220    222     1  0.0000000  0.6508444  3
    219    217    210    239     1  0.0000000  0.6508444  3
    219    217    220    229     1  0.0000000  0.6508444  3
    219    217    220    221     1  0.0000000  0.6508444  3
    219    217    220    222     1  0.0000000  0.6508444  3
    220    217    210    239     1  0.0000000  0.6508444  3
    221    220    229    238     1  0.0000000  1.0460000  1
    221    220    229    238     1  0.0000000  0.0000000  3
    221    220    229    230     1  0.0000000  0.6508444  3
    221    220    229    231     1  0.0000000  0.6508444  3
    222    220    229    238     1  0.0000000  1.0460000  1
    222    220    229    238     1  0.0000000  0.0000000  3
    222    220    229    230     1  0.0000000  0.6508444  3
    222    220    229    231     1  0.0000000  0.6508444  3
    223    211    210    239     1  0.0000000  0.6508444  3
    224    223    235    538     1  0.0000000  1.0460000  1
    224    223    235    538     1  0.0000000  0.0000000  3
    224    223    235    236     1  0.0000000  0.6508444  3
    224    223    235    237     1  0.0000000  0.6508444  3
    225    223    235    538     1  0.0000000  1.0460000  1
    225    223    235    538     1  0.0000000  0.0000000  3
    225    223    235    236     1  0.0000000  0.6508444  3
    225    223    235    237     1  0.0000000  0.6508444  3
    226    214    210    239     1  0.0000000  0.6508444  3
    227    226    232    508     1  0.0000000  1.0460000  1
    227    226    232    508     1  0.0000000  0.0000000  3
    227    226    232    233     1  0.0000000  0.6508444  3
    227    226    232    234     1  0.0000000  0.6508444  3
    228    226    232    508     1  0.0000000  1.0460000  1
    228    226    232    508     1  0.0000000  0.0000000  3
    228    226    232    233     1  0.0000000  0.6508444  3
    228    226    232    234     1  0.0000000  0.6508444  3
    232    508    499    500     1  0.0000000  1.6038667  3
    232    508    499    501     1  0.0000000  1.6038667  3
    233    232    508    499     1  0.0000000  1.6038667  3
    234    232    508    499     1  0.0000000  1.6038667  3
    235    538    529    530     1  0.0000000  1.6038667  3
    235    538    529    531     1  0.0000000  1.6038667  3
    236    235    538    529     1  0.0000000  1.6038667  3
    237    235    538    529     1  0.0000000  1.6038667  3
    240    241    253    254     1  0.0000000  0.6508444  3
    240    241    253    255     1  0.0000000  0.6508444  3
    240    244    256    257     1  0.0000000  0.6508444  3
    240    244    256    258     1  0.0000000  0.6508444  3
    240    247    250    251     1  0.0000000  0.6508444  3
    240    247    250    252     1  0.0000000  0.6508444  3
    241    240    244    245     1  0.0000000  0.6508444  3
    241    240    244    246     1  0.0000000  0.6508444  3
    241    240    247    248     1  0.0000000  0.6508444  3
    241    240    247    249     1  0.0000000  0.6508444  3
    241    253    265    266     1  0.0000000  0.6508444  3
    241    253    265    267     1  0.0000000  0.6508444  3
    242    241    240    244     1  0.0000000  0.6508444  3
    242    241    240    247     1  0.0000000  0.6508444  3
    242    241    240    269     1  0.0000000  0.6508444  3
    242    241    253    265     1  0.0000000  0.6508444  3
    242    241    253    254     1  0.0000000  0.6508444  3
    242    241    253    255     1  0.0000000  0.6508444  3
    243    241    240    244     1  0.0000000  0.6508444  3
    243    241    240    247     1  0.0000000  0.6508444  3
    243    241    240    269     1  0.0000000  0.6508444  3
    243    241    253    265     1  0.0000000  0.6508444  3
    243    241    253    254     1  0.0000000  0.6508444  3
    243    241    253    255     1  0.0000000  0.6508444  3
    244    240    247    248     1  0.0000000  0.6508444  3
    244    240    247    249     1  0.0000000  0.6508444  3
    244    256    262    263     1  0.0000000  0.6508444  3
    244    256    262    264     1  0.0000000  0.6508444  3
    245    244    240    247     1  0.0000000  0.6508444  3
    245    244    240    269     1  0.0000000  0.6508444  3
    245    244    256    262     1  0.0000000  0.6508444  3
    245    244    256    257     1  0.0000000  0.6508444  3
    245    244    256    258     1  0.0000000  0.6508444  3
    246    244    240    247     1  0.0000000  0.6508444  3
    246    244    240    269     1  0.0000000  0.6508444  3
    246    244    256    262     1  0.0000000  0.6508444  3
    246    244    256    257     1  0.0000000  0.6508444  3
    246    244    256    258     1  0.0000000  0.6508444  3
    247    250    259    260     1  0.0000000  0.6508444  3
    247    250    259    261     1  0.0000000  0.6508444  3
    248    247    240    269     1  0.0000000  0.6508444  3
    248    247    250    259     1  0.0000000  0.6508444  3
    248    247    250    251     1  0.0000000  0.6508444  3
    248    247    250    252     1  0.0000000  0.6508444  3
    249    247    240    269     1  0.0000000  0.6508444  3
    249    247    250    259     1  0.0000000  0.6508444  3
    249    247    250    251     1  0.0000000  0.6508444  3
    249    247    250    252     1  0.0000000  0.6508444  3
    250    247    240    269     1  0.0000000  0.6508444  3
    251    250    259    268     1  0.0000000  1.0460000  1
    251    250    259    268     1  0.0000000  0.0000000  3
    251    250    259    260     1  0.0000000  0.6508444  3
    251    250    259    261     1  0.0000000  0.6508444  3
    252    250    259    268     1  0.0000000  1.0460000  1
    252    250    259    268     1  0.0000000  0.0000000  3
    252    250    259    260     1  0.0000000  0.6508444  3
    252    250    259    261     1  0.0000000  0.6508444  3
    253    241    240    269     1  0.0000000  0.6508444  3
    254    253    265    598     1  0.0000000  1.0460000  1
    254    253    265    598     1  0.0000000  0.0000000  3
    254    253    265    266     1  0.0000000  0.6508444  3
    254    253    265    267     1  0.0000000  0.6508444  3
    255    253    265    598     1  0.0000000  1.0460000  1
    255    253    265    598     1  0.0000000  0.0000000  3
    255    253    265    266     1  0.0000000  0.6508444  3
    255    253    265    267     1  0.0000000  0.6508444  3
    256    244    240    269     1  0.0000000  0.6508444  3
    257    256    262    568     1  0.0000000  1.0460000  1
    257    256    262    568     1  0.0000000  0.0000000  3
    257    256    262    263     1  0.0000000  0.6508444  3
    257    256    262    264     1  0.0000000  0.6508444  3
    258    256    262    568     1  0.0000000  1.0460000  1
    258    256    262    568     1  0.0000000  0.0000000  3
    258    256    262    263     1  0.0000000  0.6508444  3
    258    256    262    264     1  0.0000000  0.6508444  3
    262    568    559    560     1  0.0000000  1.6038667  3
    262    568    559    561     1  0.0000000  1.6038667  3
    263    262    568    559     1  0.0000000  1.6038667  3
    264    262    568    559     1  0.0000000  1.6038667  3
    265    598    589    590     1  0.0000000  1.6038667  3
    265    598    589    591     1  0.0000000  1.6038667  3
    266    265    598    589     1  0.0000000  1.6038667  3
    267    265    598    589     1  0.0000000  1.6038667  3
    270    271    283    284     1  0.0000000  0.6508444  3
    270    271    283    285     1  0.0000000  0.6508444  3
    270    274    286    287     1  0.0000000  0.6508444  3
    270    274    286    288     1  0.0000000  0.6508444  3
    270    277    280    281     1  0.0000000  0.6508444  3
    270    277    280    282     1  0.0000000  0.6508444  3
    271    270    274    275     1  0.0000000  0.6508444  3
    271    270    274    276     1  0.0000000  0.6508444  3
    271    270    277    278     1  0.0000000  0.6508444  3
    271    270    277    279     1  0.0000000  0.6508444  3
    271    283    295    296     1  0.0000000  0.6508444  3
    271    283    295    297     1  0.0000000  0.6508444  3
    272    271    270    274     1  0.0000000  0.6508444  3
    272    271    270    277     1  0.0000000  0.6508444  3
    272    271    270    299     1  0.0000000  0.6508444  3
    272    271    283    295     1  0.0000000  0.6508444  3
    272    271    283    284     1  0.0000000  0.6508444  3
    272    271    283    285     1  0.0000000  0.6508444  3
    273    271    270    274     1  0.0000000  0.6508444  3
    273    271    270    277     1  0.0000000  0.6508444  3
    273    271    270    299     1  0.0000000  0.6508444  3
    273    271    283    295     1  0.0000000  0.6508444  3
    273    271    283    284     1  0.0000000  0.6508444  3
    273    271    283    285     1  0.0000000  0.6508444  3
    274    270    277    278     1  0.0000000  0.6508444  3
    274    270    277    279     1  0.0000000  0.6508444  3
    274    286    292    293     1  0.0000000  0.6508444  3
    274    286    292    294     1  0.0000000  0.6508444  3
    275    274    270    277     1  0.0000000  0.6508444  3
    275    274    270    299     1  0.0000000  0.6508444  3
    275    274    286    292     1  0.0000000  0.6508444  3
    275    274    286    287     1  0.0000000  0.6508444  3
    275    274    286    288     1  0.0000000  0.6508444  3
    276    274    270    277     1  0.0000000  0.6508444  3
    276    274    270    299     1  0.0000000  0.6508444  3
    276    274    286    292     1  0.0000000  0.6508444  3
    276    274    286    287     1  0.0000000  0.6508444  3
    276    274    286    288     1  0.0000000  0.6508444  3
    277    280    289    290     1  0.0000000  0.6508444  3
    277    280    289    291     1  0.0000000  0.6508444  3
    278    277    270    299     1  0.0000000  0.6508444  3
    278    277    280    289     1  0.0000000  0.6508444  3
    278    277    280    281     1  0.0000000  0.6508444  3
    278    277    280    282     1  0.0000000  0.6508444  3
    279    277    270    299     1  0.0000000  0.6508444  3
    279    277    280    289     1  0.0000000  0.6508444  3
    279    277    280    281     1  0.0000000  0.6508444  3
    279    277    280    282     1  0.0000000  0.6508444  3
    280    277    270    299     1  0.0000000  0.6508444  3
    281    280    289    298     1  0.0000000  1.0460000  1
    281    280    289    298     1  0.0000000  0.0000000  3
    281    280    289    290     1  0.0000000  0.6508444  3
    281    280    289    291     1  0.0000000  0.6508444  3
    282    280    289    298     1  0.0000000  1.0460000  1
    282    280    289    298     1  0.0000000  0.0000000  3
    282    280    289    290     1  0.0000000  0.6508444  3
    282    280    289    291     1  0.0000000  0.6508444  3
    283    271    270    299     1  0.0000000  0.6508444  3
    284    283    295    658     1  0.0000000  1.0460000  1
    284    283    295    658     1  0.0000000  0.0000000  3
    284    283    295    296     1  0.0000000  0.6508444  3
    284    283    295    297     1  0.0000000  0.6508444  3
    285    283    295    658     1  0.0000000  1.0460000  1
    285    283    295    658     1  0.0000000  0.0000000  3
    285    283    295    296     1  0.0000000  0.6508444  3
    285    283    295    297     1  0.0000000  0.6508444  3
    286    274    270    299     1  0.0000000  0.6508444  3
    287    286    292    628     1  0.0000000  1.0460000  1
    287    286    292    628     1  0.0000000  0.0000000  3
    287    286    292    293     1  0.0000000  0.6508444  3
    287    286    292    294     1  0.0000000  0.6508444  3
    288    286    292    628     1  0.0000000  1.0460000  1
    288    286    292    628     1  0.0000000  0.0000000  3
    288    286    292    293     1  0.0000000  0.6508444  3
    288    286    292    294     1  0.0000000  0.6508444  3
    292    628    619    620     1  0.0000000  1.6038667  3
    292    628    619    621     1  0.0000000  1.6038667  3
    293    292    628    619     1  0.0000000  1.6038667  3
    294    292    628    619     1  0.0000000  1.6038667  3
    295    658    649    650     1  0.0000000  1.6038667  3
    295    658    649    651     1  0.0000000  1.6038667  3
    296    295    658    649     1  0.0000000  1.6038667  3
    297    295    658    649     1  0.0000000  1.6038667  3
    300    301    313    314     1  0.0000000  0.6508444  3
    300    301    313    315     1  0.0000000  0.6508444  3
    300    304    316    317     1  0.0000000  0.6508444  3
    300    304    316    318     1  0.0000000  0.6508444  3
    300    307    310    311     1  0.0000000  0.6508444  3
    300    307    310    312     1  0.0000000  0.6508444  3
    301    300    304    305     1  0.0000000  0.6508444  3
    301    300    304    306     1  0.0000000  0.6508444  3
    301    300    307    308     1  0.0000000  0.6508444  3
    301    300    307    309     1  0.0000000  0.6508444  3
    301    313    325    326     1  0.0000000  0.6508444  3
    301    313    325    327     1  0.0000000  0.6508444  3
    302    301    300    304     1  0.0000000  0.6508444  3
    302    301    300    307     1  0.0000000  0.6508444  3
    302    301    300    329     1  0.0000000  0.6508444  3
    302    301    313    325     1  0.0000000  0.6508444  3
    302    301    313    314     1  0.0000000  0.6508444  3
    302    301    313    315     1  0.0000000  0.6508444  3
    303    301    300    304     1  0.0000000  0.6508444  3
    303    301    300    307     1  0.0000000  0.6508444  3
    303    301    300    329     1  0.0000000  0.6508444  3
    303    301    313    325     1  0.0000000  0.6508444  3
    303    301    313    314     1  0.0000000  0.6508444  3
    303    301    313    315     1  0.0000000  0.6508444  3
    304    300    307    308     1  0.0000000  0.6508444  3
    304    300    307    309     1  0.0000000  0.6508444  3
    304    316    322    323     1  0.0000000  0.6508444  3
    304    316    322    324     1  0.0000000  0.6508444  3
    305    304    300    307     1  0.0000000  0.6508444  3
    305    304    300    329     1  0.0000000  0.6508444  3
    305    304    316    322     1  0.0000000  0.6508444  3
    305    304    316    317     1  0.0000000  0.6508444  3
    305    304    316    318     1  0.0000000  0.6508444  3
    306    304    300    307     1  0.0000000  0.6508444  3
    306    304    300    329     1  0.0000000  0.6508444  3
    306    304    316    322     1  0.0000000  0.6508444  3
    306    304    316    317     1  0.0000000  0.6508444  3
    306    304    316    318     1  0.0000000  0.6508444  3
    307    310    319    320     1  0.0000000  0.6508444  3
    307    310    319    321     1  0.0000000  0.6508444  3
    308    307    300    329     1  0.0000000  0.6508444  3
    308    307    310    319     1  0.0000000  0.6508444  3
    308    307    310    311     1  0.0000000  0.6508444  3
    308    307    310    312     1  0.0000000  0.6508444  3
    309    307    300    329     1  0.0000000  0.6508444  3
    309    307    310    319     1  0.0000000  0.6508444  3
    309    307    310    311     1  0.0000000  0.6508444  3
    309    307    310    312     1  0.0000000  0.6508444  3
    310    307    300    329     1  0.0000000  0.6508444  3
    311    310    319    328     1  0.0000000  1.0460000  1
    311    310    319    328     1  0.0000000  0.0000000  3
    311    310    319    320     1  0.0000000  0.6508444  3
    311    310    319    321     1  0.0000000  0.6508444  3
    312    310    319    328     1  0.0000000  1.0460000  1
    312    310    319    328     1  0.0000000  0.0000000  3
    312    310    319    320     1  0.0000000  0.6508444  3
    312    310    319    321     1  0.0000000  0.6508444  3
    313    301    300    329     1  0.0000000  0.6508444  3
    314    313    325    718     1  0.0000000  1.0460000  1
    314    313    325    718     1  0.0000000  0.0000000  3
    314    313    325    326     1  0.0000000  0.6508444  3
    314    313    325    327     1  0.0000000  0.6508444  3
    315    313    325    718     1  0.0000000  1.0460000  1
    315    313    325    718     1  0.0000000  0.0000000  3
    315    313    325    326     1  0.0000000  0.6508444  3
    315    313    325    327     1  0.0000000  0.6508444  3
    316    304    300    329     1  0.0000000  0.6508444  3
    317    316    322    688     1  0.0000000  1.0460000  1
    317    316    322    688     1  0.0000000  0.0000000  3
    317    316    322    323     1  0.0000000  0.6508444  3
    317    316    322    324     1  0.0000000  0.6508444  3
    318    316    322    688     1  0.0000000  1.0460000  1
    318    316    322    688     1  0.0000000  0.0000000  3
    318    316    322    323     1  0.0000000  0.6508444  3
    318    316    322    324     1  0.0000000  0.6508444  3
    322    688    679    680     1  0.0000000  1.6038667  3
    322    688    679    681     1  0.0000000  1.6038667  3
    323    322    688    679     1  0.0000000  1.6038667  3
    324    322    688    679     1  0.0000000  1.6038667  3
    325    718    709    710     1  0.0000000  1.6038667  3
    325    718    709    711     1  0.0000000  1.6038667  3
    326    325    718    709     1  0.0000000  1.6038667  3
    327    325    718    709     1  0.0000000  1.6038667  3
    330    331    343    344     1  0.0000000  0.6508444  3
    330    331    343    345     1  0.0000000  0.6508444  3
    330    334    346    347     1  0.0000000  0.6508444  3
    330    334    346    348     1  0.0000000  0.6508444  3
    330    337    340    341     1  0.0000000  0.6508444  3
    330    337    340    342     1  0.0000000  0.6508444  3
    331    330    334    335     1  0.0000000  0.6508444  3
    331    330    334    336     1  0.0000000  0.6508444  3
    331    330    337    338     1  0.0000000  0.6508444  3
    331    330    337    339     1  0.0000000  0.6508444  3
    331    343    355    356     1  0.0000000  0.6508444  3
    331    343    355    357     1  0.0000000  0.6508444  3
    332    331    330    334     1  0.0000000  0.6508444  3
    332    331    330    337     1  0.0000000  0.6508444  3
    332    331    330    359     1  0.0000000  0.6508444  3
    332    331    343    355     1  0.0000000  0.6508444  3
    332    331    343    344     1  0.0000000  0.6508444  3
    332    331    343    345     1  0.0000000  0.6508444  3
    333    331    330    334     1  0.0000000  0.6508444  3
    333    331    330    337     1  0.0000000  0.6508444  3
    333    331    330    359     1  0.0000000  0.6508444  3
    333    331    343    355     1  0.0000000  0.6508444  3
    333    331    343    344     1  0.0000000  0.6508444  3
    333    331    343    345     1  0.0000000  0.6508444  3
    334    330    337    338     1  0.0000000  0.6508444  3
    334    330    337    339     1  0.0000000  0.6508444  3
    334    346    352    353     1  0.0000000  0.6508444  3
    334    346    352    354     1  0.0000000  0.6508444  3
    335    334    330    337     1  0.0000000  0.6508444  3
    335    334    330    359     1  0.0000000  0.6508444  3
    335    334    346    352     1  0.0000000  0.6508444  3
    335    334    346    347     1  0.0000000  0.6508444  3
    335    334    346    348     1  0.0000000  0.6508444  3
    336    334    330    337     1  0.0000000  0.6508444  3
    336    334    330    359     1  0.0000000  0.6508444  3
    336    334    346    352     1  0.0000000  0.6508444  3
    336    334    346    347     1  0.0000000  0.6508444  3
    336    334    346    348     1  0.0000000  0.6508444  3
    337    340    349    350     1  0.0000000  0.6508444  3
    337    340    349    351     1  0.0000000  0.6508444  3
    338    337    330    359     1  0.0000000  0.6508444  3
    338    337    340    349     1  0.0000000  0.6508444  3
    338    337    340    341     1  0.0000000  0.6508444  3
    338    337    340    342     1  0.0000000  0.6508444  3
    339    337    330    359     1  0.0000000  0.6508444  3
    339    337    340    349     1  0.0000000  0.6508444  3
    339    337    340    341     1  0.0000000  0.6508444  3
    339    337    340    342     1  0.0000000  0.6508444  3
    340    337    330    359     1  0.0000000  0.6508444  3
    341    340    349    358     1  0.0000000  1.0460000  1
    341    340    349    358     1  0.0000000  0.0000000  3
    341    340    349    350     1  0.0000000  0.6508444  3
    341    340    349    351     1  0.0000000  0.6508444  3
    342    340    349    358     1  0.0000000  1.0460000  1
    342    340    349    358     1  0.0000000  0.0000000  3
    342    340    349    350     1  0.0000000  0.6508444  3
    342    340    349    351     1  0.0000000  0.6508444  3
    343    331    330    359     1  0.0000000  0.6508444  3
    344    343    355    778     1  0.0000000  1.0460000  1
    344    343    355    778     1  0.0000000  0.0000000  3
    344    343    355    356     1  0.0000000  0.6508444  3
    344    343    355    357     1  0.0000000  0.6508444  3
    345    343    355    778     1  0.0000000  1.0460000  1
    345    343    355    778     1  0.0000000  0.0000000  3
    345    343    355    356     1  0.0000000  0.6508444  3
    345    343    355    357     1  0.0000000  0.6508444  3
    346    334    330    359     1  0.0000000  0.6508444  3
    347    346    352    748     1  0.0000000  1.0460000  1
    347    346    352    748     1  0.0000000  0.0000000  3
    347    346    352    353     1  0.0000000  0.6508444  3
    347    346    352    354     1  0.0000000  0.6508444  3
    348    346    352    748     1  0.0000000  1.0460000  1
    348    346    352    748     1  0.0000000  0.0000000  3
    348    346    352    353     1  0.0000000  0.6508444  3
    348    346    352    354     1  0.0000000  0.6508444  3
    352    748    739    740     1  0.0000000  1.6038667  3
    352    748    739    741     1  0.0000000  1.6038667  3
    353    352    748    739     1  0.0000000  1.6038667  3
    354    352    748    739     1  0.0000000  1.6038667  3
    355    778    769    770     1  0.0000000  1.6038667  3
    355    778    769    771     1  0.0000000  1.6038667  3
    356    355    778    769     1  0.0000000  1.6038667  3
    357    355    778    769     1  0.0000000  1.6038667  3
    360    361    373    374     1  0.0000000  0.6508444  3
    360    361    373    375     1  0.0000000  0.6508444  3
    360    364    376    377     1  0.0000000  0.6508444  3
    360    364    376    378     1  0.0000000  0.6508444  3
    360    367    370    371     1  0.0000000  0.6508444  3
    360    367    370    372     1  0.0000000  0.6508444  3
    361    360    364    365     1  0.0000000  0.6508444  3
    361    360    364    366     1  0.0000000  0.6508444  3
    361    360    367    368     1  0.0000000  0.6508444  3
    361    360    367    369     1  0.0000000  0.6508444  3
    361    373    385    386     1  0.0000000  0.6508444  3
    361    373    385    387     1  0.0000000  0.6508444  3
    362    361    360    364     1  0.0000000  0.6508444  3
    362    361    360    367     1  0.0000000  0.6508444  3
    362    361    360    389     1  0.0000000  0.6508444  3
    362    361    373    385     1  0.0000000  0.6508444  3
    362    361    373    374     1  0.0000000  0.6508444  3
    362    361    373    375     1  0.0000000  0.6508444  3
    363    361    360    364     1  0.0000000  0.6508444  3
    363    361    360    367     1  0.0000000  0.6508444  3
    363    361    360    389     1  0.0000000  0.6508444  3
    363    361    373    385     1  0.0000000  0.6508444  3
    363    361    373    374     1  0.0000000  0.6508444  3
    363    361    373    375     1  0.0000000  0.6508444  3
    364    360    367    368     1  0.0000000  0.6508444  3
    364    360    367    369     1  0.0000000  0.6508444  3
    364    376    382    383     1  0.0000000  0.6508444  3
    364    376    382    384     1  0.0000000  0.6508444  3
    365    364    360    367     1  0.0000000  0.6508444  3
    365    364    360    389     1  0.0000000  0.6508444  3
    365    364    376    382     1  0.0000000  0.6508444  3
    365    364    376    377     1  0.0000000  0.6508444  3
    365    364    376    378     1  0.0000000  0.6508444  3
    366    364    360    367     1  0.0000000  0.6508444  3
    366    364    360    389     1  0.0000000  0.6508444  3
    366    364    376    382     1  0.0000000  0.6508444  3
    366    364    376    377     1  0.0000000  0.6508444  3
    366    364    376    378     1  0.0000000  0.6508444  3
    367    370    379    380     1  0.0000000  0.6508444  3
    367    370    379    381     1  0.0000000  0.6508444  3
    368    367    360    389     1  0.0000000  0.6508444  3
    368    367    370    379     1  0.0000000  0.6508444  3
    368    367    370    371     1  0.0000000  0.6508444  3
    368    367    370    372     1  0.0000000  0.6508444  3
    369    367    360    389     1  0.0000000  0.6508444  3
    369    367    370    379     1  0.0000000  0.6508444  3
    369    367    370    371     1  0.0000000  0.6508444  3
    369    367    370    372     1  0.0000000  0.6508444  3
    370    367    360    389     1  0.0000000  0.6508444  3
    371    370    379    388     1  0.0000000  1.0460000  1
    371    370    379    388     1  0.0000000  0.0000000  3
    371    370    379    380     1  0.0000000  0.6508444  3
    371    370    379    381     1  0.0000000  0.6508444  3
    372    370    379    388     1  0.0000000  1.0460000  1
    372    370    379    388     1  0.0000000  0.0000000  3
    372    370    379    380     1  0.0000000  0.6508444  3
    372    370    379    381     1  0.0000000  0.6508444  3
    373    361    360    389     1  0.0000000  0.6508444  3
    374    373    385    838     1  0.0000000  1.0460000  1
    374    373    385    838     1  0.0000000  0.0000000  3
    374    373    385    386     1  0.0000000  0.6508444  3
    374    373    385    387     1  0.0000000  0.6508444  3
    375    373    385    838     1  0.0000000  1.0460000  1
    375    373    385    838     1  0.0000000  0.0000000  3
    375    373    385    386     1  0.0000000  0.6508444  3
    375    373    385    387     1  0.0000000  0.6508444  3
    376    364    360    389     1  0.0000000  0.6508444  3
    377    376    382    808     1  0.0000000  1.0460000  1
    377    376    382    808     1  0.0000000  0.0000000  3
    377    376    382    383     1  0.0000000  0.6508444  3
    377    376    382    384     1  0.0000000  0.6508444  3
    378    376    382    808     1  0.0000000  1.0460000  1
    378    376    382    808     1  0.0000000  0.0000000  3
    378    376    382    383     1  0.0000000  0.6508444  3
    378    376    382    384     1  0.0000000  0.6508444  3
    382    808    799    800     1  0.0000000  1.6038667  3
    382    808    799    801     1  0.0000000  1.6038667  3
    383    382    808    799     1  0.0000000  1.6038667  3
    384    382    808    799     1  0.0000000  1.6038667  3
    385    838    829    830     1  0.0000000  1.6038667  3
    385    838    829    831     1  0.0000000  1.6038667  3
    386    385    838    829     1  0.0000000  1.6038667  3
    387    385    838    829     1  0.0000000  1.6038667  3
    390    391    403    404     1  0.0000000  0.6508444  3
    390    391    403    405     1  0.0000000  0.6508444  3
    390    394    406    407     1  0.0000000  0.6508444  3
    390    394    406    408     1  0.0000000  0.6508444  3
    390    397    400    401     1  0.0000000  0.6508444  3
    390    397    400    402     1  0.0000000  0.6508444  3
    391    390    394    395     1  0.0000000  0.6508444  3
    391    390    394    396     1  0.0000000  0.6508444  3
    391    390    397    398     1  0.0000000  0.6508444  3
    391    390    397    399     1  0.0000000  0.6508444  3
    391    403    415    416     1  0.0000000  0.6508444  3
    391    403    415    417     1  0.0000000  0.6508444  3
    392    391    390    394     1  0.0000000  0.6508444  3
    392    391    390    397     1  0.0000000  0.6508444  3
    392    391    390    419     1  0.0000000  0.6508444  3
    392    391    403    415     1  0.0000000  0.6508444  3
    392    391    403    404     1  0.0000000  0.6508444  3
    392    391    403    405     1  0.0000000  0.6508444  3
    393    391    390    394     1  0.0000000  0.6508444  3
    393    391    390    397     1  0.0000000  0.6508444  3
    393    391    390    419     1  0.0000000  0.6508444  3
    393    391    403    415     1  0.0000000  0.6508444  3
    393    391    403    404     1  0.0000000  0.6508444  3
    393    391    403    405     1  0.0000000  0.6508444  3
    394    390    397    398     1  0.0000000  0.6508444  3
    394    390    397    399     1  0.0000000  0.6508444  3
    394    406    412    413     1  0.0000000  0.6508444  3
    394    406    412    414     1  0.0000000  0.6508444  3
    395    394    390    397     1  0.0000000  0.6508444  3
    395    394    390    419     1  0.0000000  0.6508444  3
    395    394    406    412     1  0.0000000  0.6508444  3
    395    394    406    407     1  0.0000000  0.6508444  3
    395    394    406    408     1  0.0000000  0.6508444  3
    396    394    390    397     1  0.0000000  0.6508444  3
    396    394    390    419     1  0.0000000  0.6508444  3
    396    394    406    412     1  0.0000000  0.6508444  3
    396    394    406    407     1  0.0000000  0.6508444  3
    396    394    406    408     1  0.0000000  0.6508444  3
    397    400    409    410     1  0.0000000  0.6508444  3
    397    400    409    411     1  0.0000000  0.6508444  3
    398    397    390    419     1  0.0000000  0.6508444  3
    398    397    400    409     1  0.0000000  0.6508444  3
    398    397    400    401     1  0.0000000  0.6508444  3
    398    397    400    402     1  0.0000000  0.6508444  3
    399    397    390    419     1  0.0000000  0.6508444  3
    399    397    400    409     1  0.0000000  0.6508444  3
    399    397    400    401     1  0.0000000  0.6508444  3
    399    397    400    402     1  0.0000000  0.6508444  3
    400    397    390    419     1  0.0000000  0.6508444  3
    401    400    409    418     1  0.0000000  1.0460000  1
    401    400    409    418     1  0.0000000  0.0000000  3
    401    400    409    410     1  0.0000000  0.6508444  3
    401    400    409    411     1  0.0000000  0.6508444  3
    402    400    409    418     1  0.0000000  1.0460000  1
    402    400    409    418     1  0.0000000  0.0000000  3
    402    400    409    410     1  0.0000000  0.6508444  3
    402    400    409    411     1  0.0000000  0.6508444  3
    403    391    390    419     1  0.0000000  0.6508444  3
    404    403    415    898     1  0.0000000  1.0460000  1
    404    403    415    898     1  0.0000000  0.0000000  3
    404    403    415    416     1  0.0000000  0.6508444  3
    404    403    415    417     1  0.0000000  0.6508444  3
    405    403    415    898     1  0.0000000  1.0460000  1
    405    403    415    898     1  0.0000000  0.0000000  3
    405    403    415    416     1  0.0000000  0.6508444  3
    405    403    415    417     1  0.0000000  0.6508444  3
    406    394    390    419     1  0.0000000  0.6508444  3
    407    406    412    868     1  0.0000000  1.0460000  1
    407    406    412    868     1  0.0000000  0.0000000  3
    407    406    412    413     1  0.0000000  0.6508444  3
    407    406    412    414     1  0.0000000  0.6508444  3
    408    406    412    868     1  0.0000000  1.0460000  1
    408    406    412    868     1  0.0000000  0.0000000  3
    408    406    412    413     1  0.0000000  0.6508444  3
    408    406    412    414     1  0.0000000  0.6508444  3
    412    868    859    860     1  0.0000000  1.6038667  3
    412    868    859    861     1  0.0000000  1.6038667  3
    413    412    868    859     1  0.0000000  1.6038667  3
    414    412    868    859     1  0.0000000  1.6038667  3
    415    898    889    890     1  0.0000000  1.6038667  3
    415    898    889    891     1  0.0000000  1.6038667  3
    416    415    898    889     1  0.0000000  1.6038667  3
    417    415    898    889     1  0.0000000  1.6038667  3
    420    421    433    434     1  0.0000000  0.6508444  3
    420    421    433    435     1  0.0000000  0.6508444  3
    420    424    436    437     1  0.0000000  0.6508444  3
    420    424    436    438     1  0.0000000  0.6508444  3
    420    427    430    431     1  0.0000000  0.6508444  3
    420    427    430    432     1  0.0000000  0.6508444  3
    421    420    424    425     1  0.0000000  0.6508444  3
    421    420    424    426     1  0.0000000  0.6508444  3
    421    420    427    428     1  0.0000000  0.6508444  3
    421    420    427    429     1  0.0000000  0.6508444  3
    421    433    445    446     1  0.0000000  0.6508444  3
    421    433    445    447     1  0.0000000  0.6508444  3
    422    421    420    424     1  0.0000000  0.6508444  3
    422    421    420    427     1  0.0000000  0.6508444  3
    422    421    420    449     1  0.0000000  0.6508444  3
    422    421    433    445     1  0.0000000  0.6508444  3
    422    421    433    434     1  0.0000000  0.6508444  3
    422    421    433    435     1  0.0000000  0.6508444  3
    423    421    420    424     1  0.0000000  0.6508444  3
    423    421    420    427     1  0.0000000  0.6508444  3
    423    421    420    449     1  0.0000000  0.6508444  3
    423    421    433    445     1  0.0000000  0.6508444  3
    423    421    433    434     1  0.0000000  0.6508444  3
    423    421    433    435     1  0.0000000  0.6508444  3
    424    420    427    428     1  0.0000000  0.6508444  3
    424    420    427    429     1  0.0000000  0.6508444  3
    424    436    442    443     1  0.0000000  0.6508444  3
    424    436    442    444     1  0.0000000  0.6508444  3
    425    424    420    427     1  0.0000000  0.6508444  3
    425    424    420    449     1  0.0000000  0.6508444  3
    425    424    436    442     1  0.0000000  0.6508444  3
    425    424    436    437     1  0.0000000  0.6508444  3
    425    424    436    438     1  0.0000000  0.6508444  3
    426    424    420    427     1  0.0000000  0.6508444  3
    426    424    420    449     1  0.0000000  0.6508444  3
    426    424    436    442     1  0.0000000  0.6508444  3
    426    424    436    437     1  0.0000000  0.6508444  3
    426    424    436    438     1  0.0000000  0.6508444  3
    427    430    439    440     1  0.0000000  0.6508444  3
    427    430    439    441     1  0.0000000  0.6508444  3
    428    427    420    449     1  0.0000000  0.6508444  3
    428    427    430    439     1  0.0000000  0.6508444  3
    428    427    430    431     1  0.0000000  0.6508444  3
    428    427    430    432     1  0.0000000  0.6508444  3
    429    427    420    449     1  0.0000000  0.6508444  3
    429    427    430    439     1  0.0000000  0.6508444  3
    429    427    430    431     1  0.0000000  0.6508444  3
    429    427    430    432     1  0.0000000  0.6508444  3
    430    427    420    449     1  0.0000000  0.6508444  3
    431    430    439    448     1  0.0000000  1.0460000  1
    431    430    439    448     1  0.0000000  0.0000000  3
    431    430    439    440     1  0.0000000  0.6508444  3
    431    430    439    441     1  0.0000000  0.6508444  3
    432    430    439    448     1  0.0000000  1.0460000  1
    432    430    439    448     1  0.0000000  0.0000000  3
    432    430    439    440     1  0.0000000  0.6508444  3
    432    430    439    441     1  0.0000000  0.6508444  3
    433    421    420    449     1  0.0000000  0.6508444  3
    434    433    445    958     1  0.0000000  1.0460000  1
    434    433    445    958     1  0.0000000  0.0000000  3
    434    433    445    446     1  0.0000000  0.6508444  3
    434    433    445    447     1  0.0000000  0.6508444  3
    435    433    445    958     1  0.0000000  1.0460000  1
    435    433    445    958     1  0.0000000  0.0000000  3
    435    433    445    446     1  0.0000000  0.6508444  3
    435    433    445    447     1  0.0000000  0.6508444  3
    436    424    420    449     1  0.0000000  0.6508444  3
    437    436    442    928     1  0.0000000  1.0460000  1
    437    436    442    928     1  0.0000000  0.0000000  3
    437    436    442    443     1  0.0000000  0.6508444  3
    437    436    442    444     1  0.0000000  0.6508444  3
    438    436    442    928     1  0.0000000  1.0460000  1
    438    436    442    928     1  0.0000000  0.0000000  3
    438    436    442    443     1  0.0000000  0.6508444  3
    438    436    442    444     1  0.0000000  0.6508444  3
    442    928    919    920     1  0.0000000  1.6038667  3
    442    928    919    921     1  0.0000000  1.6038667  3
    443    442    928    919     1  0.0000000  1.6038667  3
    444    442    928    919     1  0.0000000  1.6038667  3
    445    958    949    950     1  0.0000000  1.6038667  3
    445    958    949    951     1  0.0000000  1.6038667  3
    446    445    958    949     1  0.0000000  1.6038667  3
    447    445    958    949     1  0.0000000  1.6038667  3
    450    451    463    464     1  0.0000000  0.6508444  3
    450    451    463    465     1  0.0000000  0.6508444  3
    450    454    466    467     1  0.0000000  0.6508444  3
    450    454    466    468     1  0.0000000  0.6508444  3
    450    457    460    461     1  0.0000000  0.6508444  3
    450    457    460    462     1  0.0000000  0.6508444  3
    451    450    454    455     1  0.0000000  0.6508444  3
    451    450    454    456     1  0.0000000  0.6508444  3
    451    450    457    458     1  0.0000000  0.6508444  3
    451    450    457    459     1  0.0000000  0.6508444  3
    451    463    475    476     1  0.0000000  0.6508444  3
    451    463    475    477     1  0.0000000  0.6508444  3
    452    451    450    454     1  0.0000000  0.6508444  3
    452    451    450    457     1  0.0000000  0.6508444  3
    452    451    450    479     1  0.0000000  0.6508444  3
    452    451    463    475     1  0.0000000  0.6508444  3
    452    451    463    464     1  0.0000000  0.6508444  3
    452    451    463    465     1  0.0000000  0.6508444  3
    453    451    450    454     1  0.0000000  0.6508444  3
    453    451    450    457     1  0.0000000  0.6508444  3
    453    451    450    479     1  0.0000000  0.6508444  3
    453    451    463    475     1  0.0000000  0.6508444  3
    453    451    463    464     1  0.0000000  0.6508444  3
    453    451    463    465     1  0.0000000  0.6508444  3
    454    450    457    458     1  0.0000000  0.6508444  3
    454    450    457    459     1  0.0000000  0.6508444  3
    454    466    472    473     1  0.0000000  0.6508444  3
    454    466    472    474     1  0.0000000  0.6508444  3
    455    454    450    457     1  0.0000000  0.6508444  3
    455    454    450    479     1  0.0000000  0.6508444  3
    455    454    466    472     1  0.0000000  0.6508444  3
    455    454    466    467     1  0.0000000  0.6508444  3
    455    454    466    468     1  0.0000000  0.6508444  3
    456    454    450    457     1  0.0000000  0.6508444  3
    456    454    450    479     1  0.0000000  0.6508444  3
    456    454    466    472     1  0.0000000  0.6508444  3
    456    454    466    467     1  0.0000000  0.6508444  3
    456    454    466    468     1  0.0000000  0.6508444  3
    457    460    469    470     1  0.0000000  0.6508444  3
    457    460    469    471     1  0.0000000  0.6508444  3
    458    457    450    479     1  0.0000000  0.6508444  3
    458    457    460    469     1  0.0000000  0.6508444  3
    458    457    460    461     1  0.0000000  0.6508444  3
    458    457    460    462     1  0.0000000  0.6508444  3
    459    457    450    479     1  0.0000000  0.6508444  3
    459    457    460    469     1  0.0000000  0.6508444  3
    459    457    460    461     1  0.0000000  0.6508444  3
    459    457    460    462     1  0.0000000  0.6508444  3
    460    457    450    479     1  0.0000000  0.6508444  3
    461    460    469    478     1  0.0000000  1.0460000  1
    461    460    469    478     1  0.0000000  0.0000000  3
    461    460    469    470     1  0.0000000  0.6508444  3
    461    460    469    471     1  0.0000000  0.6508444  3
    462    460    469    478     1  0.0000000  1.0460000  1
    462    460    469    478     1  0.0000000  0.0000000  3
    462    460    469    470     1  0.0000000  0.6508444  3
    462    460    469    471     1  0.0000000  0.6508444  3
    463    451    450    479     1  0.0000000  0.6508444  3
    464    463    475   1018     1  0.0000000  1.0460000  1
    464    463    475   1018     1  0.0000000  0.0000000  3
    464    463    475    476     1  0.0000000  0.6508444  3
    464    463    475    477     1  0.0000000  0.6508444  3
    465    463    475   1018     1  0.0000000  1.0460000  1
    465    463    475   1018     1  0.0000000  0.0000000  3
    465    463    475    476     1  0.0000000  0.6508444  3
    465    463    475    477     1  0.0000000  0.6508444  3
    466    454    450    479     1  0.0000000  0.6508444  3
    467    466    472    988     1  0.0000000  1.0460000  1
    467    466    472    988     1  0.0000000  0.0000000  3
    467    466    472    473     1  0.0000000  0.6508444  3
    467    466    472    474     1  0.0000000  0.6508444  3
    468    466    472    988     1  0.0000000  1.0460000  1
    468    466    472    988     1  0.0000000  0.0000000  3
    468    466    472    473     1  0.0000000  0.6508444  3
    468    466    472    474     1  0.0000000  0.6508444  3
    472    988    979    980     1  0.0000000  1.6038667  3
    472    988    979    981     1  0.0000000  1.6038667  3
    473    472    988    979     1  0.0000000  1.6038667  3
    474    472    988    979     1  0.0000000  1.6038667  3
    475   1018   1009   1010     1  0.0000000  1.6038667  3
    475   1018   1009   1011     1  0.0000000  1.6038667  3
    476    475   1018   1009     1  0.0000000  1.6038667  3
    477    475   1018   1009     1  0.0000000  1.6038667  3
    480    481    493    494     1  0.0000000  0.6508444  3
    480    481    493    495     1  0.0000000  0.6508444  3
    480    484    496    497     1  0.0000000  0.6508444  3
    480    484    496    498     1  0.0000000  0.6508444  3
    480    487    490    491     1  0.0000000  0.6508444  3
    480    487    490    492     1  0.0000000  0.6508444  3
    481    480    484    485     1  0.0000000  0.6508444  3
    481    480    484    486     1  0.0000000  0.6508444  3
    481    480    487    488     1  0.0000000  0.6508444  3
    481    480    487    489     1  0.0000000  0.6508444  3
    481    493    505    506     1  0.0000000  0.6508444  3
    481    493    505    507     1  0.0000000  0.6508444  3
    482    481    480    484     1  0.0000000  0.6508444  3
    482    481    480    487     1  0.0000000  0.6508444  3
    482    481    480    509     1  0.0000000  0.6508444  3
    482    481    493    505     1  0.0000000  0.6508444  3
    482    481    493    494     1  0.0000000  0.6508444  3
    482    481    493    495     1  0.0000000  0.6508444  3
    483    481    480    484     1  0.0000000  0.6508444  3
    483    481    480    487     1  0.0000000  0.6508444  3
    483    481    480    509     1  0.0000000  0.6508444  3
    483    481    493    505     1  0.0000000  0.6508444  3
    483    481    493    494     1  0.0000000  0.6508444  3
    483    481    493    495     1  0.0000000  0.6508444  3
    484    480    487    488     1  0.0000000  0.6508444  3
    484    480    487    489     1  0.0000000  0.6508444  3
    484    496    502    503     1  0.0000000  0.6508444  3
    484    496    502    504     1  0.0000000  0.6508444  3
    485    484    480    487     1  0.0000000  0.6508444  3
    485    484    480    509     1  0.0000000  0.6508444  3
    485    484    496    502     1  0.0000000  0.6508444  3
    485    484    496    497     1  0.0000000  0.6508444  3
    485    484    496    498     1  0.0000000  0.6508444  3
    486    484    480    487     1  0.0000000  0.6508444  3
    486    484    480    509     1  0.0000000  0.6508444  3
    486    484    496    502     1  0.0000000  0.6508444  3
    486    484    496    497     1  0.0000000  0.6508444  3
    486    484    496    498     1  0.0000000  0.6508444  3
    487    490    499    500     1  0.0000000  0.6508444  3
    487    490    499    501     1  0.0000000  0.6508444  3
    488    487    480    509     1  0.0000000  0.6508444  3
    488    487    490    499     1  0.0000000  0.6508444  3
    488    487    490    491     1  0.0000000  0.6508444  3
    488    487    490    492     1  0.0000000  0.6508444  3
    489    487    480    509     1  0.0000000  0.6508444  3
    489    487    490    499     1  0.0000000  0.6508444  3
    489    487    490    491     1  0.0000000  0.6508444  3
    489    487    490    492     1  0.0000000  0.6508444  3
    490    487    480    509     1  0.0000000  0.6508444  3
    491    490    499    508     1  0.0000000  1.0460000  1
    491    490    499    508     1  0.0000000  0.0000000  3
    491    490    499    500     1  0.0000000  0.6508444  3
    491    490    499    501     1  0.0000000  0.6508444  3
    492    490    499    508     1  0.0000000  1.0460000  1
    492    490    499    508     1  0.0000000  0.0000000  3
    492    490    499    500     1  0.0000000  0.6508444  3
    492    490    499    501     1  0.0000000  0.6508444  3
    493    481    480    509     1  0.0000000  0.6508444  3
    494    493    505   1078     1  0.0000000  1.0460000  1
    494    493    505   1078     1  0.0000000  0.0000000  3
    494    493    505    506     1  0.0000000  0.6508444  3
    494    493    505    507     1  0.0000000  0.6508444  3
    495    493    505   1078     1  0.0000000  1.0460000  1
    495    493    505   1078     1  0.0000000  0.0000000  3
    495    493    505    506     1  0.0000000  0.6508444  3
    495    493    505    507     1  0.0000000  0.6508444  3
    496    484    480    509     1  0.0000000  0.6508444  3
    497    496    502   1048     1  0.0000000  1.0460000  1
    497    496    502   1048     1  0.0000000  0.0000000  3
    497    496    502    503     1  0.0000000  0.6508444  3
    497    496    502    504     1  0.0000000  0.6508444  3
    498    496    502   1048     1  0.0000000  1.0460000  1
    498    496    502   1048     1  0.0000000  0.0000000  3
    498    496    502    503     1  0.0000000  0.6508444  3
    498    496    502    504     1  0.0000000  0.6508444  3
    502   1048   1039   1040     1  0.0000000  1.6038667  3
    502   1048   1039   1041     1  0.0000000  1.6038667  3
    503    502   1048   1039     1  0.0000000  1.6038667  3
    504    502   1048   1039     1  0.0000000  1.6038667  3
    505   1078   1069   1070     1  0.0000000  1.6038667  3
    505   1078   1069   1071     1  0.0000000  1.6038667  3
    506    505   1078   1069     1  0.0000000  1.6038667  3
    507    505   1078   1069     1  0.0000000  1.6038667  3
    510    511    523    524     1  0.0000000  0.6508444  3
    510    511    523    525     1  0.0000000  0.6508444  3
    510    514    526    527     1  0.0000000  0.6508444  3
    510    514    526    528     1  0.0000000  0.6508444  3
    510    517    520    521     1  0.0000000  0.6508444  3
    510    517    520    522     1  0.0000000  0.6508444  3
    511    510    514    515     1  0.0000000  0.6508444  3
    511    510    514    516     1  0.0000000  0.6508444  3
    511    510    517    518     1  0.0000000  0.6508444  3
    511    510    517    519     1  0.0000000  0.6508444  3
    511    523    535    536     1  0.0000000  0.6508444  3
    511    523    535    537     1  0.0000000  0.6508444  3
    512    511    510    514     1  0.0000000  0.6508444  3
    512    511    510    517     1  0.0000000  0.6508444  3
    512    511    510    539     1  0.0000000  0.6508444  3
    512    511    523    535     1  0.0000000  0.6508444  3
    512    511    523    524     1  0.0000000  0.6508444  3
    512    511    523    525     1  0.0000000  0.6508444  3
    513    511    510    514     1  0.0000000  0.6508444  3
    513    511    510    517     1  0.0000000  0.6508444  3
    513    511    510    539     1  0.0000000  0.6508444  3
    513    511    523    535     1  0.0000000  0.6508444  3
    513    511    523    524     1  0.0000000  0.6508444  3
    513    511    523    525     1  0.0000000  0.6508444  3
    514    510    517    518     1  0.0000000  0.6508444  3
    514    510    517    519     1  0.0000000  0.6508444  3
    514    526    532    533     1  0.0000000  0.6508444  3
    514    526    532    534     1  0.0000000  0.6508444  3
    515    514    510    517     1  0.0000000  0.6508444  3
    515    514    510    539     1  0.0000000  0.6508444  3
    515    514    526    532     1  0.0000000  0.6508444  3
    515    514    526    527     1  0.0000000  0.6508444  3
    515    514    526    528     1  0.0000000  0.6508444  3
    516    514    510    517     1  0.0000000  0.6508444  3
    516    514    510    539     1  0.0000000  0.6508444  3
    516    514    526    532     1  0.0000000  0.6508444  3
    516    514    526    527     1  0.0000000  0.6508444  3
    516    514    526    528     1  0.0000000  0.6508444  3
    517    520    529    530     1  0.0000000  0.6508444  3
    517    520    529    531     1  0.0000000  0.6508444  3
    518    517    510    539     1  0.0000000  0.6508444  3
    518    517    520    529     1  0.0000000  0.6508444  3
    518    517    520    521     1  0.0000000  0.6508444  3
    518    517    520    522     1  0.0000000  0.6508444  3
    519    517    510    539     1  0.0000000  0.6508444  3
    519    517    520    529     1  0.0000000  0.6508444  3
    519    517    520    521     1  0.0000000  0.6508444  3
    519    517    520    522     1  0.0000000  0.6508444  3
    520    517    510    539     1  0.0000000  0.6508444  3
    521    520    529    538     1  0.0000000  1.0460000  1
    521    520    529    538     1  0.0000000  0.0000000  3
    521    520    529    530     1  0.0000000  0.6508444  3
    521    520    529    531     1  0.0000000  0.6508444  3
    522    520    529    538     1  0.0000000  1.0460000  1
    522    520    529    538     1  0.0000000  0.0000000  3
    522    520    529    530     1  0.0000000  0.6508444  3
    522    520    529    531     1  0.0000000  0.6508444  3
    523    511    510    539     1  0.0000000  0.6508444  3
    524    523    535   1138     1  0.0000000  1.0460000  1
    524    523    535   1138     1  0.0000000  0.0000000  3
    524    523    535    536     1  0.0000000  0.6508444  3
    524    523    535    537     1  0.0000000  0.6508444  3
    525    523    535   1138     1  0.0000000  1.0460000  1
    525    523    535   1138     1  0.0000000  0.0000000  3
    525    523    535    536     1  0.0000000  0.6508444  3
    525    523    535    537     1  0.0000000  0.6508444  3
    526    514    510    539     1  0.0000000  0.6508444  3
    527    526    532   1108     1  0.0000000  1.0460000  1
    527    526    532   1108     1  0.0000000  0.0000000  3
    527    526    532    533     1  0.0000000  0.6508444  3
    527    526    532    534     1  0.0000000  0.6508444  3
    528    526    532   1108     1  0.0000000  1.0460000  1
    528    526    532   1108     1  0.0000000  0.0000000  3
    528    526    532    533     1  0.0000000  0.6508444  3
    528    526    532    534     1  0.0000000  0.6508444  3
    532   1108   1099   1100     1  0.0000000  1.6038667  3
    532   1108   1099   1101     1  0.0000000  1.6038667  3
    533    532   1108   1099     1  0.0000000  1.6038667  3
    534    532   1108   1099     1  0.0000000  1.6038667  3
    535   1138   1129   1130     1  0.0000000  1.6038667  3
    535   1138   1129   1131     1  0.0000000  1.6038667  3
    536    535   1138   1129     1  0.0000000  1.6038667  3
    537    535   1138   1129     1  0.0000000  1.6038667  3
    540    541    553    554     1  0.0000000  0.6508444  3
    540    541    553    555     1  0.0000000  0.6508444  3
    540    544    556    557     1  0.0000000  0.6508444  3
    540    544    556    558     1  0.0000000  0.6508444  3
    540    547    550    551     1  0.0000000  0.6508444  3
    540    547    550    552     1  0.0000000  0.6508444  3
    541    540    544    545     1  0.0000000  0.6508444  3
    541    540    544    546     1  0.0000000  0.6508444  3
    541    540    547    548     1  0.0000000  0.6508444  3
    541    540    547    549     1  0.0000000  0.6508444  3
    541    553    565    566     1  0.0000000  0.6508444  3
    541    553    565    567     1  0.0000000  0.6508444  3
    542    541    540    544     1  0.0000000  0.6508444  3
    542    541    540    547     1  0.0000000  0.6508444  3
    542    541    540    569     1  0.0000000  0.6508444  3
    542    541    553    565     1  0.0000000  0.6508444  3
    542    541    553    554     1  0.0000000  0.6508444  3
    542    541    553    555     1  0.0000000  0.6508444  3
    543    541    540    544     1  0.0000000  0.6508444  3
    543    541    540    547     1  0.0000000  0.6508444  3
    543    541    540    569     1  0.0000000  0.6508444  3
    543    541    553    565     1  0.0000000  0.6508444  3
    543    541    553    554     1  0.0000000  0.6508444  3
    543    541    553    555     1  0.0000000  0.6508444  3
    544    540    547    548     1  0.0000000  0.6508444  3
    544    540    547    549     1  0.0000000  0.6508444  3
    544    556    562    563     1  0.0000000  0.6508444  3
    544    556    562    564     1  0.0000000  0.6508444  3
    545    544    540    547     1  0.0000000  0.6508444  3
    545    544    540    569     1  0.0000000  0.6508444  3
    545    544    556    562     1  0.0000000  0.6508444  3
    545    544    556    557     1  0.0000000  0.6508444  3
    545    544    556    558     1  0.0000000  0.6508444  3
    546    544    540    547     1  0.0000000  0.6508444  3
    546    544    540    569     1  0.0000000  0.6508444  3
    546    544    556    562     1  0.0000000  0.6508444  3
    546    544    556    557     1  0.0000000  0.6508444  3
    546    544    556    558     1  0.0000000  0.6508444  3
    547    550    559    560     1  0.0000000  0.6508444  3
    547    550    559    561     1  0.0000000  0.6508444  3
    548    547    540    569     1  0.0000000  0.6508444  3
    548    547    550    559     1  0.0000000  0.6508444  3
    548    547    550    551     1  0.0000000  0.6508444  3
    548    547    550    552     1  0.0000000  0.6508444  3
    549    547    540    569     1  0.0000000  0.6508444  3
    549    547    550    559     1  0.0000000  0.6508444  3
    549    547    550    551     1  0.0000000  0.6508444  3
    549    547    550    552     1  0.0000000  0.6508444  3
    550    547    540    569     1  0.0000000  0.6508444  3
    551    550    559    568     1  0.0000000  1.0460000  1
    551    550    559    568     1  0.0000000  0.0000000  3
    551    550    559    560     1  0.0000000  0.6508444  3
    551    550    559    561     1  0.0000000  0.6508444  3
    552    550    559    568     1  0.0000000  1.0460000  1
    552    550    559    568     1  0.0000000  0.0000000  3
    552    550    559    560     1  0.0000000  0.6508444  3
    552    550    559    561     1  0.0000000  0.6508444  3
    553    541    540    569     1  0.0000000  0.6508444  3
    554    553    565   1198     1  0.0000000  1.0460000  1
    554    553    565   1198     1  0.0000000  0.0000000  3
    554    553    565    566     1  0.0000000  0.6508444  3
    554    553    565    567     1  0.0000000  0.6508444  3
    555    553    565   1198     1  0.0000000  1.0460000  1
    555    553    565   1198     1  0.0000000  0.0000000  3
    555    553    565    566     1  0.0000000  0.6508444  3
    555    553    565    567     1  0.0000000  0.6508444  3
    556    544    540    569     1  0.0000000  0.6508444  3
    557    556    562   1168     1  0.0000000  1.0460000  1
    557    556    562   1168     1  0.0000000  0.0000000  3
    557    556    562    563     1  0.0000000  0.6508444  3
    557    556    562    564     1  0.0000000  0.6508444  3
    558    556    562   1168     1  0.0000000  1.0460000  1
    558    556    562   1168     1  0.0000000  0.0000000  3
    558    556    562    563     1  0.0000000  0.6508444  3
    558    556    562    564     1  0.0000000  0.6508444  3
    562   1168   1159   1160     1  0.0000000  1.6038667  3
    562   1168   1159   1161     1  0.0000000  1.6038667  3
    563    562   1168   1159     1  0.0000000  1.6038667  3
    564    562   1168   1159     1  0.0000000  1.6038667  3
    565   1198   1189   1190     1  0.0000000  1.6038667  3
    565   1198   1189   1191     1  0.0000000  1.6038667  3
    566    565   1198   1189     1  0.0000000  1.6038667  3
    567    565   1198   1189     1  0.0000000  1.6038667  3
    570    571    583    584     1  0.0000000  0.6508444  3
    570    571    583    585     1  0.0000000  0.6508444  3
    570    574    586    587     1  0.0000000  0.6508444  3
    570    574    586    588     1  0.0000000  0.6508444  3
    570    577    580    581     1  0.0000000  0.6508444  3
    570    577    580    582     1  0.0000000  0.6508444  3
    571    570    574    575     1  0.0000000  0.6508444  3
    571    570    574    576     1  0.0000000  0.6508444  3
    571    570    577    578     1  0.0000000  0.6508444  3
    571    570    577    579     1  0.0000000  0.6508444  3
    571    583    595    596     1  0.0000000  0.6508444  3
    571    583    595    597     1  0.0000000  0.6508444  3
    572    571    570    574     1  0.0000000  0.6508444  3
    572    571    570    577     1  0.0000000  0.6508444  3
    572    571    570    599     1  0.0000000  0.6508444  3
    572    571    583    595     1  0.0000000  0.6508444  3
    572    571    583    584     1  0.0000000  0.6508444  3
    572    571    583    585     1  0.0000000  0.6508444  3
    573    571    570    574     1  0.0000000  0.6508444  3
    573    571    570    577     1  0.0000000  0.6508444  3
    573    571    570    599     1  0.0000000  0.6508444  3
    573    571    583    595     1  0.0000000  0.6508444  3
    573    571    583    584     1  0.0000000  0.6508444  3
    573    571    583    585     1  0.0000000  0.6508444  3
    574    570    577    578     1  0.0000000  0.6508444  3
    574    570    577    579     1  0.0000000  0.6508444  3
    574    586    592    593     1  0.0000000  0.6508444  3
    574    586    592    594     1  0.0000000  0.6508444  3
    575    574    570    577     1  0.0000000  0.6508444  3
    575    574    570    599     1  0.0000000  0.6508444  3
    575    574    586    592     1  0.0000000  0.6508444  3
    575    574    586    587     1  0.0000000  0.6508444  3
    575    574    586    588     1  0.0000000  0.6508444  3
    576    574    570    577     1  0.0000000  0.6508444  3
    576    574    570    599     1  0.0000000  0.6508444  3
    576    574    586    592     1  0.0000000  0.6508444  3
    576    574    586    587     1  0.0000000  0.6508444  3
    576    574    586    588     1  0.0000000  0.6508444  3
    577    580    589    590     1  0.0000000  0.6508444  3
    577    580    589    591     1  0.0000000  0.6508444  3
    578    577    570    599     1  0.0000000  0.6508444  3
    578    577    580    589     1  0.0000000  0.6508444  3
    578    577    580    581     1  0.0000000  0.6508444  3
    578    577    580    582     1  0.0000000  0.6508444  3
    579    577    570    599     1  0.0000000  0.6508444  3
    579    577    580    589     1  0.0000000  0.6508444  3
    579    577    580    581     1  0.0000000  0.6508444  3
    579    577    580    582     1  0.0000000  0.6508444  3
    580    577    570    599     1  0.0000000  0.6508444  3
    581    580    589    598     1  0.0000000  1.0460000  1
    581    580    589    598     1  0.0000000  0.0000000  3
    581    580    589    590     1  0.0000000  0.6508444  3
    581    580    589    591     1  0.0000000  0.6508444  3
    582    580    589    598     1  0.0000000  1.0460000  1
    582    580    589    598     1  0.0000000  0.0000000  3
    582    580    589    590     1  0.0000000  0.6508444  3
    582    580    589    591     1  0.0000000  0.6508444  3
    583    571    570    599     1  0.0000000  0.6508444  3
    584    583    595   1258     1  0.0000000  1.0460000  1
    584    583    595   1258     1  0.0000000  0.0000000  3
    584    583    595    596     1  0.0000000  0.6508444  3
    584    583    595    597     1  0.0000000  0.6508444  3
    585    583    595   1258     1  0.0000000  1.0460000  1
    585    583    595   1258     1  0.0000000  0.0000000  3
    585    583    595    596     1  0.0000000  0.6508444  3
    585    583    595    597     1  0.0000000  0.6508444  3
    586    574    570    599     1  0.0000000  0.6508444  3
    587    586    592   1228     1  0.0000000  1.0460000  1
    587    586    592   1228     1  0.0000000  0.0000000  3
    587    586    592    593     1  0.0000000  0.6508444  3
    587    586    592    594     1  0.0000000  0.6508444  3
    588    586    592   1228     1  0.0000000  1.0460000  1
    588    586    592   1228     1  0.0000000  0.0000000  3
    588    586    592    593     1  0.0000000  0.6508444  3
    588    586    592    594     1  0.0000000  0.6508444  3
    592   1228   1219   1220     1  0.0000000  1.6038667  3
    592   1228   1219   1221     1  0.0000000  1.6038667  3
    593    592   1228   1219     1  0.0000000  1.6038667  3
    594    592   1228   1219     1  0.0000000  1.6038667  3
    595   1258   1249   1250     1  0.0000000  1.6038667  3
    595   1258   1249   1251     1  0.0000000  1.6038667  3
    596    595   1258   1249     1  0.0000000  1.6038667  3
    597    595   1258   1249     1  0.0000000  1.6038667  3
    600    601    613    614     1  0.0000000  0.6508444  3
    600    601    613    615     1  0.0000000  0.6508444  3
    600    604    616    617     1  0.0000000  0.6508444  3
    600    604    616    618     1  0.0000000  0.6508444  3
    600    607    610    611     1  0.0000000  0.6508444  3
    600    607    610    612     1  0.0000000  0.6508444  3
    601    600    604    605     1  0.0000000  0.6508444  3
    601    600    604    606     1  0.0000000  0.6508444  3
    601    600    607    608     1  0.0000000  0.6508444  3
    601    600    607    609     1  0.0000000  0.6508444  3
    601    613    625    626     1  0.0000000  0.6508444  3
    601    613    625    627     1  0.0000000  0.6508444  3
    602    601    600    604     1  0.0000000  0.6508444  3
    602    601    600    607     1  0.0000000  0.6508444  3
    602    601    600    629     1  0.0000000  0.6508444  3
    602    601    613    625     1  0.0000000  0.6508444  3
    602    601    613    614     1  0.0000000  0.6508444  3
    602    601    613    615     1  0.0000000  0.6508444  3
    603    601    600    604     1  0.0000000  0.6508444  3
    603    601    600    607     1  0.0000000  0.6508444  3
    603    601    600    629     1  0.0000000  0.6508444  3
    603    601    613    625     1  0.0000000  0.6508444  3
    603    601    613    614     1  0.0000000  0.6508444  3
    603    601    613    615     1  0.0000000  0.6508444  3
    604    600    607    608     1  0.0000000  0.6508444  3
    604    600    607    609     1  0.0000000  0.6508444  3
    604    616    622    623     1  0.0000000  0.6508444  3
    604    616    622    624     1  0.0000000  0.6508444  3
    605    604    600    607     1  0.0000000  0.6508444  3
    605    604    600    629     1  0.0000000  0.6508444  3
    605    604    616    622     1  0.0000000  0.6508444  3
    605    604    616    617     1  0.0000000  0.6508444  3
    605    604    616    618     1  0.0000000  0.6508444  3
    606    604    600    607     1  0.0000000  0.6508444  3
    606    604    600    629     1  0.0000000  0.6508444  3
    606    604    616    622     1  0.0000000  0.6508444  3
    606    604    616    617     1  0.0000000  0.6508444  3
    606    604    616    618     1  0.0000000  0.6508444  3
    607    610    619    620     1  0.0000000  0.6508444  3
    607    610    619    621     1  0.0000000  0.6508444  3
    608    607    600    629     1  0.0000000  0.6508444  3
    608    607    610    619     1  0.0000000  0.6508444  3
    608    607    610    611     1  0.0000000  0.6508444  3
    608    607    610    612     1  0.0000000  0.6508444  3
    609    607    600    629     1  0.0000000  0.6508444  3
    609    607    610    619     1  0.0000000  0.6508444  3
    609    607    610    611     1  0.0000000  0.6508444  3
    609    607    610    612     1  0.0000000  0.6508444  3
    610    607    600    629     1  0.0000000  0.6508444  3
    611    610    619    628     1  0.0000000  1.0460000  1
    611    610    619    628     1  0.0000000  0.0000000  3
    611    610    619    620     1  0.0000000  0.6508444  3
    611    610    619    621     1  0.0000000  0.6508444  3
    612    610    619    628     1  0.0000000  1.0460000  1
    612    610    619    628     1  0.0000000  0.0000000  3
    612    610    619    620     1  0.0000000  0.6508444  3
    612    610    619    621     1  0.0000000  0.6508444  3
    613    601    600    629     1  0.0000000  0.6508444  3
    614    613    625   1318     1  0.0000000  1.0460000  1
    614    613    625   1318     1  0.0000000  0.0000000  3
    614    613    625    626     1  0.0000000  0.6508444  3
    614    613    625    627     1  0.0000000  0.6508444  3
    615    613    625   1318     1  0.0000000  1.0460000  1
    615    613    625   1318     1  0.0000000  0.0000000  3
    615    613    625    626     1  0.0000000  0.6508444  3
    615    613    625    627     1  0.0000000  0.6508444  3
    616    604    600    629     1  0.0000000  0.6508444  3
    617    616    622   1288     1  0.0000000  1.0460000  1
    617    616    622   1288     1  0.0000000  0.0000000  3
    617    616    622    623     1  0.0000000  0.6508444  3
    617    616    622    624     1  0.0000000  0.6508444  3
    618    616    622   1288     1  0.0000000  1.0460000  1
    618    616    622   1288     1  0.0000000  0.0000000  3
    618    616    622    623     1  0.0000000  0.6508444  3
    618    616    622    624     1  0.0000000  0.6508444  3
    622   1288   1279   1280     1  0.0000000  1.6038667  3
    622   1288   1279   1281     1  0.0000000  1.6038667  3
    623    622   1288   1279     1  0.0000000  1.6038667  3
    624    622   1288   1279     1  0.0000000  1.6038667  3
    625   1318   1309   1310     1  0.0000000  1.6038667  3
    625   1318   1309   1311     1  0.0000000  1.6038667  3
    626    625   1318   1309     1  0.0000000  1.6038667  3
    627    625   1318   1309     1  0.0000000  1.6038667  3
    630    631    643    644     1  0.0000000  0.6508444  3
    630    631    643    645     1  0.0000000  0.6508444  3
    630    634    646    647     1  0.0000000  0.6508444  3
    630    634    646    648     1  0.0000000  0.6508444  3
    630    637    640    641     1  0.0000000  0.6508444  3
    630    637    640    642     1  0.0000000  0.6508444  3
    631    630    634    635     1  0.0000000  0.6508444  3
    631    630    634    636     1  0.0000000  0.6508444  3
    631    630    637    638     1  0.0000000  0.6508444  3
    631    630    637    639     1  0.0000000  0.6508444  3
    631    643    655    656     1  0.0000000  0.6508444  3
    631    643    655    657     1  0.0000000  0.6508444  3
    632    631    630    634     1  0.0000000  0.6508444  3
    632    631    630    637     1  0.0000000  0.6508444  3
    632    631    630    659     1  0.0000000  0.6508444  3
    632    631    643    655     1  0.0000000  0.6508444  3
    632    631    643    644     1  0.0000000  0.6508444  3
    632    631    643    645     1  0.0000000  0.6508444  3
    633    631    630    634     1  0.0000000  0.6508444  3
    633    631    630    637     1  0.0000000  0.6508444  3
    633    631    630    659     1  0.0000000  0.6508444  3
    633    631    643    655     1  0.0000000  0.6508444  3
    633    631    643    644     1  0.0000000  0.6508444  3
    633    631    643    645     1  0.0000000  0.6508444  3
    634    630    637    638     1  0.0000000  0.6508444  3
    634    630    637    639     1  0.0000000  0.6508444  3
    634    646    652    653     1  0.0000000  0.6508444  3
    634    646    652    654     1  0.0000000  0.6508444  3
    635    634    630    637     1  0.0000000  0.6508444  3
    635    634    630    659     1  0.0000000  0.6508444  3
    635    634    646    652     1  0.0000000  0.6508444  3
    635    634    646    647     1  0.0000000  0.6508444  3
    635    634    646    648     1  0.0000000  0.6508444  3
    636    634    630    637     1  0.0000000  0.6508444  3
    636    634    630    659     1  0.0000000  0.6508444  3
    636    634    646    652     1  0.0000000  0.6508444  3
    636    634    646    647     1  0.0000000  0.6508444  3
    636    634    646    648     1  0.0000000  0.6508444  3
    637    640    649    650     1  0.0000000  0.6508444  3
    637    640    649    651     1  0.0000000  0.6508444  3
    638    637    630    659     1  0.0000000  0.6508444  3
    638    637    640    649     1  0.0000000  0.6508444  3
    638    637    640    641     1  0.0000000  0.6508444  3
    638    637    640    642     1  0.0000000  0.6508444  3
    639    637    630    659     1  0.0000000  0.6508444  3
    639    637    640    649     1  0.0000000  0.6508444  3
    639    637    640    641     1  0.0000000  0.6508444  3
    639    637    640    642     1  0.0000000  0.6508444  3
    640    637    630    659     1  0.0000000  0.6508444  3
    641    640    649    658     1  0.0000000  1.0460000  1
    641    640    649    658     1  0.0000000  0.0000000  3
    641    640    649    650     1  0.0000000  0.6508444  3
    641    640    649    651     1  0.0000000  0.6508444  3
    642    640    649    658     1  0.0000000  1.0460000  1
    642    640    649    658     1  0.0000000  0.0000000  3
    642    640    649    650     1  0.0000000  0.6508444  3
    642    640    649    651     1  0.0000000  0.6508444  3
    643    631    630    659     1  0.0000000  0.6508444  3
    644    643    655   1378     1  0.0000000  1.0460000  1
    644    643    655   1378     1  0.0000000  0.0000000  3
    644    643    655    656     1  0.0000000  0.6508444  3
    644    643    655    657     1  0.0000000  0.6508444  3
    645    643    655   1378     1  0.0000000  1.0460000  1
    645    643    655   1378     1  0.0000000  0.0000000  3
    645    643    655    656     1  0.0000000  0.6508444  3
    645    643    655    657     1  0.0000000  0.6508444  3
    646    634    630    659     1  0.0000000  0.6508444  3
    647    646    652   1348     1  0.0000000  1.0460000  1
    647    646    652   1348     1  0.0000000  0.0000000  3
    647    646    652    653     1  0.0000000  0.6508444  3
    647    646    652    654     1  0.0000000  0.6508444  3
    648    646    652   1348     1  0.0000000  1.0460000  1
    648    646    652   1348     1  0.0000000  0.0000000  3
    648    646    652    653     1  0.0000000  0.6508444  3
    648    646    652    654     1  0.0000000  0.6508444  3
    652   1348   1339   1340     1  0.0000000  1.6038667  3
    652   1348   1339   1341     1  0.0000000  1.6038667  3
    653    652   1348   1339     1  0.0000000  1.6038667  3
    654    652   1348   1339     1  0.0000000  1.6038667  3
    655   1378   1369   1370     1  0.0000000  1.6038667  3
    655   1378   1369   1371     1  0.0000000  1.6038667  3
    656    655   1378   1369     1  0.0000000  1.6038667  3
    657    655   1378   1369     1  0.0000000  1.6038667  3
    660    661    673    674     1  0.0000000  0.6508444  3
    660    661    673    675     1  0.0000000  0.6508444  3
    660    664    676    677     1  0.0000000  0.6508444  3
    660    664    676    678     1  0.0000000  0.6508444  3
    660    667    670    671     1  0.0000000  0.6508444  3
    660    667    670    672     1  0.0000000  0.6508444  3
    661    660    664    665     1  0.0000000  0.6508444  3
    661    660    664    666     1  0.0000000  0.6508444  3
    661    660    667    668     1  0.0000000  0.6508444  3
    661    660    667    669     1  0.0000000  0.6508444  3
    661    673    685    686     1  0.0000000  0.6508444  3
    661    673    685    687     1  0.0000000  0.6508444  3
    662    661    660    664     1  0.0000000  0.6508444  3
    662    661    660    667     1  0.0000000  0.6508444  3
    662    661    660    689     1  0.0000000  0.6508444  3
    662    661    673    685     1  0.0000000  0.6508444  3
    662    661    673    674     1  0.0000000  0.6508444  3
    662    661    673    675     1  0.0000000  0.6508444  3
    663    661    660    664     1  0.0000000  0.6508444  3
    663    661    660    667     1  0.0000000  0.6508444  3
    663    661    660    689     1  0.0000000  0.6508444  3
    663    661    673    685     1  0.0000000  0.6508444  3
    663    661    673    674     1  0.0000000  0.6508444  3
    663    661    673    675     1  0.0000000  0.6508444  3
    664    660    667    668     1  0.0000000  0.6508444  3
    664    660    667    669     1  0.0000000  0.6508444  3
    664    676    682    683     1  0.0000000  0.6508444  3
    664    676    682    684     1  0.0000000  0.6508444  3
    665    664    660    667     1  0.0000000  0.6508444  3
    665    664    660    689     1  0.0000000  0.6508444  3
    665    664    676    682     1  0.0000000  0.6508444  3
    665    664    676    677     1  0.0000000  0.6508444  3
    665    664    676    678     1  0.0000000  0.6508444  3
    666    664    660    667     1  0.0000000  0.6508444  3
    666    664    660    689     1  0.0000000  0.6508444  3
    666    664    676    682     1  0.0000000  0.6508444  3
    666    664    676    677     1  0.0000000  0.6508444  3
    666    664    676    678     1  0.0000000  0.6508444  3
    667    670    679    680     1  0.0000000  0.6508444  3
    667    670    679    681     1  0.0000000  0.6508444  3
    668    667    660    689     1  0.0000000  0.6508444  3
    668    667    670    679     1  0.0000000  0.6508444  3
    668    667    670    671     1  0.0000000  0.6508444  3
    668    667    670    672     1  0.0000000  0.6508444  3
    669    667    660    689     1  0.0000000  0.6508444  3
    669    667    670    679     1  0.0000000  0.6508444  3
    669    667    670    671     1  0.0000000  0.6508444  3
    669    667    670    672     1  0.0000000  0.6508444  3
    670    667    660    689     1  0.0000000  0.6508444  3
    671    670    679    688     1  0.0000000  1.0460000  1
    671    670    679    688     1  0.0000000  0.0000000  3
    671    670    679    680     1  0.0000000  0.6508444  3
    671    670    679    681     1  0.0000000  0.6508444  3
    672    670    679    688     1  0.0000000  1.0460000  1
    672    670    679    688     1  0.0000000  0.0000000  3
    672    670    679    680     1  0.0000000  0.6508444  3
    672    670    679    681     1  0.0000000  0.6508444  3
    673    661    660    689     1  0.0000000  0.6508444  3
    674    673    685   1438     1  0.0000000  1.0460000  1
    674    673    685   1438     1  0.0000000  0.0000000  3
    674    673    685    686     1  0.0000000  0.6508444  3
    674    673    685    687     1  0.0000000  0.6508444  3
    675    673    685   1438     1  0.0000000  1.0460000  1
    675    673    685   1438     1  0.0000000  0.0000000  3
    675    673    685    686     1  0.0000000  0.6508444  3
    675    673    685    687     1  0.0000000  0.6508444  3
    676    664    660    689     1  0.0000000  0.6508444  3
    677    676    682   1408     1  0.0000000  1.0460000  1
    677    676    682   1408     1  0.0000000  0.0000000  3
    677    676    682    683     1  0.0000000  0.6508444  3
    677    676    682    684     1  0.0000000  0.6508444  3
    678    676    682   1408     1  0.0000000  1.0460000  1
    678    676    682   1408     1  0.0000000  0.0000000  3
    678    676    682    683     1  0.0000000  0.6508444  3
    678    676    682    684     1  0.0000000  0.6508444  3
    682   1408   1399   1400     1  0.0000000  1.6038667  3
    682   1408   1399   1401     1  0.0000000  1.6038667  3
    683    682   1408   1399     1  0.0000000  1.6038667  3
    684    682   1408   1399     1  0.0000000  1.6038667  3
    685   1438   1429   1430     1  0.0000000  1.6038667  3
    685   1438   1429   1431     1  0.0000000  1.6038667  3
    686    685   1438   1429     1  0.0000000  1.6038667  3
    687    685   1438   1429     1  0.0000000  1.6038667  3
    690    691    703    704     1  0.0000000  0.6508444  3
    690    691    703    705     1  0.0000000  0.6508444  3
    690    694    706    707     1  0.0000000  0.6508444  3
    690    694    706    708     1  0.0000000  0.6508444  3
    690    697    700    701     1  0.0000000  0.6508444  3
    690    697    700    702     1  0.0000000  0.6508444  3
    691    690    694    695     1  0.0000000  0.6508444  3
    691    690    694    696     1  0.0000000  0.6508444  3
    691    690    697    698     1  0.0000000  0.6508444  3
    691    690    697    699     1  0.0000000  0.6508444  3
    691    703    715    716     1  0.0000000  0.6508444  3
    691    703    715    717     1  0.0000000  0.6508444  3
    692    691    690    694     1  0.0000000  0.6508444  3
    692    691    690    697     1  0.0000000  0.6508444  3
    692    691    690    719     1  0.0000000  0.6508444  3
    692    691    703    715     1  0.0000000  0.6508444  3
    692    691    703    704     1  0.0000000  0.6508444  3
    692    691    703    705     1  0.0000000  0.6508444  3
    693    691    690    694     1  0.0000000  0.6508444  3
    693    691    690    697     1  0.0000000  0.6508444  3
    693    691    690    719     1  0.0000000  0.6508444  3
    693    691    703    715     1  0.0000000  0.6508444  3
    693    691    703    704     1  0.0000000  0.6508444  3
    693    691    703    705     1  0.0000000  0.6508444  3
    694    690    697    698     1  0.0000000  0.6508444  3
    694    690    697    699     1  0.0000000  0.6508444  3
    694    706    712    713     1  0.0000000  0.6508444  3
    694    706    712    714     1  0.0000000  0.6508444  3
    695    694    690    697     1  0.0000000  0.6508444  3
    695    694    690    719     1  0.0000000  0.6508444  3
    695    694    706    712     1  0.0000000  0.6508444  3
    695    694    706    707     1  0.0000000  0.6508444  3
    695    694    706    708     1  0.0000000  0.6508444  3
    696    694    690    697     1  0.0000000  0.6508444  3
    696    694    690    719     1  0.0000000  0.6508444  3
    696    694    706    712     1  0.0000000  0.6508444  3
    696    694    706    707     1  0.0000000  0.6508444  3
    696    694    706    708     1  0.0000000  0.6508444  3
    697    700    709    710     1  0.0000000  0.6508444  3
    697    700    709    711     1  0.0000000  0.6508444  3
    698    697    690    719     1  0.0000000  0.6508444  3
    698    697    700    709     1  0.0000000  0.6508444  3
    698    697    700    701     1  0.0000000  0.6508444  3
    698    697    700    702     1  0.0000000  0.6508444  3
    699    697    690    719     1  0.0000000  0.6508444  3
    699    697    700    709     1  0.0000000  0.6508444  3
    699    697    700    701     1  0.0000000  0.6508444  3
    699    697    700    702     1  0.0000000  0.6508444  3
    700    697    690    719     1  0.0000000  0.6508444  3
    701    700    709    718     1  0.0000000  1.0460000  1
    701    700    709    718     1  0.0000000  0.0000000  3
    701    700    709    710     1  0.0000000  0.6508444  3
    701    700    709    711     1  0.0000000  0.6508444  3
    702    700    709    718     1  0.0000000  1.0460000  1
    702    700    709    718     1  0.0000000  0.0000000  3
    702    700    709    710     1  0.0000000  0.6508444  3
    702    700    709    711     1  0.0000000  0.6508444  3
    703    691    690    719     1  0.0000000  0.6508444  3
    704    703    715   1498     1  0.0000000  1.0460000  1
    704    703    715   1498     1  0.0000000  0.0000000  3
    704    703    715    716     1  0.0000000  0.6508444  3
    704    703    715    717     1  0.0000000  0.6508444  3
    705    703    715   1498     1  0.0000000  1.0460000  1
    705    703    715   1498     1  0.0000000  0.0000000  3
    705    703    715    716     1  0.0000000  0.6508444  3
    705    703    715    717     1  0.0000000  0.6508444  3
    706    694    690    719     1  0.0000000  0.6508444  3
    707    706    712   1468     1  0.0000000  1.0460000  1
    707    706    712   1468     1  0.0000000  0.0000000  3
    707    706    712    713     1  0.0000000  0.6508444  3
    707    706    712    714     1  0.0000000  0.6508444  3
    708    706    712   1468     1  0.0000000  1.0460000  1
    708    706    712   1468     1  0.0000000  0.0000000  3
    708    706    712    713     1  0.0000000  0.6508444  3
    708    706    712    714     1  0.0000000  0.6508444  3
    712   1468   1459   1460     1  0.0000000  1.6038667  3
    712   1468   1459   1461     1  0.0000000  1.6038667  3
    713    712   1468   1459     1  0.0000000  1.6038667  3
    714    712   1468   1459     1  0.0000000  1.6038667  3
    715   1498   1489   1490     1  0.0000000  1.6038667  3
    715   1498   1489   1491     1  0.0000000  1.6038667  3
    716    715   1498   1489     1  0.0000000  1.6038667  3
    717    715   1498   1489     1  0.0000000  1.6038667  3
    720    721    733    734     1  0.0000000  0.6508444  3
    720    721    733    735     1  0.0000000  0.6508444  3
    720    724    736    737     1  0.0000000  0.6508444  3
    720    724    736    738     1  0.0000000  0.6508444  3
    720    727    730    731     1  0.0000000  0.6508444  3
    720    727    730    732     1  0.0000000  0.6508444  3
    721    720    724    725     1  0.0000000  0.6508444  3
    721    720    724    726     1  0.0000000  0.6508444  3
    721    720    727    728     1  0.0000000  0.6508444  3
    721    720    727    729     1  0.0000000  0.6508444  3
    721    733    745    746     1  0.0000000  0.6508444  3
    721    733    745    747     1  0.0000000  0.6508444  3
    722    721    720    724     1  0.0000000  0.6508444  3
    722    721    720    727     1  0.0000000  0.6508444  3
    722    721    720    749     1  0.0000000  0.6508444  3
    722    721    733    745     1  0.0000000  0.6508444  3
    722    721    733    734     1  0.0000000  0.6508444  3
    722    721    733    735     1  0.0000000  0.6508444  3
    723    721    720    724     1  0.0000000  0.6508444  3
    723    721    720    727     1  0.0000000  0.6508444  3
    723    721    720    749     1  0.0000000  0.6508444  3
    723    721    733    745     1  0.0000000  0.6508444  3
    723    721    733    734     1  0.0000000  0.6508444  3
    723    721    733    735     1  0.0000000  0.6508444  3
    724    720    727    728     1  0.0000000  0.6508444  3
    724    720    727    729     1  0.0000000  0.6508444  3
    724    736    742    743     1  0.0000000  0.6508444  3
    724    736    742    744     1  0.0000000  0.6508444  3
    725    724    720    727     1  0.0000000  0.6508444  3
    725    724    720    749     1  0.0000000  0.6508444  3
    725    724    736    742     1  0.0000000  0.6508444  3
    725    724    736    737     1  0.0000000  0.6508444  3
    725    724    736    738     1  0.0000000  0.6508444  3
    726    724    720    727     1  0.0000000  0.6508444  3
    726    724    720    749     1  0.0000000  0.6508444  3
    726    724    736    742     1  0.0000000  0.6508444  3
    726    724    736    737     1  0.0000000  0.6508444  3
    726    724    736    738     1  0.0000000  0.6508444  3
    727    730    739    740     1  0.0000000  0.6508444  3
    727    730    739    741     1  0.0000000  0.6508444  3
    728    727    720    749     1  0.0000000  0.6508444  3
    728    727    730    739     1  0.0000000  0.6508444  3
    728    727    730    731     1  0.0000000  0.6508444  3
    728    727    730    732     1  0.0000000  0.6508444  3
    729    727    720    749     1  0.0000000  0.6508444  3
    729    727    730    739     1  0.0000000  0.6508444  3
    729    727    730    731     1  0.0000000  0.6508444  3
    729    727    730    732     1  0.0000000  0.6508444  3
    730    727    720    749     1  0.0000000  0.6508444  3
    731    730    739    748     1  0.0000000  1.0460000  1
    731    730    739    748     1  0.0000000  0.0000000  3
    731    730    739    740     1  0.0000000  0.6508444  3
    731    730    739    741     1  0.0000000  0.6508444  3
    732    730    739    748     1  0.0000000  1.0460000  1
    732    730    739    748     1  0.0000000  0.0000000  3
    732    730    739    740     1  0.0000000  0.6508444  3
    732    730    739    741     1  0.0000000  0.6508444  3
    733    721    720    749     1  0.0000000  0.6508444  3
    734    733    745   1558     1  0.0000000  1.0460000  1
    734    733    745   1558     1  0.0000000  0.0000000  3
    734    733    745    746     1  0.0000000  0.6508444  3
    734    733    745    747     1  0.0000000  0.6508444  3
    735    733    745   1558     1  0.0000000  1.0460000  1
    735    733    745   1558     1  0.0000000  0.0000000  3
    735    733    745    746     1  0.0000000  0.6508444  3
    735    733    745    747     1  0.0000000  0.6508444  3
    736    724    720    749     1  0.0000000  0.6508444  3
    737    736    742   1528     1  0.0000000  1.0460000  1
    737    736    742   1528     1  0.0000000  0.0000000  3
    737    736    742    743     1  0.0000000  0.6508444  3
    737    736    742    744     1  0.0000000  0.6508444  3
    738    736    742   1528     1  0.0000000  1.0460000  1
    738    736    742   1528     1  0.0000000  0.0000000  3
    738    736    742    743     1  0.0000000  0.6508444  3
    738    736    742    744     1  0.0000000  0.6508444  3
    742   1528   1519   1520     1  0.0000000  1.6038667  3
    742   1528   1519   1521     1  0.0000000  1.6038667  3
    743    742   1528   1519     1  0.0000000  1.6038667  3
    744    742   1528   1519     1  0.0000000  1.6038667  3
    745   1558   1549   1550     1  0.0000000  1.6038667  3
    745   1558   1549   1551     1  0.0000000  1.6038667  3
    746    745   1558   1549     1  0.0000000  1.6038667  3
    747    745   1558   1549     1  0.0000000  1.6038667  3
    750    751    763    764     1  0.0000000  0.6508444  3
    750    751    763    765     1  0.0000000  0.6508444  3
    750    754    766    767     1  0.0000000  0.6508444  3
    750    754    766    768     1  0.0000000  0.6508444  3
    750    757    760    761     1  0.0000000  0.6508444  3
    750    757    760    762     1  0.0000000  0.6508444  3
    751    750    754    755     1  0.0000000  0.6508444  3
    751    750    754    756     1  0.0000000  0.6508444  3
    751    750    757    758     1  0.0000000  0.6508444  3
    751    750    757    759     1  0.0000000  0.6508444  3
    751    763    775    776     1  0.0000000  0.6508444  3
    751    763    775    777     1  0.0000000  0.6508444  3
    752    751    750    754     1  0.0000000  0.6508444  3
    752    751    750    757     1  0.0000000  0.6508444  3
    752    751    750    779     1  0.0000000  0.6508444  3
    752    751    763    775     1  0.0000000  0.6508444  3
    752    751    763    764     1  0.0000000  0.6508444  3
    752    751    763    765     1  0.0000000  0.6508444  3
    753    751    750    754     1  0.0000000  0.6508444  3
    753    751    750    757     1  0.0000000  0.6508444  3
    753    751    750    779     1  0.0000000  0.6508444  3
    753    751    763    775     1  0.0000000  0.6508444  3
    753    751    763    764     1  0.0000000  0.6508444  3
    753    751    763    765     1  0.0000000  0.6508444  3
    754    750    757    758     1  0.0000000  0.6508444  3
    754    750    757    759     1  0.0000000  0.6508444  3
    754    766    772    773     1  0.0000000  0.6508444  3
    754    766    772    774     1  0.0000000  0.6508444  3
    755    754    750    757     1  0.0000000  0.6508444  3
    755    754    750    779     1  0.0000000  0.6508444  3
    755    754    766    772     1  0.0000000  0.6508444  3
    755    754    766    767     1  0.0000000  0.6508444  3
    755    754    766    768     1  0.0000000  0.6508444  3
    756    754    750    757     1  0.0000000  0.6508444  3
    756    754    750    779     1  0.0000000  0.6508444  3
    756    754    766    772     1  0.0000000  0.6508444  3
    756    754    766    767     1  0.0000000  0.6508444  3
    756    754    766    768     1  0.0000000  0.6508444  3
    757    760    769    770     1  0.0000000  0.6508444  3
    757    760    769    771     1  0.0000000  0.6508444  3
    758    757    750    779     1  0.0000000  0.6508444  3
    758    757    760    769     1  0.0000000  0.6508444  3
    758    757    760    761     1  0.0000000  0.6508444  3
    758    757    760    762     1  0.0000000  0.6508444  3
    759    757    750    779     1  0.0000000  0.6508444  3
    759    757    760    769     1  0.0000000  0.6508444  3
    759    757    760    761     1  0.0000000  0.6508444  3
    759    757    760    762     1  0.0000000  0.6508444  3
    760    757    750    779     1  0.0000000  0.6508444  3
    761    760    769    778     1  0.0000000  1.0460000  1
    761    760    769    778     1  0.0000000  0.0000000  3
    761    760    769    770     1  0.0000000  0.6508444  3
    761    760    769    771     1  0.0000000  0.6508444  3
    762    760    769    778     1  0.0000000  1.0460000  1
    762    760    769    778     1  0.0000000  0.0000000  3
    762    760    769    770     1  0.0000000  0.6508444  3
    762    760    769    771     1  0.0000000  0.6508444  3
    763    751    750    779     1  0.0000000  0.6508444  3
    764    763    775   1618     1  0.0000000  1.0460000  1
    764    763    775   1618     1  0.0000000  0.0000000  3
    764    763    775    776     1  0.0000000  0.6508444  3
    764    763    775    777     1  0.0000000  0.6508444  3
    765    763    775   1618     1  0.0000000  1.0460000  1
    765    763    775   1618     1  0.0000000  0.0000000  3
    765    763    775    776     1  0.0000000  0.6508444  3
    765    763    775    777     1  0.0000000  0.6508444  3
    766    754    750    779     1  0.0000000  0.6508444  3
    767    766    772   1588     1  0.0000000  1.0460000  1
    767    766    772   1588     1  0.0000000  0.0000000  3
    767    766    772    773     1  0.0000000  0.6508444  3
    767    766    772    774     1  0.0000000  0.6508444  3
    768    766    772   1588     1  0.0000000  1.0460000  1
    768    766    772   1588     1  0.0000000  0.0000000  3
    768    766    772    773     1  0.0000000  0.6508444  3
    768    766    772    774     1  0.0000000  0.6508444  3
    772   1588   1579   1580     1  0.0000000  1.6038667  3
    772   1588   1579   1581     1  0.0000000  1.6038667  3
    773    772   1588   1579     1  0.0000000  1.6038667  3
    774    772   1588   1579     1  0.0000000  1.6038667  3
    775   1618   1609   1610     1  0.0000000  1.6038667  3
    775   1618   1609   1611     1  0.0000000  1.6038667  3
    776    775   1618   1609     1  0.0000000  1.6038667  3
    777    775   1618   1609     1  0.0000000  1.6038667  3
    780    781    793    794     1  0.0000000  0.6508444  3
    780    781    793    795     1  0.0000000  0.6508444  3
    780    784    796    797     1  0.0000000  0.6508444  3
    780    784    796    798     1  0.0000000  0.6508444  3
    780    787    790    791     1  0.0000000  0.6508444  3
    780    787    790    792     1  0.0000000  0.6508444  3
    781    780    784    785     1  0.0000000  0.6508444  3
    781    780    784    786     1  0.0000000  0.6508444  3
    781    780    787    788     1  0.0000000  0.6508444  3
    781    780    787    789     1  0.0000000  0.6508444  3
    781    793    805    806     1  0.0000000  0.6508444  3
    781    793    805    807     1  0.0000000  0.6508444  3
    782    781    780    784     1  0.0000000  0.6508444  3
    782    781    780    787     1  0.0000000  0.6508444  3
    782    781    780    809     1  0.0000000  0.6508444  3
    782    781    793    805     1  0.0000000  0.6508444  3
    782    781    793    794     1  0.0000000  0.6508444  3
    782    781    793    795     1  0.0000000  0.6508444  3
    783    781    780    784     1  0.0000000  0.6508444  3
    783    781    780    787     1  0.0000000  0.6508444  3
    783    781    780    809     1  0.0000000  0.6508444  3
    783    781    793    805     1  0.0000000  0.6508444  3
    783    781    793    794     1  0.0000000  0.6508444  3
    783    781    793    795     1  0.0000000  0.6508444  3
    784    780    787    788     1  0.0000000  0.6508444  3
    784    780    787    789     1  0.0000000  0.6508444  3
    784    796    802    803     1  0.0000000  0.6508444  3
    784    796    802    804     1  0.0000000  0.6508444  3
    785    784    780    787     1  0.0000000  0.6508444  3
    785    784    780    809     1  0.0000000  0.6508444  3
    785    784    796    802     1  0.0000000  0.6508444  3
    785    784    796    797     1  0.0000000  0.6508444  3
    785    784    796    798     1  0.0000000  0.6508444  3
    786    784    780    787     1  0.0000000  0.6508444  3
    786    784    780    809     1  0.0000000  0.6508444  3
    786    784    796    802     1  0.0000000  0.6508444  3
    786    784    796    797     1  0.0000000  0.6508444  3
    786    784    796    798     1  0.0000000  0.6508444  3
    787    790    799    800     1  0.0000000  0.6508444  3
    787    790    799    801     1  0.0000000  0.6508444  3
    788    787    780    809     1  0.0000000  0.6508444  3
    788    787    790    799     1  0.0000000  0.6508444  3
    788    787    790    791     1  0.0000000  0.6508444  3
    788    787    790    792     1  0.0000000  0.6508444  3
    789    787    780    809     1  0.0000000  0.6508444  3
    789    787    790    799     1  0.0000000  0.6508444  3
    789    787    790    791     1  0.0000000  0.6508444  3
    789    787    790    792     1  0.0000000  0.6508444  3
    790    787    780    809     1  0.0000000  0.6508444  3
    791    790    799    808     1  0.0000000  1.0460000  1
    791    790    799    808     1  0.0000000  0.0000000  3
    791    790    799    800     1  0.0000000  0.6508444  3
    791    790    799    801     1  0.0000000  0.6508444  3
    792    790    799    808     1  0.0000000  1.0460000  1
    792    790    799    808     1  0.0000000  0.0000000  3
    792    790    799    800     1  0.0000000  0.6508444  3
    792    790    799    801     1  0.0000000  0.6508444  3
    793    781    780    809     1  0.0000000  0.6508444  3
    794    793    805   1678     1  0.0000000  1.0460000  1
    794    793    805   1678     1  0.0000000  0.0000000  3
    794    793    805    806     1  0.0000000  0.6508444  3
    794    793    805    807     1  0.0000000  0.6508444  3
    795    793    805   1678     1  0.0000000  1.0460000  1
    795    793    805   1678     1  0.0000000  0.0000000  3
    795    793    805    806     1  0.0000000  0.6508444  3
    795    793    805    807     1  0.0000000  0.6508444  3
    796    784    780    809     1  0.0000000  0.6508444  3
    797    796    802   1648     1  0.0000000  1.0460000  1
    797    796    802   1648     1  0.0000000  0.0000000  3
    797    796    802    803     1  0.0000000  0.6508444  3
    797    796    802    804     1  0.0000000  0.6508444  3
    798    796    802   1648     1  0.0000000  1.0460000  1
    798    796    802   1648     1  0.0000000  0.0000000  3
    798    796    802    803     1  0.0000000  0.6508444  3
    798    796    802    804     1  0.0000000  0.6508444  3
    802   1648   1639   1640     1  0.0000000  1.6038667  3
    802   1648   1639   1641     1  0.0000000  1.6038667  3
    803    802   1648   1639     1  0.0000000  1.6038667  3
    804    802   1648   1639     1  0.0000000  1.6038667  3
    805   1678   1669   1670     1  0.0000000  1.6038667  3
    805   1678   1669   1671     1  0.0000000  1.6038667  3
    806    805   1678   1669     1  0.0000000  1.6038667  3
    807    805   1678   1669     1  0.0000000  1.6038667  3
    810    811    823    824     1  0.0000000  0.6508444  3
    810    811    823    825     1  0.0000000  0.6508444  3
    810    814    826    827     1  0.0000000  0.6508444  3
    810    814    826    828     1  0.0000000  0.6508444  3
    810    817    820    821     1  0.0000000  0.6508444  3
    810    817    820    822     1  0.0000000  0.6508444  3
    811    810    814    815     1  0.0000000  0.6508444  3
    811    810    814    816     1  0.0000000  0.6508444  3
    811    810    817    818     1  0.0000000  0.6508444  3
    811    810    817    819     1  0.0000000  0.6508444  3
    811    823    835    836     1  0.0000000  0.6508444  3
    811    823    835    837     1  0.0000000  0.6508444  3
    812    811    810    814     1  0.0000000  0.6508444  3
    812    811    810    817     1  0.0000000  0.6508444  3
    812    811    810    839     1  0.0000000  0.6508444  3
    812    811    823    835     1  0.0000000  0.6508444  3
    812    811    823    824     1  0.0000000  0.6508444  3
    812    811    823    825     1  0.0000000  0.6508444  3
    813    811    810    814     1  0.0000000  0.6508444  3
    813    811    810    817     1  0.0000000  0.6508444  3
    813    811    810    839     1  0.0000000  0.6508444  3
    813    811    823    835     1  0.0000000  0.6508444  3
    813    811    823    824     1  0.0000000  0.6508444  3
    813    811    823    825     1  0.0000000  0.6508444  3
    814    810    817    818     1  0.0000000  0.6508444  3
    814    810    817    819     1  0.0000000  0.6508444  3
    814    826    832    833     1  0.0000000  0.6508444  3
    814    826    832    834     1  0.0000000  0.6508444  3
    815    814    810    817     1  0.0000000  0.6508444  3
    815    814    810    839     1  0.0000000  0.6508444  3
    815    814    826    832     1  0.0000000  0.6508444  3
    815    814    826    827     1  0.0000000  0.6508444  3
    815    814    826    828     1  0.0000000  0.6508444  3
    816    814    810    817     1  0.0000000  0.6508444  3
    816    814    810    839     1  0.0000000  0.6508444  3
    816    814    826    832     1  0.0000000  0.6508444  3
    816    814    826    827     1  0.0000000  0.6508444  3
    816    814    826    828     1  0.0000000  0.6508444  3
    817    820    829    830     1  0.0000000  0.6508444  3
    817    820    829    831     1  0.0000000  0.6508444  3
    818    817    810    839     1  0.0000000  0.6508444  3
    818    817    820    829     1  0.0000000  0.6508444  3
    818    817    820    821     1  0.0000000  0.6508444  3
    818    817    820    822     1  0.0000000  0.6508444  3
    819    817    810    839     1  0.0000000  0.6508444  3
    819    817    820    829     1  0.0000000  0.6508444  3
    819    817    820    821     1  0.0000000  0.6508444  3
    819    817    820    822     1  0.0000000  0.6508444  3
    820    817    810    839     1  0.0000000  0.6508444  3
    821    820    829    838     1  0.0000000  1.0460000  1
    821    820    829    838     1  0.0000000  0.0000000  3
    821    820    829    830     1  0.0000000  0.6508444  3
    821    820    829    831     1  0.0000000  0.6508444  3
    822    820    829    838     1  0.0000000  1.0460000  1
    822    820    829    838     1  0.0000000  0.0000000  3
    822    820    829    830     1  0.0000000  0.6508444  3
    822    820    829    831     1  0.0000000  0.6508444  3
    823    811    810    839     1  0.0000000  0.6508444  3
    824    823    835   1738     1  0.0000000  1.0460000  1
    824    823    835   1738     1  0.0000000  0.0000000  3
    824    823    835    836     1  0.0000000  0.6508444  3
    824    823    835    837     1  0.0000000  0.6508444  3
    825    823    835   1738     1  0.0000000  1.0460000  1
    825    823    835   1738     1  0.0000000  0.0000000  3
    825    823    835    836     1  0.0000000  0.6508444  3
    825    823    835    837     1  0.0000000  0.6508444  3
    826    814    810    839     1  0.0000000  0.6508444  3
    827    826    832   1708     1  0.0000000  1.0460000  1
    827    826    832   1708     1  0.0000000  0.0000000  3
    827    826    832    833     1  0.0000000  0.6508444  3
    827    826    832    834     1  0.0000000  0.6508444  3
    828    826    832   1708     1  0.0000000  1.0460000  1
    828    826    832   1708     1  0.0000000  0.0000000  3
    828    826    832    833     1  0.0000000  0.6508444  3
    828    826    832    834     1  0.0000000  0.6508444  3
    832   1708   1699   1700     1  0.0000000  1.6038667  3
    832   1708   1699   1701     1  0.0000000  1.6038667  3
    833    832   1708   1699     1  0.0000000  1.6038667  3
    834    832   1708   1699     1  0.0000000  1.6038667  3
    835   1738   1729   1730     1  0.0000000  1.6038667  3
    835   1738   1729   1731     1  0.0000000  1.6038667  3
    836    835   1738   1729     1  0.0000000  1.6038667  3
    837    835   1738   1729     1  0.0000000  1.6038667  3
    840    841    853    854     1  0.0000000  0.6508444  3
    840    841    853    855     1  0.0000000  0.6508444  3
    840    844    856    857     1  0.0000000  0.6508444  3
    840    844    856    858     1  0.0000000  0.6508444  3
    840    847    850    851     1  0.0000000  0.6508444  3
    840    847    850    852     1  0.0000000  0.6508444  3
    841    840    844    845     1  0.0000000  0.6508444  3
    841    840    844    846     1  0.0000000  0.6508444  3
    841    840    847    848     1  0.0000000  0.6508444  3
    841    840    847    849     1  0.0000000  0.6508444  3
    841    853    865    866     1  0.0000000  0.6508444  3
    841    853    865    867     1  0.0000000  0.6508444  3
    842    841    840    844     1  0.0000000  0.6508444  3
    842    841    840    847     1  0.0000000  0.6508444  3
    842    841    840    869     1  0.0000000  0.6508444  3
    842    841    853    865     1  0.0000000  0.6508444  3
    842    841    853    854     1  0.0000000  0.6508444  3
    842    841    853    855     1  0.0000000  0.6508444  3
    843    841    840    844     1  0.0000000  0.6508444  3
    843    841    840    847     1  0.0000000  0.6508444  3
    843    841    840    869     1  0.0000000  0.6508444  3
    843    841    853    865     1  0.0000000  0.6508444  3
    843    841    853    854     1  0.0000000  0.6508444  3
    843    841    853    855     1  0.0000000  0.6508444  3
    844    840    847    848     1  0.0000000  0.6508444  3
    844    840    847    849     1  0.0000000  0.6508444  3
    844    856    862    863     1  0.0000000  0.6508444  3
    844    856    862    864     1  0.0000000  0.6508444  3
    845    844    840    847     1  0.0000000  0.6508444  3
    845    844    840    869     1  0.0000000  0.6508444  3
    845    844    856    862     1  0.0000000  0.6508444  3
    845    844    856    857     1  0.0000000  0.6508444  3
    845    844    856    858     1  0.0000000  0.6508444  3
    846    844    840    847     1  0.0000000  0.6508444  3
    846    844    840    869     1  0.0000000  0.6508444  3
    846    844    856    862     1  0.0000000  0.6508444  3
    846    844    856    857     1  0.0000000  0.6508444  3
    846    844    856    858     1  0.0000000  0.6508444  3
    847    850    859    860     1  0.0000000  0.6508444  3
    847    850    859    861     1  0.0000000  0.6508444  3
    848    847    840    869     1  0.0000000  0.6508444  3
    848    847    850    859     1  0.0000000  0.6508444  3
    848    847    850    851     1  0.0000000  0.6508444  3
    848    847    850    852     1  0.0000000  0.6508444  3
    849    847    840    869     1  0.0000000  0.6508444  3
    849    847    850    859     1  0.0000000  0.6508444  3
    849    847    850    851     1  0.0000000  0.6508444  3
    849    847    850    852     1  0.0000000  0.6508444  3
    850    847    840    869     1  0.0000000  0.6508444  3
    851    850    859    868     1  0.0000000  1.0460000  1
    851    850    859    868     1  0.0000000  0.0000000  3
    851    850    859    860     1  0.0000000  0.6508444  3
    851    850    859    861     1  0.0000000  0.6508444  3
    852    850    859    868     1  0.0000000  1.0460000  1
    852    850    859    868     1  0.0000000  0.0000000  3
    852    850    859    860     1  0.0000000  0.6508444  3
    852    850    859    861     1  0.0000000  0.6508444  3
    853    841    840    869     1  0.0000000  0.6508444  3
    854    853    865   1798     1  0.0000000  1.0460000  1
    854    853    865   1798     1  0.0000000  0.0000000  3
    854    853    865    866     1  0.0000000  0.6508444  3
    854    853    865    867     1  0.0000000  0.6508444  3
    855    853    865   1798     1  0.0000000  1.0460000  1
    855    853    865   1798     1  0.0000000  0.0000000  3
    855    853    865    866     1  0.0000000  0.6508444  3
    855    853    865    867     1  0.0000000  0.6508444  3
    856    844    840    869     1  0.0000000  0.6508444  3
    857    856    862   1768     1  0.0000000  1.0460000  1
    857    856    862   1768     1  0.0000000  0.0000000  3
    857    856    862    863     1  0.0000000  0.6508444  3
    857    856    862    864     1  0.0000000  0.6508444  3
    858    856    862   1768     1  0.0000000  1.0460000  1
    858    856    862   1768     1  0.0000000  0.0000000  3
    858    856    862    863     1  0.0000000  0.6508444  3
    858    856    862    864     1  0.0000000  0.6508444  3
    862   1768   1759   1760     1  0.0000000  1.6038667  3
    862   1768   1759   1761     1  0.0000000  1.6038667  3
    863    862   1768   1759     1  0.0000000  1.6038667  3
    864    862   1768   1759     1  0.0000000  1.6038667  3
    865   1798   1789   1790     1  0.0000000  1.6038667  3
    865   1798   1789   1791     1  0.0000000  1.6038667  3
    866    865   1798   1789     1  0.0000000  1.6038667  3
    867    865   1798   1789     1  0.0000000  1.6038667  3
    870    871    883    884     1  0.0000000  0.6508444  3
    870    871    883    885     1  0.0000000  0.6508444  3
    870    874    886    887     1  0.0000000  0.6508444  3
    870    874    886    888     1  0.0000000  0.6508444  3
    870    877    880    881     1  0.0000000  0.6508444  3
    870    877    880    882     1  0.0000000  0.6508444  3
    871    870    874    875     1  0.0000000  0.6508444  3
    871    870    874    876     1  0.0000000  0.6508444  3
    871    870    877    878     1  0.0000000  0.6508444  3
    871    870    877    879     1  0.0000000  0.6508444  3
    871    883    895    896     1  0.0000000  0.6508444  3
    871    883    895    897     1  0.0000000  0.6508444  3
    872    871    870    874     1  0.0000000  0.6508444  3
    872    871    870    877     1  0.0000000  0.6508444  3
    872    871    870    899     1  0.0000000  0.6508444  3
    872    871    883    895     1  0.0000000  0.6508444  3
    872    871    883    884     1  0.0000000  0.6508444  3
    872    871    883    885     1  0.0000000  0.6508444  3
    873    871    870    874     1  0.0000000  0.6508444  3
    873    871    870    877     1  0.0000000  0.6508444  3
    873    871    870    899     1  0.0000000  0.6508444  3
    873    871    883    895     1  0.0000000  0.6508444  3
    873    871    883    884     1  0.0000000  0.6508444  3
    873    871    883    885     1  0.0000000  0.6508444  3
    874    870    877    878     1  0.0000000  0.6508444  3
    874    870    877    879     1  0.0000000  0.6508444  3
    874    886    892    893     1  0.0000000  0.6508444  3
    874    886    892    894     1  0.0000000  0.6508444  3
    875    874    870    877     1  0.0000000  0.6508444  3
    875    874    870    899     1  0.0000000  0.6508444  3
    875    874    886    892     1  0.0000000  0.6508444  3
    875    874    886    887     1  0.0000000  0.6508444  3
    875    874    886    888     1  0.0000000  0.6508444  3
    876    874    870    877     1  0.0000000  0.6508444  3
    876    874    870    899     1  0.0000000  0.6508444  3
    876    874    886    892     1  0.0000000  0.6508444  3
    876    874    886    887     1  0.0000000  0.6508444  3
    876    874    886    888     1  0.0000000  0.6508444  3
    877    880    889    890     1  0.0000000  0.6508444  3
    877    880    889    891     1  0.0000000  0.6508444  3
    878    877    870    899     1  0.0000000  0.6508444  3
    878    877    880    889     1  0.0000000  0.6508444  3
    878    877    880    881     1  0.0000000  0.6508444  3
    878    877    880    882     1  0.0000000  0.6508444  3
    879    877    870    899     1  0.0000000  0.6508444  3
    879    877    880    889     1  0.0000000  0.6508444  3
    879    877    880    881     1  0.0000000  0.6508444  3
    879    877    880    882     1  0.0000000  0.6508444  3
    880    877    870    899     1  0.0000000  0.6508444  3
    881    880    889    898     1  0.0000000  1.0460000  1
    881    880    889    898     1  0.0000000  0.0000000  3
    881    880    889    890     1  0.0000000  0.6508444  3
    881    880    889    891     1  0.0000000  0.6508444  3
    882    880    889    898     1  0.0000000  1.0460000  1
    882    880    889    898     1  0.0000000  0.0000000  3
    882    880    889    890     1  0.0000000  0.6508444  3
    882    880    889    891     1  0.0000000  0.6508444  3
    883    871    870    899     1  0.0000000  0.6508444  3
    884    883    895   1858     1  0.0000000  1.0460000  1
    884    883    895   1858     1  0.0000000  0.0000000  3
    884    883    895    896     1  0.0000000  0.6508444  3
    884    883    895    897     1  0.0000000  0.6508444  3
    885    883    895   1858     1  0.0000000  1.0460000  1
    885    883    895   1858     1  0.0000000  0.0000000  3
    885    883    895    896     1  0.0000000  0.6508444  3
    885    883    895    897     1  0.0000000  0.6508444  3
    886    874    870    899     1  0.0000000  0.6508444  3
    887    886    892   1828     1  0.0000000  1.0460000  1
    887    886    892   1828     1  0.0000000  0.0000000  3
    887    886    892    893     1  0.0000000  0.6508444  3
    887    886    892    894     1  0.0000000  0.6508444  3
    888    886    892   1828     1  0.0000000  1.0460000  1
    888    886    892   1828     1  0.0000000  0.0000000  3
    888    886    892    893     1  0.0000000  0.6508444  3
    888    886    892    894     1  0.0000000  0.6508444  3
    892   1828   1819   1820     1  0.0000000  1.6038667  3
    892   1828   1819   1821     1  0.0000000  1.6038667  3
    893    892   1828   1819     1  0.0000000  1.6038667  3
    894    892   1828   1819     1  0.0000000  1.6038667  3
    895   1858   1849   1850     1  0.0000000  1.6038667  3
    895   1858   1849   1851     1  0.0000000  1.6038667  3
    896    895   1858   1849     1  0.0000000  1.6038667  3
    897    895   1858   1849     1  0.0000000  1.6038667  3
    900    901    913    914     1  0.0000000  0.6508444  3
    900    901    913    915     1  0.0000000  0.6508444  3
    900    904    916    917     1  0.0000000  0.6508444  3
    900    904    916    918     1  0.0000000  0.6508444  3
    900    907    910    911     1  0.0000000  0.6508444  3
    900    907    910    912     1  0.0000000  0.6508444  3
    901    900    904    905     1  0.0000000  0.6508444  3
    901    900    904    906     1  0.0000000  0.6508444  3
    901    900    907    908     1  0.0000000  0.6508444  3
    901    900    907    909     1  0.0000000  0.6508444  3
    901    913    925    926     1  0.0000000  0.6508444  3
    901    913    925    927     1  0.0000000  0.6508444  3
    902    901    900    904     1  0.0000000  0.6508444  3
    902    901    900    907     1  0.0000000  0.6508444  3
    902    901    900    929     1  0.0000000  0.6508444  3
    902    901    913    925     1  0.0000000  0.6508444  3
    902    901    913    914     1  0.0000000  0.6508444  3
    902    901    913    915     1  0.0000000  0.6508444  3
    903    901    900    904     1  0.0000000  0.6508444  3
    903    901    900    907     1  0.0000000  0.6508444  3
    903    901    900    929     1  0.0000000  0.6508444  3
    903    901    913    925     1  0.0000000  0.6508444  3
    903    901    913    914     1  0.0000000  0.6508444  3
    903    901    913    915     1  0.0000000  0.6508444  3
    904    900    907    908     1  0.0000000  0.6508444  3
    904    900    907    909     1  0.0000000  0.6508444  3
    904    916    922    923     1  0.0000000  0.6508444  3
    904    916    922    924     1  0.0000000  0.6508444  3
    905    904    900    907     1  0.0000000  0.6508444  3
    905    904    900    929     1  0.0000000  0.6508444  3
    905    904    916    922     1  0.0000000  0.6508444  3
    905    904    916    917     1  0.0000000  0.6508444  3
    905    904    916    918     1  0.0000000  0.6508444  3
    906    904    900    907     1  0.0000000  0.6508444  3
    906    904    900    929     1  0.0000000  0.6508444  3
    906    904    916    922     1  0.0000000  0.6508444  3
    906    904    916    917     1  0.0000000  0.6508444  3
    906    904    916    918     1  0.0000000  0.6508444  3
    907    910    919    920     1  0.0000000  0.6508444  3
    907    910    919    921     1  0.0000000  0.6508444  3
    908    907    900    929     1  0.0000000  0.6508444  3
    908    907    910    919     1  0.0000000  0.6508444  3
    908    907    910    911     1  0.0000000  0.6508444  3
    908    907    910    912     1  0.0000000  0.6508444  3
    909    907    900    929     1  0.0000000  0.6508444  3
    909    907    910    919     1  0.0000000  0.6508444  3
    909    907    910    911     1  0.0000000  0.6508444  3
    909    907    910    912     1  0.0000000  0.6508444  3
    910    907    900    929     1  0.0000000  0.6508444  3
    911    910    919    928     1  0.0000000  1.0460000  1
    911    910    919    928     1  0.0000000  0.0000000  3
    911    910    919    920     1  0.0000000  0.6508444  3
    911    910    919    921     1  0.0000000  0.6508444  3
    912    910    919    928     1  0.0000000  1.0460000  1
    912    910    919    928     1  0.0000000  0.0000000  3
    912    910    919    920     1  0.0000000  0.6508444  3
    912    910    919    921     1  0.0000000  0.6508444  3
    913    901    900    929     1  0.0000000  0.6508444  3
    914    913    925   1918     1  0.0000000  1.0460000  1
    914    913    925   1918     1  0.0000000  0.0000000  3
    914    913    925    926     1  0.0000000  0.6508444  3
    914    913    925    927     1  0.0000000  0.6508444  3
    915    913    925   1918     1  0.0000000  1.0460000  1
    915    913    925   1918     1  0.0000000  0.0000000  3
    915    913    925    926     1  0.0000000  0.6508444  3
    915    913    925    927     1  0.0000000  0.6508444  3
    916    904    900    929     1  0.0000000  0.6508444  3
    917    916    922   1888     1  0.0000000  1.0460000  1
    917    916    922   1888     1  0.0000000  0.0000000  3
    917    916    922    923     1  0.0000000  0.6508444  3
    917    916    922    924     1  0.0000000  0.6508444  3
    918    916    922   1888     1  0.0000000  1.0460000  1
    918    916    922   1888     1  0.0000000  0.0000000  3
    918    916    922    923     1  0.0000000  0.6508444  3
    918    916    922    924     1  0.0000000  0.6508444  3
    922   1888   1879   1880     1  0.0000000  1.6038667  3
    922   1888   1879   1881     1  0.0000000  1.6038667  3
    923    922   1888   1879     1  0.0000000  1.6038667  3
    924    922   1888   1879     1  0.0000000  1.6038667  3
    925   1918   1909   1910     1  0.0000000  1.6038667  3
    925   1918   1909   1911     1  0.0000000  1.6038667  3
    926    925   1918   1909     1  0.0000000  1.6038667  3
    927    925   1918   1909     1  0.0000000  1.6038667  3
    930    931    943    944     1  0.0000000  0.6508444  3
    930    931    943    945     1  0.0000000  0.6508444  3
    930    934    946    947     1  0.0000000  0.6508444  3
    930    934    946    948     1  0.0000000  0.6508444  3
    930    937    940    941     1  0.0000000  0.6508444  3
    930    937    940    942     1  0.0000000  0.6508444  3
    931    930    934    935     1  0.0000000  0.6508444  3
    931    930    934    936     1  0.0000000  0.6508444  3
    931    930    937    938     1  0.0000000  0.6508444  3
    931    930    937    939     1  0.0000000  0.6508444  3
    931    943    955    956     1  0.0000000  0.6508444  3
    931    943    955    957     1  0.0000000  0.6508444  3
    932    931    930    934     1  0.0000000  0.6508444  3
    932    931    930    937     1  0.0000000  0.6508444  3
    932    931    930    959     1  0.0000000  0.6508444  3
    932    931    943    955     1  0.0000000  0.6508444  3
    932    931    943    944     1  0.0000000  0.6508444  3
    932    931    943    945     1  0.0000000  0.6508444  3
    933    931    930    934     1  0.0000000  0.6508444  3
    933    931    930    937     1  0.0000000  0.6508444  3
    933    931    930    959     1  0.0000000  0.6508444  3
    933    931    943    955     1  0.0000000  0.6508444  3
    933    931    943    944     1  0.0000000  0.6508444  3
    933    931    943    945     1  0.0000000  0.6508444  3
    934    930    937    938     1  0.0000000  0.6508444  3
    934    930    937    939     1  0.0000000  0.6508444  3
    934    946    952    953     1  0.0000000  0.6508444  3
    934    946    952    954     1  0.0000000  0.6508444  3
    935    934    930    937     1  0.0000000  0.6508444  3
    935    934    930    959     1  0.0000000  0.6508444  3
    935    934    946    952     1  0.0000000  0.6508444  3
    935    934    946    947     1  0.0000000  0.6508444  3
    935    934    946    948     1  0.0000000  0.6508444  3
    936    934    930    937     1  0.0000000  0.6508444  3
    936    934    930    959     1  0.0000000  0.6508444  3
    936    934    946    952     1  0.0000000  0.6508444  3
    936    934    946    947     1  0.0000000  0.6508444  3
    936    934    946    948     1  0.0000000  0.6508444  3
    937    940    949    950     1  0.0000000  0.6508444  3
    937    940    949    951     1  0.0000000  0.6508444  3
    938    937    930    959     1  0.0000000  0.6508444  3
    938    937    940    949     1  0.0000000  0.6508444  3
    938    937    940    941     1  0.0000000  0.6508444  3
    938    937    940    942     1  0.0000000  0.6508444  3
    939    937    930    959     1  0.0000000  0.6508444  3
    939    937    940    949     1  0.0000000  0.6508444  3
    939    937    940    941     1  0.0000000  0.6508444  3
    939    937    940    942     1  0.0000000  0.6508444  3
    940    937    930    959     1  0.0000000  0.6508444  3
    941    940    949    958     1  0.0000000  1.0460000  1
    941    940    949    958     1  0.0000000  0.0000000  3
    941    940    949    950     1  0.0000000  0.6508444  3
    941    940    949    951     1  0.0000000  0.6508444  3
    942    940    949    958     1  0.0000000  1.0460000  1
    942    940    949    958     1  0.0000000  0.0000000  3
    942    940    949    950     1  0.0000000  0.6508444  3
    942    940    949    951     1  0.0000000  0.6508444  3
    943    931    930    959     1  0.0000000  0.6508444  3
    944    943    955   1978     1  0.0000000  1.0460000  1
    944    943    955   1978     1  0.0000000  0.0000000  3
    944    943    955    956     1  0.0000000  0.6508444  3
    944    943    955    957     1  0.0000000  0.6508444  3
    945    943    955   1978     1  0.0000000  1.0460000  1
    945    943    955   1978     1  0.0000000  0.0000000  3
    945    943    955    956     1  0.0000000  0.6508444  3
    945    943    955    957     1  0.0000000  0.6508444  3
    946    934    930    959     1  0.0000000  0.6508444  3
    947    946    952   1948     1  0.0000000  1.0460000  1
    947    946    952   1948     1  0.0000000  0.0000000  3
    947    946    952    953     1  0.0000000  0.6508444  3
    947    946    952    954     1  0.0000000  0.6508444  3
    948    946    952   1948     1  0.0000000  1.0460000  1
    948    946    952   1948     1  0.0000000  0.0000000  3
    948    946    952    953     1  0.0000000  0.6508444  3
    948    946    952    954     1  0.0000000  0.6508444  3
    952   1948   1939   1940     1  0.0000000  1.6038667  3
    952   1948   1939   1941     1  0.0000000  1.6038667  3
    953    952   1948   1939     1  0.0000000  1.6038667  3
    954    952   1948   1939     1  0.0000000  1.6038667  3
    955   1978   1969   1970     1  0.0000000  1.6038667  3
    955   1978   1969   1971     1  0.0000000  1.6038667  3
    956    955   1978   1969     1  0.0000000  1.6038667  3
    957    955   1978   1969     1  0.0000000  1.6038667  3
    960    961    973    974     1  0.0000000  0.6508444  3
    960    961    973    975     1  0.0000000  0.6508444  3
    960    964    976    977     1  0.0000000  0.6508444  3
    960    964    976    978     1  0.0000000  0.6508444  3
    960    967    970    971     1  0.0000000  0.6508444  3
    960    967    970    972     1  0.0000000  0.6508444  3
    961    960    964    965     1  0.0000000  0.6508444  3
    961    960    964    966     1  0.0000000  0.6508444  3
    961    960    967    968     1  0.0000000  0.6508444  3
    961    960    967    969     1  0.0000000  0.6508444  3
    961    973    985    986     1  0.0000000  0.6508444  3
    961    973    985    987     1  0.0000000  0.6508444  3
    962    961    960    964     1  0.0000000  0.6508444  3
    962    961    960    967     1  0.0000000  0.6508444  3
    962    961    960    989     1  0.0000000  0.6508444  3
    962    961    973    985     1  0.0000000  0.6508444  3
    962    961    973    974     1  0.0000000  0.6508444  3
    962    961    973    975     1  0.0000000  0.6508444  3
    963    961    960    964     1  0.0000000  0.6508444  3
    963    961    960    967     1  0.0000000  0.6508444  3
    963    961    960    989     1  0.0000000  0.6508444  3
    963    961    973    985     1  0.0000000  0.6508444  3
    963    961    973    974     1  0.0000000  0.6508444  3
    963    961    973    975     1  0.0000000  0.6508444  3
    964    960    967    968     1  0.0000000  0.6508444  3
    964    960    967    969     1  0.0000000  0.6508444  3
    964    976    982    983     1  0.0000000  0.6508444  3
    964    976    982    984     1  0.0000000  0.6508444  3
    965    964    960    967     1  0.0000000  0.6508444  3
    965    964    960    989     1  0.0000000  0.6508444  3
    965    964    976    982     1  0.0000000  0.6508444  3
    965    964    976    977     1  0.0000000  0.6508444  3
    965    964    976    978     1  0.0000000  0.6508444  3
    966    964    960    967     1  0.0000000  0.6508444  3
    966    964    960    989     1  0.0000000  0.6508444  3
    966    964    976    982     1  0.0000000  0.6508444  3
    966    964    976    977     1  0.0000000  0.6508444  3
    966    964    976    978     1  0.0000000  0.6508444  3
    967    970    979    980     1  0.0000000  0.6508444  3
    967    970    979    981     1  0.0000000  0.6508444  3
    968    967    960    989     1  0.0000000  0.6508444  3
    968    967    970    979     1  0.0000000  0.6508444  3
    968    967    970    971     1  0.0000000  0.6508444  3
    968    967    970    972     1  0.0000000  0.6508444  3
    969    967    960    989     1  0.0000000  0.6508444  3
    969    967    970    979     1  0.0000000  0.6508444  3
    969    967    970    971     1  0.0000000  0.6508444  3
    969    967    970    972     1  0.0000000  0.6508444  3
    970    967    960    989     1  0.0000000  0.6508444  3
    971    970    979    988     1  0.0000000  1.0460000  1
    971    970    979    988     1  0.0000000  0.0000000  3
    971    970    979    980     1  0.0000000  0.6508444  3
    971    970    979    981     1  0.0000000  0.6508444  3
    972    970    979    988     1  0.0000000  1.0460000  1
    972    970    979    988     1  0.0000000  0.0000000  3
    972    970    979    980     1  0.0000000  0.6508444  3
    972    970    979    981     1  0.0000000  0.6508444  3
    973    961    960    989     1  0.0000000  0.6508444  3
    974    973    985   2038     1  0.0000000  1.0460000  1
    974    973    985   2038     1  0.0000000  0.0000000  3
    974    973    985    986     1  0.0000000  0.6508444  3
    974    973    985    987     1  0.0000000  0.6508444  3
    975    973    985   2038     1  0.0000000  1.0460000  1
    975    973    985   2038     1  0.0000000  0.0000000  3
    975    973    985    986     1  0.0000000  0.6508444  3
    975    973    985    987     1  0.0000000  0.6508444  3
    976    964    960    989     1  0.0000000  0.6508444  3
    977    976    982   2008     1  0.0000000  1.0460000  1
    977    976    982   2008     1  0.0000000  0.0000000  3
    977    976    982    983     1  0.0000000  0.6508444  3
    977    976    982    984     1  0.0000000  0.6508444  3
    978    976    982   2008     1  0.0000000  1.0460000  1
    978    976    982   2008     1  0.0000000  0.0000000  3
    978    976    982    983     1  0.0000000  0.6508444  3
    978    976    982    984     1  0.0000000  0.6508444  3
    982   2008   1999   2000     1  0.0000000  1.6038667  3
    982   2008   1999   2001     1  0.0000000  1.6038667  3
    983    982   2008   1999     1  0.0000000  1.6038667  3
    984    982   2008   1999     1  0.0000000  1.6038667  3
    985   2038   2029   2030     1  0.0000000  1.6038667  3
    985   2038   2029   2031     1  0.0000000  1.6038667  3
    986    985   2038   2029     1  0.0000000  1.6038667  3
    987    985   2038   2029     1  0.0000000  1.6038667  3
    990    991   1003   1004     1  0.0000000  0.6508444  3
    990    991   1003   1005     1  0.0000000  0.6508444  3
    990    994   1006   1007     1  0.0000000  0.6508444  3
    990    994   1006   1008     1  0.0000000  0.6508444  3
    990    997   1000   1001     1  0.0000000  0.6508444  3
    990    997   1000   1002     1  0.0000000  0.6508444  3
    991    990    994    995     1  0.0000000  0.6508444  3
    991    990    994    996     1  0.0000000  0.6508444  3
    991    990    997    998     1  0.0000000  0.6508444  3
    991    990    997    999     1  0.0000000  0.6508444  3
    991   1003   1015   1016     1  0.0000000  0.6508444  3
    991   1003   1015   1017     1  0.0000000  0.6508444  3
    992    991    990    994     1  0.0000000  0.6508444  3
    992    991    990    997     1  0.0000000  0.6508444  3
    992    991    990   1019     1  0.0000000  0.6508444  3
    992    991   1003   1015     1  0.0000000  0.6508444  3
    992    991   1003   1004     1  0.0000000  0.6508444  3
    992    991   1003   1005     1  0.0000000  0.6508444  3
    993    991    990    994     1  0.0000000  0.6508444  3
    993    991    990    997     1  0.0000000  0.6508444  3
    993    991    990   1019     1  0.0000000  0.6508444  3
    993    991   1003   1015     1  0.0000000  0.6508444  3
    993    991   1003   1004     1  0.0000000  0.6508444  3
    993    991   1003   1005     1  0.0000000  0.6508444  3
    994    990    997    998     1  0.0000000  0.6508444  3
    994    990    997    999     1  0.0000000  0.6508444  3
    994   1006   1012   1013     1  0.0000000  0.6508444  3
    994   1006   1012   1014     1  0.0000000  0.6508444  3
    995    994    990    997     1  0.0000000  0.6508444  3
    995    994    990   1019     1  0.0000000  0.6508444  3
    995    994   1006   1012     1  0.0000000  0.6508444  3
    995    994   1006   1007     1  0.0000000  0.6508444  3
    995    994   1006   1008     1  0.0000000  0.6508444  3
    996    994    990    997     1  0.0000000  0.6508444  3
    996    994    990   1019     1  0.0000000  0.6508444  3
    996    994   1006   1012     1  0.0000000  0.6508444  3
    996    994   1006   1007     1  0.0000000  0.6508444  3
    996    994   1006   1008     1  0.0000000  0.6508444  3
    997   1000   1009   1010     1  0.0000000  0.6508444  3
    997   1000   1009   1011     1  0.0000000  0.6508444  3
    998    997    990   1019     1  0.0000000  0.6508444  3
    998    997   1000   1009     1  0.0000000  0.6508444  3
    998    997   1000   1001     1  0.0000000  0.6508444  3
    998    997   1000   1002     1  0.0000000  0.6508444  3
    999    997    990   1019     1  0.0000000  0.6508444  3
    999    997   1000   1009     1  0.0000000  0.6508444  3
    999    997   1000   1001     1  0.0000000  0.6508444  3
    999    997   1000   1002     1  0.0000000  0.6508444  3
   1000    997    990   1019     1  0.0000000  0.6508444  3
   1001   1000   1009   1018     1  0.0000000  1.0460000  1
   1001   1000   1009   1018     1  0.0000000  0.0000000  3
   1001   1000   1009   1010     1  0.0000000  0.6508444  3
   1001   1000   1009   1011     1  0.0000000  0.6508444  3
   1002   1000   1009   1018     1  0.0000000  1.0460000  1
   1002   1000   1009   1018     1  0.0000000  0.0000000  3
   1002   1000   1009   1010     1  0.0000000  0.6508444  3
   1002   1000   1009   1011     1  0.0000000  0.6508444  3
   1003    991    990   1019     1  0.0000000  0.6508444  3
   1004   1003   1015   2098     1  0.0000000  1.0460000  1
   1004   1003   1015   2098     1  0.0000000  0.0000000  3
   1004   1003   1015   1016     1  0.0000000  0.6508444  3
   1004   1003   1015   1017     1  0.0000000  0.6508444  3
   1005   1003   1015   2098     1  0.0000000  1.0460000  1
   1005   1003   1015   2098     1  0.0000000  0.0000000  3
   1005   1003   1015   1016     1  0.0000000  0.6508444  3
   1005   1003   1015   1017     1  0.0000000  0.6508444  3
   1006    994    990   1019     1  0.0000000  0.6508444  3
   1007   1006   1012   2068     1  0.0000000  1.0460000  1
   1007   1006   1012   2068     1  0.0000000  0.0000000  3
   1007   1006   1012   1013     1  0.0000000  0.6508444  3
   1007   1006   1012   1014     1  0.0000000  0.6508444  3
   1008   1006   1012   2068     1  0.0000000  1.0460000  1
   1008   1006   1012   2068     1  0.0000000  0.0000000  3
   1008   1006   1012   1013     1  0.0000000  0.6508444  3
   1008   1006   1012   1014     1  0.0000000  0.6508444  3
   1012   2068   2059   2060     1  0.0000000  1.6038667  3
   1012   2068   2059   2061     1  0.0000000  1.6038667  3
   1013   1012   2068   2059     1  0.0000000  1.6038667  3
   1014   1012   2068   2059     1  0.0000000  1.6038667  3
   1015   2098   2089   2090     1  0.0000000  1.6038667  3
   1015   2098   2089   2091     1  0.0000000  1.6038667  3
   1016   1015   2098   2089     1  0.0000000  1.6038667  3
   1017   1015   2098   2089     1  0.0000000  1.6038667  3
   1020   1021   1033   1034     1  0.0000000  0.6508444  3
   1020   1021   1033   1035     1  0.0000000  0.6508444  3
   1020   1024   1036   1037     1  0.0000000  0.6508444  3
   1020   1024   1036   1038     1  0.0000000  0.6508444  3
   1020   1027   1030   1031     1  0.0000000  0.6508444  3
   1020   1027   1030   1032     1  0.0000000  0.6508444  3
   1021   1020   1024   1025     1  0.0000000  0.6508444  3
   1021   1020   1024   1026     1  0.0000000  0.6508444  3
   1021   1020   1027   1028     1  0.0000000  0.6508444  3
   1021   1020   1027   1029     1  0.0000000  0.6508444  3
   1021   1033   1045   1046     1  0.0000000  0.6508444  3
   1021   1033   1045   1047     1  0.0000000  0.6508444  3
   1022   1021   1020   1024     1  0.0000000  0.6508444  3
   1022   1021   1020   1027     1  0.0000000  0.6508444  3
   1022   1021   1020   1049     1  0.0000000  0.6508444  3
   1022   1021   1033   1045     1  0.0000000  0.6508444  3
   1022   1021   1033   1034     1  0.0000000  0.6508444  3
   1022   1021   1033   1035     1  0.0000000  0.6508444  3
   1023   1021   1020   1024     1  0.0000000  0.6508444  3
   1023   1021   1020   1027     1  0.0000000  0.6508444  3
   1023   1021   1020   1049     1  0.0000000  0.6508444  3
   1023   1021   1033   1045     1  0.0000000  0.6508444  3
   1023   1021   1033   1034     1  0.0000000  0.6508444  3
   1023   1021   1033   1035     1  0.0000000  0.6508444  3
   1024   1020   1027   1028     1  0.0000000  0.6508444  3
   1024   1020   1027   1029     1  0.0000000  0.6508444  3
   1024   1036   1042   1043     1  0.0000000  0.6508444  3
   1024   1036   1042   1044     1  0.0000000  0.6508444  3
   1025   1024   1020   1027     1  0.0000000  0.6508444  3
   1025   1024   1020   1049     1  0.0000000  0.6508444  3
   1025   1024   1036   1042     1  0.0000000  0.6508444  3
   1025   1024   1036   1037     1  0.0000000  0.6508444  3
   1025   1024   1036   1038     1  0.0000000  0.6508444  3
   1026   1024   1020   1027     1  0.0000000  0.6508444  3
   1026   1024   1020   1049     1  0.0000000  0.6508444  3
   1026   1024   1036   1042     1  0.0000000  0.6508444  3
   1026   1024   1036   1037     1  0.0000000  0.6508444  3
   1026   1024   1036   1038     1  0.0000000  0.6508444  3
   1027   1030   1039   1040     1  0.0000000  0.6508444  3
   1027   1030   1039   1041     1  0.0000000  0.6508444  3
   1028   1027   1020   1049     1  0.0000000  0.6508444  3
   1028   1027   1030   1039     1  0.0000000  0.6508444  3
   1028   1027   1030   1031     1  0.0000000  0.6508444  3
   1028   1027   1030   1032     1  0.0000000  0.6508444  3
   1029   1027   1020   1049     1  0.0000000  0.6508444  3
   1029   1027   1030   1039     1  0.0000000  0.6508444  3
   1029   1027   1030   1031     1  0.0000000  0.6508444  3
   1029   1027   1030   1032     1  0.0000000  0.6508444  3
   1030   1027   1020   1049     1  0.0000000  0.6508444  3
   1031   1030   1039   1048     1  0.0000000  1.0460000  1
   1031   1030   1039   1048     1  0.0000000  0.0000000  3
   1031   1030   1039   1040     1  0.0000000  0.6508444  3
   1031   1030   1039   1041     1  0.0000000  0.6508444  3
   1032   1030   1039   1048     1  0.0000000  1.0460000  1
   1032   1030   1039   1048     1  0.0000000  0.0000000  3
   1032   1030   1039   1040     1  0.0000000  0.6508444  3
   1032   1030   1039   1041     1  0.0000000  0.6508444  3
   1033   1021   1020   1049     1  0.0000000  0.6508444  3
   1034   1033   1045   2158     1  0.0000000  1.0460000  1
   1034   1033   1045   2158     1  0.0000000  0.0000000  3
   1034   1033   1045   1046     1  0.0000000  0.6508444  3
   1034   1033   1045   1047     1  0.0000000  0.6508444  3
   1035   1033   1045   2158     1  0.0000000  1.0460000  1
   1035   1033   1045   2158     1  0.0000000  0.0000000  3
   1035   1033   1045   1046     1  0.0000000  0.6508444  3
   1035   1033   1045   1047     1  0.0000000  0.6508444  3
   1036   1024   1020   1049     1  0.0000000  0.6508444  3
   1037   1036   1042   2128     1  0.0000000  1.0460000  1
   1037   1036   1042   2128     1  0.0000000  0.0000000  3
   1037   1036   1042   1043     1  0.0000000  0.6508444  3
   1037   1036   1042   1044     1  0.0000000  0.6508444  3
   1038   1036   1042   2128     1  0.0000000  1.0460000  1
   1038   1036   1042   2128     1  0.0000000  0.0000000  3
   1038   1036   1042   1043     1  0.0000000  0.6508444  3
   1038   1036   1042   1044     1  0.0000000  0.6508444  3
   1042   2128   2119   2120     1  0.0000000  1.6038667  3
   1042   2128   2119   2121     1  0.0000000  1.6038667  3
   1043   1042   2128   2119     1  0.0000000  1.6038667  3
   1044   1042   2128   2119     1  0.0000000  1.6038667  3
   1045   2158   2149   2150     1  0.0000000  1.6038667  3
   1045   2158   2149   2151     1  0.0000000  1.6038667  3
   1046   1045   2158   2149     1  0.0000000  1.6038667  3
   1047   1045   2158   2149     1  0.0000000  1.6038667  3
   1050   1051   1063   1064     1  0.0000000  0.6508444  3
   1050   1051   1063   1065     1  0.0000000  0.6508444  3
   1050   1054   1066   1067     1  0.0000000  0.6508444  3
   1050   1054   1066   1068     1  0.0000000  0.6508444  3
   1050   1057   1060   1061     1  0.0000000  0.6508444  3
   1050   1057   1060   1062     1  0.0000000  0.6508444  3
   1051   1050   1054   1055     1  0.0000000  0.6508444  3
   1051   1050   1054   1056     1  0.0000000  0.6508444  3
   1051   1050   1057   1058     1  0.0000000  0.6508444  3
   1051   1050   1057   1059     1  0.0000000  0.6508444  3
   1051   1063   1075   1076     1  0.0000000  0.6508444  3
   1051   1063   1075   1077     1  0.0000000  0.6508444  3
   1052   1051   1050   1054     1  0.0000000  0.6508444  3
   1052   1051   1050   1057     1  0.0000000  0.6508444  3
   1052   1051   1050   1079     1  0.0000000  0.6508444  3
   1052   1051   1063   1075     1  0.0000000  0.6508444  3
   1052   1051   1063   1064     1  0.0000000  0.6508444  3
   1052   1051   1063   1065     1  0.0000000  0.6508444  3
   1053   1051   1050   1054     1  0.0000000  0.6508444  3
   1053   1051   1050   1057     1  0.0000000  0.6508444  3
   1053   1051   1050   1079     1  0.0000000  0.6508444  3
   1053   1051   1063   1075     1  0.0000000  0.6508444  3
   1053   1051   1063   1064     1  0.0000000  0.6508444  3
   1053   1051   1063   1065     1  0.0000000  0.6508444  3
   1054   1050   1057   1058     1  0.0000000  0.6508444  3
   1054   1050   1057   1059     1  0.0000000  0.6508444  3
   1054   1066   1072   1073     1  0.0000000  0.6508444  3
   1054   1066   1072   1074     1  0.0000000  0.6508444  3
   1055   1054   1050   1057     1  0.0000000  0.6508444  3
   1055   1054   1050   1079     1  0.0000000  0.6508444  3
   1055   1054   1066   1072     1  0.0000000  0.6508444  3
   1055   1054   1066   1067     1  0.0000000  0.6508444  3
   1055   1054   1066   1068     1  0.0000000  0.6508444  3
   1056   1054   1050   1057     1  0.0000000  0.6508444  3
   1056   1054   1050   1079     1  0.0000000  0.6508444  3
   1056   1054   1066   1072     1  0.0000000  0.6508444  3
   1056   1054   1066   1067     1  0.0000000  0.6508444  3
   1056   1054   1066   1068     1  0.0000000  0.6508444  3
   1057   1060   1069   1070     1  0.0000000  0.6508444  3
   1057   1060   1069   1071     1  0.0000000  0.6508444  3
   1058   1057   1050   1079     1  0.0000000  0.6508444  3
   1058   1057   1060   1069     1  0.0000000  0.6508444  3
   1058   1057   1060   1061     1  0.0000000  0.6508444  3
   1058   1057   1060   1062     1  0.0000000  0.6508444  3
   1059   1057   1050   1079     1  0.0000000  0.6508444  3
   1059   1057   1060   1069     1  0.0000000  0.6508444  3
   1059   1057   1060   1061     1  0.0000000  0.6508444  3
   1059   1057   1060   1062     1  0.0000000  0.6508444  3
   1060   1057   1050   1079     1  0.0000000  0.6508444  3
   1061   1060   1069   1078     1  0.0000000  1.0460000  1
   1061   1060   1069   1078     1  0.0000000  0.0000000  3
   1061   1060   1069   1070     1  0.0000000  0.6508444  3
   1061   1060   1069   1071     1  0.0000000  0.6508444  3
   1062   1060   1069   1078     1  0.0000000  1.0460000  1
   1062   1060   1069   1078     1  0.0000000  0.0000000  3
   1062   1060   1069   1070     1  0.0000000  0.6508444  3
   1062   1060   1069   1071     1  0.0000000  0.6508444  3
   1063   1051   1050   1079     1  0.0000000  0.6508444  3
   1064   1063   1075   2218     1  0.0000000  1.0460000  1
   1064   1063   1075   2218     1  0.0000000  0.0000000  3
   1064   1063   1075   1076     1  0.0000000  0.6508444  3
   1064   1063   1075   1077     1  0.0000000  0.6508444  3
   1065   1063   1075   2218     1  0.0000000  1.0460000  1
   1065   1063   1075   2218     1  0.0000000  0.0000000  3
   1065   1063   1075   1076     1  0.0000000  0.6508444  3
   1065   1063   1075   1077     1  0.0000000  0.6508444  3
   1066   1054   1050   1079     1  0.0000000  0.6508444  3
   1067   1066   1072   2188     1  0.0000000  1.0460000  1
   1067   1066   1072   2188     1  0.0000000  0.0000000  3
   1067   1066   1072   1073     1  0.0000000  0.6508444  3
   1067   1066   1072   1074     1  0.0000000  0.6508444  3
   1068   1066   1072   2188     1  0.0000000  1.0460000  1
   1068   1066   1072   2188     1  0.0000000  0.0000000  3
   1068   1066   1072   1073     1  0.0000000  0.6508444  3
   1068   1066   1072   1074     1  0.0000000  0.6508444  3
   1072   2188   2179   2180     1  0.0000000  1.6038667  3
   1072   2188   2179   2181     1  0.0000000  1.6038667  3
   1073   1072   2188   2179     1  0.0000000  1.6038667  3
   1074   1072   2188   2179     1  0.0000000  1.6038667  3
   1075   2218   2209   2210     1  0.0000000  1.6038667  3
   1075   2218   2209   2211     1  0.0000000  1.6038667  3
   1076   1075   2218   2209     1  0.0000000  1.6038667  3
   1077   1075   2218   2209     1  0.0000000  1.6038667  3
   1080   1081   1093   1094     1  0.0000000  0.6508444  3
   1080   1081   1093   1095     1  0.0000000  0.6508444  3
   1080   1084   1096   1097     1  0.0000000  0.6508444  3
   1080   1084   1096   1098     1  0.0000000  0.6508444  3
   1080   1087   1090   1091     1  0.0000000  0.6508444  3
   1080   1087   1090   1092     1  0.0000000  0.6508444  3
   1081   1080   1084   1085     1  0.0000000  0.6508444  3
   1081   1080   1084   1086     1  0.0000000  0.6508444  3
   1081   1080   1087   1088     1  0.0000000  0.6508444  3
   1081   1080   1087   1089     1  0.0000000  0.6508444  3
   1081   1093   1105   1106     1  0.0000000  0.6508444  3
   1081   1093   1105   1107     1  0.0000000  0.6508444  3
   1082   1081   1080   1084     1  0.0000000  0.6508444  3
   1082   1081   1080   1087     1  0.0000000  0.6508444  3
   1082   1081   1080   1109     1  0.0000000  0.6508444  3
   1082   1081   1093   1105     1  0.0000000  0.6508444  3
   1082   1081   1093   1094     1  0.0000000  0.6508444  3
   1082   1081   1093   1095     1  0.0000000  0.6508444  3
   1083   1081   1080   1084     1  0.0000000  0.6508444  3
   1083   1081   1080   1087     1  0.0000000  0.6508444  3
   1083   1081   1080   1109     1  0.0000000  0.6508444  3
   1083   1081   1093   1105     1  0.0000000  0.6508444  3
   1083   1081   1093   1094     1  0.0000000  0.6508444  3
   1083   1081   1093   1095     1  0.0000000  0.6508444  3
   1084   1080   1087   1088     1  0.0000000  0.6508444  3
   1084   1080   1087   1089     1  0.0000000  0.6508444  3
   1084   1096   1102   1103     1  0.0000000  0.6508444  3
   1084   1096   1102   1104     1  0.0000000  0.6508444  3
   1085   1084   1080   1087     1  0.0000000  0.6508444  3
   1085   1084   1080   1109     1  0.0000000  0.6508444  3
   1085   1084   1096   1102     1  0.0000000  0.6508444  3
   1085   1084   1096   1097     1  0.0000000  0.6508444  3
   1085   1084   1096   1098     1  0.0000000  0.6508444  3
   1086   1084   1080   1087     1  0.0000000  0.6508444  3
   1086   1084   1080   1109     1  0.0000000  0.6508444  3
   1086   1084   1096   1102     1  0.0000000  0.6508444  3
   1086   1084   1096   1097     1  0.0000000  0.6508444  3
   1086   1084   1096   1098     1  0.0000000  0.6508444  3
   1087   1090   1099   1100     1  0.0000000  0.6508444  3
   1087   1090   1099   1101     1  0.0000000  0.6508444  3
   1088   1087   1080   1109     1  0.0000000  0.6508444  3
   1088   1087   1090   1099     1  0.0000000  0.6508444  3
   1088   1087   1090   1091     1  0.0000000  0.6508444  3
   1088   1087   1090   1092     1  0.0000000  0.6508444  3
   1089   1087   1080   1109     1  0.0000000  0.6508444  3
   1089   1087   1090   1099     1  0.0000000  0.6508444  3
   1089   1087   1090   1091     1  0.0000000  0.6508444  3
   1089   1087   1090   1092     1  0.0000000  0.6508444  3
   1090   1087   1080   1109     1  0.0000000  0.6508444  3
   1091   1090   1099   1108     1  0.0000000  1.0460000  1
   1091   1090   1099   1108     1  0.0000000  0.0000000  3
   1091   1090   1099   1100     1  0.0000000  0.6508444  3
   1091   1090   1099   1101     1  0.0000000  0.6508444  3
   1092   1090   1099   1108     1  0.0000000  1.0460000  1
   1092   1090   1099   1108     1  0.0000000  0.0000000  3
   1092   1090   1099   1100     1  0.0000000  0.6508444  3
   1092   1090   1099   1101     1  0.0000000  0.6508444  3
   1093   1081   1080   1109     1  0.0000000  0.6508444  3
   1094   1093   1105   2278     1  0.0000000  1.0460000  1
   1094   1093   1105   2278     1  0.0000000  0.0000000  3
   1094   1093   1105   1106     1  0.0000000  0.6508444  3
   1094   1093   1105   1107     1  0.0000000  0.6508444  3
   1095   1093   1105   2278     1  0.0000000  1.0460000  1
   1095   1093   1105   2278     1  0.0000000  0.0000000  3
   1095   1093   1105   1106     1  0.0000000  0.6508444  3
   1095   1093   1105   1107     1  0.0000000  0.6508444  3
   1096   1084   1080   1109     1  0.0000000  0.6508444  3
   1097   1096   1102   2248     1  0.0000000  1.0460000  1
   1097   1096   1102   2248     1  0.0000000  0.0000000  3
   1097   1096   1102   1103     1  0.0000000  0.6508444  3
   1097   1096   1102   1104     1  0.0000000  0.6508444  3
   1098   1096   1102   2248     1  0.0000000  1.0460000  1
   1098   1096   1102   2248     1  0.0000000  0.0000000  3
   1098   1096   1102   1103     1  0.0000000  0.6508444  3
   1098   1096   1102   1104     1  0.0000000  0.6508444  3
   1102   2248   2239   2240     1  0.0000000  1.6038667  3
   1102   2248   2239   2241     1  0.0000000  1.6038667  3
   1103   1102   2248   2239     1  0.0000000  1.6038667  3
   1104   1102   2248   2239     1  0.0000000  1.6038667  3
   1105   2278   2269   2270     1  0.0000000  1.6038667  3
   1105   2278   2269   2271     1  0.0000000  1.6038667  3
   1106   1105   2278   2269     1  0.0000000  1.6038667  3
   1107   1105   2278   2269     1  0.0000000  1.6038667  3
   1110   1111   1123   1124     1  0.0000000  0.6508444  3
   1110   1111   1123   1125     1  0.0000000  0.6508444  3
   1110   1114   1126   1127     1  0.0000000  0.6508444  3
   1110   1114   1126   1128     1  0.0000000  0.6508444  3
   1110   1117   1120   1121     1  0.0000000  0.6508444  3
   1110   1117   1120   1122     1  0.0000000  0.6508444  3
   1111   1110   1114   1115     1  0.0000000  0.6508444  3
   1111   1110   1114   1116     1  0.0000000  0.6508444  3
   1111   1110   1117   1118     1  0.0000000  0.6508444  3
   1111   1110   1117   1119     1  0.0000000  0.6508444  3
   1111   1123   1135   1136     1  0.0000000  0.6508444  3
   1111   1123   1135   1137     1  0.0000000  0.6508444  3
   1112   1111   1110   1114     1  0.0000000  0.6508444  3
   1112   1111   1110   1117     1  0.0000000  0.6508444  3
   1112   1111   1110   1139     1  0.0000000  0.6508444  3
   1112   1111   1123   1135     1  0.0000000  0.6508444  3
   1112   1111   1123   1124     1  0.0000000  0.6508444  3
   1112   1111   1123   1125     1  0.0000000  0.6508444  3
   1113   1111   1110   1114     1  0.0000000  0.6508444  3
   1113   1111   1110   1117     1  0.0000000  0.6508444  3
   1113   1111   1110   1139     1  0.0000000  0.6508444  3
   1113   1111   1123   1135     1  0.0000000  0.6508444  3
   1113   1111   1123   1124     1  0.0000000  0.6508444  3
   1113   1111   1123   1125     1  0.0000000  0.6508444  3
   1114   1110   1117   1118     1  0.0000000  0.6508444  3
   1114   1110   1117   1119     1  0.0000000  0.6508444  3
   1114   1126   1132   1133     1  0.0000000  0.6508444  3
   1114   1126   1132   1134     1  0.0000000  0.6508444  3
   1115   1114   1110   1117     1  0.0000000  0.6508444  3
   1115   1114   1110   1139     1  0.0000000  0.6508444  3
   1115   1114   1126   1132     1  0.0000000  0.6508444  3
   1115   1114   1126   1127     1  0.0000000  0.6508444  3
   1115   1114   1126   1128     1  0.0000000  0.6508444  3
   1116   1114   1110   1117     1  0.0000000  0.6508444  3
   1116   1114   1110   1139     1  0.0000000  0.6508444  3
   1116   1114   1126   1132     1  0.0000000  0.6508444  3
   1116   1114   1126   1127     1  0.0000000  0.6508444  3
   1116   1114   1126   1128     1  0.0000000  0.6508444  3
   1117   1120   1129   1130     1  0.0000000  0.6508444  3
   1117   1120   1129   1131     1  0.0000000  0.6508444  3
   1118   1117   1110   1139     1  0.0000000  0.6508444  3
   1118   1117   1120   1129     1  0.0000000  0.6508444  3
   1118   1117   1120   1121     1  0.0000000  0.6508444  3
   1118   1117   1120   1122     1  0.0000000  0.6508444  3
   1119   1117   1110   1139     1  0.0000000  0.6508444  3
   1119   1117   1120   1129     1  0.0000000  0.6508444  3
   1119   1117   1120   1121     1  0.0000000  0.6508444  3
   1119   1117   1120   1122     1  0.0000000  0.6508444  3
   1120   1117   1110   1139     1  0.0000000  0.6508444  3
   1121   1120   1129   1138     1  0.0000000  1.0460000  1
   1121   1120   1129   1138     1  0.0000000  0.0000000  3
   1121   1120   1129   1130     1  0.0000000  0.6508444  3
   1121   1120   1129   1131     1  0.0000000  0.6508444  3
   1122   1120   1129   1138     1  0.0000000  1.0460000  1
   1122   1120   1129   1138     1  0.0000000  0.0000000  3
   1122   1120   1129   1130     1  0.0000000  0.6508444  3
   1122   1120   1129   1131     1  0.0000000  0.6508444  3
   1123   1111   1110   1139     1  0.0000000  0.6508444  3
   1124   1123   1135   2338     1  0.0000000  1.0460000  1
   1124   1123   1135   2338     1  0.0000000  0.0000000  3
   1124   1123   1135   1136     1  0.0000000  0.6508444  3
   1124   1123   1135   1137     1  0.0000000  0.6508444  3
   1125   1123   1135   2338     1  0.0000000  1.0460000  1
   1125   1123   1135   2338     1  0.0000000  0.0000000  3
   1125   1123   1135   1136     1  0.0000000  0.6508444  3
   1125   1123   1135   1137     1  0.0000000  0.6508444  3
   1126   1114   1110   1139     1  0.0000000  0.6508444  3
   1127   1126   1132   2308     1  0.0000000  1.0460000  1
   1127   1126   1132   2308     1  0.0000000  0.0000000  3
   1127   1126   1132   1133     1  0.0000000  0.6508444  3
   1127   1126   1132   1134     1  0.0000000  0.6508444  3
   1128   1126   1132   2308     1  0.0000000  1.0460000  1
   1128   1126   1132   2308     1  0.0000000  0.0000000  3
   1128   1126   1132   1133     1  0.0000000  0.6508444  3
   1128   1126   1132   1134     1  0.0000000  0.6508444  3
   1132   2308   2299   2300     1  0.0000000  1.6038667  3
   1132   2308   2299   2301     1  0.0000000  1.6038667  3
   1133   1132   2308   2299     1  0.0000000  1.6038667  3
   1134   1132   2308   2299     1  0.0000000  1.6038667  3
   1135   2338   2329   2330     1  0.0000000  1.6038667  3
   1135   2338   2329   2331     1  0.0000000  1.6038667  3
   1136   1135   2338   2329     1  0.0000000  1.6038667  3
   1137   1135   2338   2329     1  0.0000000  1.6038667  3
   1140   1141   1153   1154     1  0.0000000  0.6508444  3
   1140   1141   1153   1155     1  0.0000000  0.6508444  3
   1140   1144   1156   1157     1  0.0000000  0.6508444  3
   1140   1144   1156   1158     1  0.0000000  0.6508444  3
   1140   1147   1150   1151     1  0.0000000  0.6508444  3
   1140   1147   1150   1152     1  0.0000000  0.6508444  3
   1141   1140   1144   1145     1  0.0000000  0.6508444  3
   1141   1140   1144   1146     1  0.0000000  0.6508444  3
   1141   1140   1147   1148     1  0.0000000  0.6508444  3
   1141   1140   1147   1149     1  0.0000000  0.6508444  3
   1141   1153   1165   1166     1  0.0000000  0.6508444  3
   1141   1153   1165   1167     1  0.0000000  0.6508444  3
   1142   1141   1140   1144     1  0.0000000  0.6508444  3
   1142   1141   1140   1147     1  0.0000000  0.6508444  3
   1142   1141   1140   1169     1  0.0000000  0.6508444  3
   1142   1141   1153   1165     1  0.0000000  0.6508444  3
   1142   1141   1153   1154     1  0.0000000  0.6508444  3
   1142   1141   1153   1155     1  0.0000000  0.6508444  3
   1143   1141   1140   1144     1  0.0000000  0.6508444  3
   1143   1141   1140   1147     1  0.0000000  0.6508444  3
   1143   1141   1140   1169     1  0.0000000  0.6508444  3
   1143   1141   1153   1165     1  0.0000000  0.6508444  3
   1143   1141   1153   1154     1  0.0000000  0.6508444  3
   1143   1141   1153   1155     1  0.0000000  0.6508444  3
   1144   1140   1147   1148     1  0.0000000  0.6508444  3
   1144   1140   1147   1149     1  0.0000000  0.6508444  3
   1144   1156   1162   1163     1  0.0000000  0.6508444  3
   1144   1156   1162   1164     1  0.0000000  0.6508444  3
   1145   1144   1140   1147     1  0.0000000  0.6508444  3
   1145   1144   1140   1169     1  0.0000000  0.6508444  3
   1145   1144   1156   1162     1  0.0000000  0.6508444  3
   1145   1144   1156   1157     1  0.0000000  0.6508444  3
   1145   1144   1156   1158     1  0.0000000  0.6508444  3
   1146   1144   1140   1147     1  0.0000000  0.6508444  3
   1146   1144   1140   1169     1  0.0000000  0.6508444  3
   1146   1144   1156   1162     1  0.0000000  0.6508444  3
   1146   1144   1156   1157     1  0.0000000  0.6508444  3
   1146   1144   1156   1158     1  0.0000000  0.6508444  3
   1147   1150   1159   1160     1  0.0000000  0.6508444  3
   1147   1150   1159   1161     1  0.0000000  0.6508444  3
   1148   1147   1140   1169     1  0.0000000  0.6508444  3
   1148   1147   1150   1159     1  0.0000000  0.6508444  3
   1148   1147   1150   1151     1  0.0000000  0.6508444  3
   1148   1147   1150   1152     1  0.0000000  0.6508444  3
   1149   1147   1140   1169     1  0.0000000  0.6508444  3
   1149   1147   1150   1159     1  0.0000000  0.6508444  3
   1149   1147   1150   1151     1  0.0000000  0.6508444  3
   1149   1147   1150   1152     1  0.0000000  0.6508444  3
   1150   1147   1140   1169     1  0.0000000  0.6508444  3
   1151   1150   1159   1168     1  0.0000000  1.0460000  1
   1151   1150   1159   1168     1  0.0000000  0.0000000  3
   1151   1150   1159   1160     1  0.0000000  0.6508444  3
   1151   1150   1159   1161     1  0.0000000  0.6508444  3
   1152   1150   1159   1168     1  0.0000000  1.0460000  1
   1152   1150   1159   1168     1  0.0000000  0.0000000  3
   1152   1150   1159   1160     1  0.0000000  0.6508444  3
   1152   1150   1159   1161     1  0.0000000  0.6508444  3
   1153   1141   1140   1169     1  0.0000000  0.6508444  3
   1154   1153   1165   2398     1  0.0000000  1.0460000  1
   1154   1153   1165   2398     1  0.0000000  0.0000000  3
   1154   1153   1165   1166     1  0.0000000  0.6508444  3
   1154   1153   1165   1167     1  0.0000000  0.6508444  3
   1155   1153   1165   2398     1  0.0000000  1.0460000  1
   1155   1153   1165   2398     1  0.0000000  0.0000000  3
   1155   1153   1165   1166     1  0.0000000  0.6508444  3
   1155   1153   1165   1167     1  0.0000000  0.6508444  3
   1156   1144   1140   1169     1  0.0000000  0.6508444  3
   1157   1156   1162   2368     1  0.0000000  1.0460000  1
   1157   1156   1162   2368     1  0.0000000  0.0000000  3
   1157   1156   1162   1163     1  0.0000000  0.6508444  3
   1157   1156   1162   1164     1  0.0000000  0.6508444  3
   1158   1156   1162   2368     1  0.0000000  1.0460000  1
   1158   1156   1162   2368     1  0.0000000  0.0000000  3
   1158   1156   1162   1163     1  0.0000000  0.6508444  3
   1158   1156   1162   1164     1  0.0000000  0.6508444  3
   1162   2368   2359   2360     1  0.0000000  1.6038667  3
   1162   2368   2359   2361     1  0.0000000  1.6038667  3
   1163   1162   2368   2359     1  0.0000000  1.6038667  3
   1164   1162   2368   2359     1  0.0000000  1.6038667  3
   1165   2398   2389   2390     1  0.0000000  1.6038667  3
   1165   2398   2389   2391     1  0.0000000  1.6038667  3
   1166   1165   2398   2389     1  0.0000000  1.6038667  3
   1167   1165   2398   2389     1  0.0000000  1.6038667  3
   1170   1171   1183   1184     1  0.0000000  0.6508444  3
   1170   1171   1183   1185     1  0.0000000  0.6508444  3
   1170   1174   1186   1187     1  0.0000000  0.6508444  3
   1170   1174   1186   1188     1  0.0000000  0.6508444  3
   1170   1177   1180   1181     1  0.0000000  0.6508444  3
   1170   1177   1180   1182     1  0.0000000  0.6508444  3
   1171   1170   1174   1175     1  0.0000000  0.6508444  3
   1171   1170   1174   1176     1  0.0000000  0.6508444  3
   1171   1170   1177   1178     1  0.0000000  0.6508444  3
   1171   1170   1177   1179     1  0.0000000  0.6508444  3
   1171   1183   1195   1196     1  0.0000000  0.6508444  3
   1171   1183   1195   1197     1  0.0000000  0.6508444  3
   1172   1171   1170   1174     1  0.0000000  0.6508444  3
   1172   1171   1170   1177     1  0.0000000  0.6508444  3
   1172   1171   1170   1199     1  0.0000000  0.6508444  3
   1172   1171   1183   1195     1  0.0000000  0.6508444  3
   1172   1171   1183   1184     1  0.0000000  0.6508444  3
   1172   1171   1183   1185     1  0.0000000  0.6508444  3
   1173   1171   1170   1174     1  0.0000000  0.6508444  3
   1173   1171   1170   1177     1  0.0000000  0.6508444  3
   1173   1171   1170   1199     1  0.0000000  0.6508444  3
   1173   1171   1183   1195     1  0.0000000  0.6508444  3
   1173   1171   1183   1184     1  0.0000000  0.6508444  3
   1173   1171   1183   1185     1  0.0000000  0.6508444  3
   1174   1170   1177   1178     1  0.0000000  0.6508444  3
   1174   1170   1177   1179     1  0.0000000  0.6508444  3
   1174   1186   1192   1193     1  0.0000000  0.6508444  3
   1174   1186   1192   1194     1  0.0000000  0.6508444  3
   1175   1174   1170   1177     1  0.0000000  0.6508444  3
   1175   1174   1170   1199     1  0.0000000  0.6508444  3
   1175   1174   1186   1192     1  0.0000000  0.6508444  3
   1175   1174   1186   1187     1  0.0000000  0.6508444  3
   1175   1174   1186   1188     1  0.0000000  0.6508444  3
   1176   1174   1170   1177     1  0.0000000  0.6508444  3
   1176   1174   1170   1199     1  0.0000000  0.6508444  3
   1176   1174   1186   1192     1  0.0000000  0.6508444  3
   1176   1174   1186   1187     1  0.0000000  0.6508444  3
   1176   1174   1186   1188     1  0.0000000  0.6508444  3
   1177   1180   1189   1190     1  0.0000000  0.6508444  3
   1177   1180   1189   1191     1  0.0000000  0.6508444  3
   1178   1177   1170   1199     1  0.0000000  0.6508444  3
   1178   1177   1180   1189     1  0.0000000  0.6508444  3
   1178   1177   1180   1181     1  0.0000000  0.6508444  3
   1178   1177   1180   1182     1  0.0000000  0.6508444  3
   1179   1177   1170   1199     1  0.0000000  0.6508444  3
   1179   1177   1180   1189     1  0.0000000  0.6508444  3
   1179   1177   1180   1181     1  0.0000000  0.6508444  3
   1179   1177   1180   1182     1  0.0000000  0.6508444  3
   1180   1177   1170   1199     1  0.0000000  0.6508444  3
   1181   1180   1189   1198     1  0.0000000  1.0460000  1
   1181   1180   1189   1198     1  0.0000000  0.0000000  3
   1181   1180   1189   1190     1  0.0000000  0.6508444  3
   1181   1180   1189   1191     1  0.0000000  0.6508444  3
   1182   1180   1189   1198     1  0.0000000  1.0460000  1
   1182   1180   1189   1198     1  0.0000000  0.0000000  3
   1182   1180   1189   1190     1  0.0000000  0.6508444  3
   1182   1180   1189   1191     1  0.0000000  0.6508444  3
   1183   1171   1170   1199     1  0.0000000  0.6508444  3
   1184   1183   1195   2458     1  0.0000000  1.0460000  1
   1184   1183   1195   2458     1  0.0000000  0.0000000  3
   1184   1183   1195   1196     1  0.0000000  0.6508444  3
   1184   1183   1195   1197     1  0.0000000  0.6508444  3
   1185   1183   1195   2458     1  0.0000000  1.0460000  1
   1185   1183   1195   2458     1  0.0000000  0.0000000  3
   1185   1183   1195   1196     1  0.0000000  0.6508444  3
   1185   1183   1195   1197     1  0.0000000  0.6508444  3
   1186   1174   1170   1199     1  0.0000000  0.6508444  3
   1187   1186   1192   2428     1  0.0000000  1.0460000  1
   1187   1186   1192   2428     1  0.0000000  0.0000000  3
   1187   1186   1192   1193     1  0.0000000  0.6508444  3
   1187   1186   1192   1194     1  0.0000000  0.6508444  3
   1188   1186   1192   2428     1  0.0000000  1.0460000  1
   1188   1186   1192   2428     1  0.0000000  0.0000000  3
   1188   1186   1192   1193     1  0.0000000  0.6508444  3
   1188   1186   1192   1194     1  0.0000000  0.6508444  3
   1192   2428   2419   2420     1  0.0000000  1.6038667  3
   1192   2428   2419   2421     1  0.0000000  1.6038667  3
   1193   1192   2428   2419     1  0.0000000  1.6038667  3
   1194   1192   2428   2419     1  0.0000000  1.6038667  3
   1195   2458   2449   2450     1  0.0000000  1.6038667  3
   1195   2458   2449   2451     1  0.0000000  1.6038667  3
   1196   1195   2458   2449     1  0.0000000  1.6038667  3
   1197   1195   2458   2449     1  0.0000000  1.6038667  3
   1200   1201   1213   1214     1  0.0000000  0.6508444  3
   1200   1201   1213   1215     1  0.0000000  0.6508444  3
   1200   1204   1216   1217     1  0.0000000  0.6508444  3
   1200   1204   1216   1218     1  0.0000000  0.6508444  3
   1200   1207   1210   1211     1  0.0000000  0.6508444  3
   1200   1207   1210   1212     1  0.0000000  0.6508444  3
   1201   1200   1204   1205     1  0.0000000  0.6508444  3
   1201   1200   1204   1206     1  0.0000000  0.6508444  3
   1201   1200   1207   1208     1  0.0000000  0.6508444  3
   1201   1200   1207   1209     1  0.0000000  0.6508444  3
   1201   1213   1225   1226     1  0.0000000  0.6508444  3
   1201   1213   1225   1227     1  0.0000000  0.6508444  3
   1202   1201   1200   1204     1  0.0000000  0.6508444  3
   1202   1201   1200   1207     1  0.0000000  0.6508444  3
   1202   1201   1200   1229     1  0.0000000  0.6508444  3
   1202   1201   1213   1225     1  0.0000000  0.6508444  3
   1202   1201   1213   1214     1  0.0000000  0.6508444  3
   1202   1201   1213   1215     1  0.0000000  0.6508444  3
   1203   1201   1200   1204     1  0.0000000  0.6508444  3
   1203   1201   1200   1207     1  0.0000000  0.6508444  3
   1203   1201   1200   1229     1  0.0000000  0.6508444  3
   1203   1201   1213   1225     1  0.0000000  0.6508444  3
   1203   1201   1213   1214     1  0.0000000  0.6508444  3
   1203   1201   1213   1215     1  0.0000000  0.6508444  3
   1204   1200   1207   1208     1  0.0000000  0.6508444  3
   1204   1200   1207   1209     1  0.0000000  0.6508444  3
   1204   1216   1222   1223     1  0.0000000  0.6508444  3
   1204   1216   1222   1224     1  0.0000000  0.6508444  3
   1205   1204   1200   1207     1  0.0000000  0.6508444  3
   1205   1204   1200   1229     1  0.0000000  0.6508444  3
   1205   1204   1216   1222     1  0.0000000  0.6508444  3
   1205   1204   1216   1217     1  0.0000000  0.6508444  3
   1205   1204   1216   1218     1  0.0000000  0.6508444  3
   1206   1204   1200   1207     1  0.0000000  0.6508444  3
   1206   1204   1200   1229     1  0.0000000  0.6508444  3
   1206   1204   1216   1222     1  0.0000000  0.6508444  3
   1206   1204   1216   1217     1  0.0000000  0.6508444  3
   1206   1204   1216   1218     1  0.0000000  0.6508444  3
   1207   1210   1219   1220     1  0.0000000  0.6508444  3
   1207   1210   1219   1221     1  0.0000000  0.6508444  3
   1208   1207   1200   1229     1  0.0000000  0.6508444  3
   1208   1207   1210   1219     1  0.0000000  0.6508444  3
   1208   1207   1210   1211     1  0.0000000  0.6508444  3
   1208   1207   1210   1212     1  0.0000000  0.6508444  3
   1209   1207   1200   1229     1  0.0000000  0.6508444  3
   1209   1207   1210   1219     1  0.0000000  0.6508444  3
   1209   1207   1210   1211     1  0.0000000  0.6508444  3
   1209   1207   1210   1212     1  0.0000000  0.6508444  3
   1210   1207   1200   1229     1  0.0000000  0.6508444  3
   1211   1210   1219   1228     1  0.0000000  1.0460000  1
   1211   1210   1219   1228     1  0.0000000  0.0000000  3
   1211   1210   1219   1220     1  0.0000000  0.6508444  3
   1211   1210   1219   1221     1  0.0000000  0.6508444  3
   1212   1210   1219   1228     1  0.0000000  1.0460000  1
   1212   1210   1219   1228     1  0.0000000  0.0000000  3
   1212   1210   1219   1220     1  0.0000000  0.6508444  3
   1212   1210   1219   1221     1  0.0000000  0.6508444  3
   1213   1201   1200   1229     1  0.0000000  0.6508444  3
   1214   1213   1225   2518     1  0.0000000  1.0460000  1
   1214   1213   1225   2518     1  0.0000000  0.0000000  3
   1214   1213   1225   1226     1  0.0000000  0.6508444  3
   1214   1213   1225   1227     1  0.0000000  0.6508444  3
   1215   1213   1225   2518     1  0.0000000  1.0460000  1
   1215   1213   1225   2518     1  0.0000000  0.0000000  3
   1215   1213   1225   1226     1  0.0000000  0.6508444  3
   1215   1213   1225   1227     1  0.0000000  0.6508444  3
   1216   1204   1200   1229     1  0.0000000  0.6508444  3
   1217   1216   1222   2488     1  0.0000000  1.0460000  1
   1217   1216   1222   2488     1  0.0000000  0.0000000  3
   1217   1216   1222   1223     1  0.0000000  0.6508444  3
   1217   1216   1222   1224     1  0.0000000  0.6508444  3
   1218   1216   1222   2488     1  0.0000000  1.0460000  1
   1218   1216   1222   2488     1  0.0000000  0.0000000  3
   1218   1216   1222   1223     1  0.0000000  0.6508444  3
   1218   1216   1222   1224     1  0.0000000  0.6508444  3
   1222   2488   2479   2480     1  0.0000000  1.6038667  3
   1222   2488   2479   2481     1  0.0000000  1.6038667  3
   1223   1222   2488   2479     1  0.0000000  1.6038667  3
   1224   1222   2488   2479     1  0.0000000  1.6038667  3
   1225   2518   2509   2510     1  0.0000000  1.6038667  3
   1225   2518   2509   2511     1  0.0000000  1.6038667  3
   1226   1225   2518   2509     1  0.0000000  1.6038667  3
   1227   1225   2518   2509     1  0.0000000  1.6038667  3
   1230   1231   1243   1244     1  0.0000000  0.6508444  3
   1230   1231   1243   1245     1  0.0000000  0.6508444  3
   1230   1234   1246   1247     1  0.0000000  0.6508444  3
   1230   1234   1246   1248     1  0.0000000  0.6508444  3
   1230   1237   1240   1241     1  0.0000000  0.6508444  3
   1230   1237   1240   1242     1  0.0000000  0.6508444  3
   1231   1230   1234   1235     1  0.0000000  0.6508444  3
   1231   1230   1234   1236     1  0.0000000  0.6508444  3
   1231   1230   1237   1238     1  0.0000000  0.6508444  3
   1231   1230   1237   1239     1  0.0000000  0.6508444  3
   1231   1243   1255   1256     1  0.0000000  0.6508444  3
   1231   1243   1255   1257     1  0.0000000  0.6508444  3
   1232   1231   1230   1234     1  0.0000000  0.6508444  3
   1232   1231   1230   1237     1  0.0000000  0.6508444  3
   1232   1231   1230   1259     1  0.0000000  0.6508444  3
   1232   1231   1243   1255     1  0.0000000  0.6508444  3
   1232   1231   1243   1244     1  0.0000000  0.6508444  3
   1232   1231   1243   1245     1  0.0000000  0.6508444  3
   1233   1231   1230   1234     1  0.0000000  0.6508444  3
   1233   1231   1230   1237     1  0.0000000  0.6508444  3
   1233   1231   1230   1259     1  0.0000000  0.6508444  3
   1233   1231   1243   1255     1  0.0000000  0.6508444  3
   1233   1231   1243   1244     1  0.0000000  0.6508444  3
   1233   1231   1243   1245     1  0.0000000  0.6508444  3
   1234   1230   1237   1238     1  0.0000000  0.6508444  3
   1234   1230   1237   1239     1  0.0000000  0.6508444  3
   1234   1246   1252   1253     1  0.0000000  0.6508444  3
   1234   1246   1252   1254     1  0.0000000  0.6508444  3
   1235   1234   1230   1237     1  0.0000000  0.6508444  3
   1235   1234   1230   1259     1  0.0000000  0.6508444  3
   1235   1234   1246   1252     1  0.0000000  0.6508444  3
   1235   1234   1246   1247     1  0.0000000  0.6508444  3
   1235   1234   1246   1248     1  0.0000000  0.6508444  3
   1236   1234   1230   1237     1  0.0000000  0.6508444  3
   1236   1234   1230   1259     1  0.0000000  0.6508444  3
   1236   1234   1246   1252     1  0.0000000  0.6508444  3
   1236   1234   1246   1247     1  0.0000000  0.6508444  3
   1236   1234   1246   1248     1  0.0000000  0.6508444  3
   1237   1240   1249   1250     1  0.0000000  0.6508444  3
   1237   1240   1249   1251     1  0.0000000  0.6508444  3
   1238   1237   1230   1259     1  0.0000000  0.6508444  3
   1238   1237   1240   1249     1  0.0000000  0.6508444  3
   1238   1237   1240   1241     1  0.0000000  0.6508444  3
   1238   1237   1240   1242     1  0.0000000  0.6508444  3
   1239   1237   1230   1259     1  0.0000000  0.6508444  3
   1239   1237   1240   1249     1  0.0000000  0.6508444  3
   1239   1237   1240   1241     1  0.0000000  0.6508444  3
   1239   1237   1240   1242     1  0.0000000  0.6508444  3
   1240   1237   1230   1259     1  0.0000000  0.6508444  3
   1241   1240   1249   1258     1  0.0000000  1.0460000  1
   1241   1240   1249   1258     1  0.0000000  0.0000000  3
   1241   1240   1249   1250     1  0.0000000  0.6508444  3
   1241   1240   1249   1251     1  0.0000000  0.6508444  3
   1242   1240   1249   1258     1  0.0000000  1.0460000  1
   1242   1240   1249   1258     1  0.0000000  0.0000000  3
   1242   1240   1249   1250     1  0.0000000  0.6508444  3
   1242   1240   1249   1251     1  0.0000000  0.6508444  3
   1243   1231   1230   1259     1  0.0000000  0.6508444  3
   1244   1243   1255   2578     1  0.0000000  1.0460000  1
   1244   1243   1255   2578     1  0.0000000  0.0000000  3
   1244   1243   1255   1256     1  0.0000000  0.6508444  3
   1244   1243   1255   1257     1  0.0000000  0.6508444  3
   1245   1243   1255   2578     1  0.0000000  1.0460000  1
   1245   1243   1255   2578     1  0.0000000  0.0000000  3
   1245   1243   1255   1256     1  0.0000000  0.6508444  3
   1245   1243   1255   1257     1  0.0000000  0.6508444  3
   1246   1234   1230   1259     1  0.0000000  0.6508444  3
   1247   1246   1252   2548     1  0.0000000  1.0460000  1
   1247   1246   1252   2548     1  0.0000000  0.0000000  3
   1247   1246   1252   1253     1  0.0000000  0.6508444  3
   1247   1246   1252   1254     1  0.0000000  0.6508444  3
   1248   1246   1252   2548     1  0.0000000  1.0460000  1
   1248   1246   1252   2548     1  0.0000000  0.0000000  3
   1248   1246   1252   1253     1  0.0000000  0.6508444  3
   1248   1246   1252   1254     1  0.0000000  0.6508444  3
   1252   2548   2539   2540     1  0.0000000  1.6038667  3
   1252   2548   2539   2541     1  0.0000000  1.6038667  3
   1253   1252   2548   2539     1  0.0000000  1.6038667  3
   1254   1252   2548   2539     1  0.0000000  1.6038667  3
   1255   2578   2569   2570     1  0.0000000  1.6038667  3
   1255   2578   2569   2571     1  0.0000000  1.6038667  3
   1256   1255   2578   2569     1  0.0000000  1.6038667  3
   1257   1255   2578   2569     1  0.0000000  1.6038667  3
   1260   1261   1273   1274     1  0.0000000  0.6508444  3
   1260   1261   1273   1275     1  0.0000000  0.6508444  3
   1260   1264   1276   1277     1  0.0000000  0.6508444  3
   1260   1264   1276   1278     1  0.0000000  0.6508444  3
   1260   1267   1270   1271     1  0.0000000  0.6508444  3
   1260   1267   1270   1272     1  0.0000000  0.6508444  3
   1261   1260   1264   1265     1  0.0000000  0.6508444  3
   1261   1260   1264   1266     1  0.0000000  0.6508444  3
   1261   1260   1267   1268     1  0.0000000  0.6508444  3
   1261   1260   1267   1269     1  0.0000000  0.6508444  3
   1261   1273   1285   1286     1  0.0000000  0.6508444  3
   1261   1273   1285   1287     1  0.0000000  0.6508444  3
   1262   1261   1260   1264     1  0.0000000  0.6508444  3
   1262   1261   1260   1267     1  0.0000000  0.6508444  3
   1262   1261   1260   1289     1  0.0000000  0.6508444  3
   1262   1261   1273   1285     1  0.0000000  0.6508444  3
   1262   1261   1273   1274     1  0.0000000  0.6508444  3
   1262   1261   1273   1275     1  0.0000000  0.6508444  3
   1263   1261   1260   1264     1  0.0000000  0.6508444  3
   1263   1261   1260   1267     1  0.0000000  0.6508444  3
   1263   1261   1260   1289     1  0.0000000  0.6508444  3
   1263   1261   1273   1285     1  0.0000000  0.6508444  3
   1263   1261   1273   1274     1  0.0000000  0.6508444  3
   1263   1261   1273   1275     1  0.0000000  0.6508444  3
   1264   1260   1267   1268     1  0.0000000  0.6508444  3
   1264   1260   1267   1269     1  0.0000000  0.6508444  3
   1264   1276   1282   1283     1  0.0000000  0.6508444  3
   1264   1276   1282   1284     1  0.0000000  0.6508444  3
   1265   1264   1260   1267     1  0.0000000  0.6508444  3
   1265   1264   1260   1289     1  0.0000000  0.6508444  3
   1265   1264   1276   1282     1  0.0000000  0.6508444  3
   1265   1264   1276   1277     1  0.0000000  0.6508444  3
   1265   1264   1276   1278     1  0.0000000  0.6508444  3
   1266   1264   1260   1267     1  0.0000000  0.6508444  3
   1266   1264   1260   1289     1  0.0000000  0.6508444  3
   1266   1264   1276   1282     1  0.0000000  0.6508444  3
   1266   1264   1276   1277     1  0.0000000  0.6508444  3
   1266   1264   1276   1278     1  0.0000000  0.6508444  3
   1267   1270   1279   1280     1  0.0000000  0.6508444  3
   1267   1270   1279   1281     1  0.0000000  0.6508444  3
   1268   1267   1260   1289     1  0.0000000  0.6508444  3
   1268   1267   1270   1279     1  0.0000000  0.6508444  3
   1268   1267   1270   1271     1  0.0000000  0.6508444  3
   1268   1267   1270   1272     1  0.0000000  0.6508444  3
   1269   1267   1260   1289     1  0.0000000  0.6508444  3
   1269   1267   1270   1279     1  0.0000000  0.6508444  3
   1269   1267   1270   1271     1  0.0000000  0.6508444  3
   1269   1267   1270   1272     1  0.0000000  0.6508444  3
   1270   1267   1260   1289     1  0.0000000  0.6508444  3
   1271   1270   1279   1288     1  0.0000000  1.0460000  1
   1271   1270   1279   1288     1  0.0000000  0.0000000  3
   1271   1270   1279   1280     1  0.0000000  0.6508444  3
   1271   1270   1279   1281     1  0.0000000  0.6508444  3
   1272   1270   1279   1288     1  0.0000000  1.0460000  1
   1272   1270   1279   1288     1  0.0000000  0.0000000  3
   1272   1270   1279   1280     1  0.0000000  0.6508444  3
   1272   1270   1279   1281     1  0.0000000  0.6508444  3
   1273   1261   1260   1289     1  0.0000000  0.6508444  3
   1274   1273   1285   2638     1  0.0000000  1.0460000  1
   1274   1273   1285   2638     1  0.0000000  0.0000000  3
   1274   1273   1285   1286     1  0.0000000  0.6508444  3
   1274   1273   1285   1287     1  0.0000000  0.6508444  3
   1275   1273   1285   2638     1  0.0000000  1.0460000  1
   1275   1273   1285   2638     1  0.0000000  0.0000000  3
   1275   1273   1285   1286     1  0.0000000  0.6508444  3
   1275   1273   1285   1287     1  0.0000000  0.6508444  3
   1276   1264   1260   1289     1  0.0000000  0.6508444  3
   1277   1276   1282   2608     1  0.0000000  1.0460000  1
   1277   1276   1282   2608     1  0.0000000  0.0000000  3
   1277   1276   1282   1283     1  0.0000000  0.6508444  3
   1277   1276   1282   1284     1  0.0000000  0.6508444  3
   1278   1276   1282   2608     1  0.0000000  1.0460000  1
   1278   1276   1282   2608     1  0.0000000  0.0000000  3
   1278   1276   1282   1283     1  0.0000000  0.6508444  3
   1278   1276   1282   1284     1  0.0000000  0.6508444  3
   1282   2608   2599   2600     1  0.0000000  1.6038667  3
   1282   2608   2599   2601     1  0.0000000  1.6038667  3
   1283   1282   2608   2599     1  0.0000000  1.6038667  3
   1284   1282   2608   2599     1  0.0000000  1.6038667  3
   1285   2638   2629   2630     1  0.0000000  1.6038667  3
   1285   2638   2629   2631     1  0.0000000  1.6038667  3
   1286   1285   2638   2629     1  0.0000000  1.6038667  3
   1287   1285   2638   2629     1  0.0000000  1.6038667  3
   1290   1291   1303   1304     1  0.0000000  0.6508444  3
   1290   1291   1303   1305     1  0.0000000  0.6508444  3
   1290   1294   1306   1307     1  0.0000000  0.6508444  3
   1290   1294   1306   1308     1  0.0000000  0.6508444  3
   1290   1297   1300   1301     1  0.0000000  0.6508444  3
   1290   1297   1300   1302     1  0.0000000  0.6508444  3
   1291   1290   1294   1295     1  0.0000000  0.6508444  3
   1291   1290   1294   1296     1  0.0000000  0.6508444  3
   1291   1290   1297   1298     1  0.0000000  0.6508444  3
   1291   1290   1297   1299     1  0.0000000  0.6508444  3
   1291   1303   1315   1316     1  0.0000000  0.6508444  3
   1291   1303   1315   1317     1  0.0000000  0.6508444  3
   1292   1291   1290   1294     1  0.0000000  0.6508444  3
   1292   1291   1290   1297     1  0.0000000  0.6508444  3
   1292   1291   1290   1319     1  0.0000000  0.6508444  3
   1292   1291   1303   1315     1  0.0000000  0.6508444  3
   1292   1291   1303   1304     1  0.0000000  0.6508444  3
   1292   1291   1303   1305     1  0.0000000  0.6508444  3
   1293   1291   1290   1294     1  0.0000000  0.6508444  3
   1293   1291   1290   1297     1  0.0000000  0.6508444  3
   1293   1291   1290   1319     1  0.0000000  0.6508444  3
   1293   1291   1303   1315     1  0.0000000  0.6508444  3
   1293   1291   1303   1304     1  0.0000000  0.6508444  3
   1293   1291   1303   1305     1  0.0000000  0.6508444  3
   1294   1290   1297   1298     1  0.0000000  0.6508444  3
   1294   1290   1297   1299     1  0.0000000  0.6508444  3
   1294   1306   1312   1313     1  0.0000000  0.6508444  3
   1294   1306   1312   1314     1  0.0000000  0.6508444  3
   1295   1294   1290   1297     1  0.0000000  0.6508444  3
   1295   1294   1290   1319     1  0.0000000  0.6508444  3
   1295   1294   1306   1312     1  0.0000000  0.6508444  3
   1295   1294   1306   1307     1  0.0000000  0.6508444  3
   1295   1294   1306   1308     1  0.0000000  0.6508444  3
   1296   1294   1290   1297     1  0.0000000  0.6508444  3
   1296   1294   1290   1319     1  0.0000000  0.6508444  3
   1296   1294   1306   1312     1  0.0000000  0.6508444  3
   1296   1294   1306   1307     1  0.0000000  0.6508444  3
   1296   1294   1306   1308     1  0.0000000  0.6508444  3
   1297   1300   1309   1310     1  0.0000000  0.6508444  3
   1297   1300   1309   1311     1  0.0000000  0.6508444  3
   1298   1297   1290   1319     1  0.0000000  0.6508444  3
   1298   1297   1300   1309     1  0.0000000  0.6508444  3
   1298   1297   1300   1301     1  0.0000000  0.6508444  3
   1298   1297   1300   1302     1  0.0000000  0.6508444  3
   1299   1297   1290   1319     1  0.0000000  0.6508444  3
   1299   1297   1300   1309     1  0.0000000  0.6508444  3
   1299   1297   1300   1301     1  0.0000000  0.6508444  3
   1299   1297   1300   1302     1  0.0000000  0.6508444  3
   1300   1297   1290   1319     1  0.0000000  0.6508444  3
   1301   1300   1309   1318     1  0.0000000  1.0460000  1
   1301   1300   1309   1318     1  0.0000000  0.0000000  3
   1301   1300   1309   1310     1  0.0000000  0.6508444  3
   1301   1300   1309   1311     1  0.0000000  0.6508444  3
   1302   1300   1309   1318     1  0.0000000  1.0460000  1
   1302   1300   1309   1318     1  0.0000000  0.0000000  3
   1302   1300   1309   1310     1  0.0000000  0.6508444  3
   1302   1300   1309   1311     1  0.0000000  0.6508444  3
   1303   1291   1290   1319     1  0.0000000  0.6508444  3
   1304   1303   1315   2698     1  0.0000000  1.0460000  1
   1304   1303   1315   2698     1  0.0000000  0.0000000  3
   1304   1303   1315   1316     1  0.0000000  0.6508444  3
   1304   1303   1315   1317     1  0.0000000  0.6508444  3
   1305   1303   1315   2698     1  0.0000000  1.0460000  1
   1305   1303   1315   2698     1  0.0000000  0.0000000  3
   1305   1303   1315   1316     1  0.0000000  0.6508444  3
   1305   1303   1315   1317     1  0.0000000  0.6508444  3
   1306   1294   1290   1319     1  0.0000000  0.6508444  3
   1307   1306   1312   2668     1  0.0000000  1.0460000  1
   1307   1306   1312   2668     1  0.0000000  0.0000000  3
   1307   1306   1312   1313     1  0.0000000  0.6508444  3
   1307   1306   1312   1314     1  0.0000000  0.6508444  3
   1308   1306   1312   2668     1  0.0000000  1.0460000  1
   1308   1306   1312   2668     1  0.0000000  0.0000000  3
   1308   1306   1312   1313     1  0.0000000  0.6508444  3
   1308   1306   1312   1314     1  0.0000000  0.6508444  3
   1312   2668   2659   2660     1  0.0000000  1.6038667  3
   1312   2668   2659   2661     1  0.0000000  1.6038667  3
   1313   1312   2668   2659     1  0.0000000  1.6038667  3
   1314   1312   2668   2659     1  0.0000000  1.6038667  3
   1315   2698   2689   2690     1  0.0000000  1.6038667  3
   1315   2698   2689   2691     1  0.0000000  1.6038667  3
   1316   1315   2698   2689     1  0.0000000  1.6038667  3
   1317   1315   2698   2689     1  0.0000000  1.6038667  3
   1320   1321   1333   1334     1  0.0000000  0.6508444  3
   1320   1321   1333   1335     1  0.0000000  0.6508444  3
   1320   1324   1336   1337     1  0.0000000  0.6508444  3
   1320   1324   1336   1338     1  0.0000000  0.6508444  3
   1320   1327   1330   1331     1  0.0000000  0.6508444  3
   1320   1327   1330   1332     1  0.0000000  0.6508444  3
   1321   1320   1324   1325     1  0.0000000  0.6508444  3
   1321   1320   1324   1326     1  0.0000000  0.6508444  3
   1321   1320   1327   1328     1  0.0000000  0.6508444  3
   1321   1320   1327   1329     1  0.0000000  0.6508444  3
   1321   1333   1345   1346     1  0.0000000  0.6508444  3
   1321   1333   1345   1347     1  0.0000000  0.6508444  3
   1322   1321   1320   1324     1  0.0000000  0.6508444  3
   1322   1321   1320   1327     1  0.0000000  0.6508444  3
   1322   1321   1320   1349     1  0.0000000  0.6508444  3
   1322   1321   1333   1345     1  0.0000000  0.6508444  3
   1322   1321   1333   1334     1  0.0000000  0.6508444  3
   1322   1321   1333   1335     1  0.0000000  0.6508444  3
   1323   1321   1320   1324     1  0.0000000  0.6508444  3
   1323   1321   1320   1327     1  0.0000000  0.6508444  3
   1323   1321   1320   1349     1  0.0000000  0.6508444  3
   1323   1321   1333   1345     1  0.0000000  0.6508444  3
   1323   1321   1333   1334     1  0.0000000  0.6508444  3
   1323   1321   1333   1335     1  0.0000000  0.6508444  3
   1324   1320   1327   1328     1  0.0000000  0.6508444  3
   1324   1320   1327   1329     1  0.0000000  0.6508444  3
   1324   1336   1342   1343     1  0.0000000  0.6508444  3
   1324   1336   1342   1344     1  0.0000000  0.6508444  3
   1325   1324   1320   1327     1  0.0000000  0.6508444  3
   1325   1324   1320   1349     1  0.0000000  0.6508444  3
   1325   1324   1336   1342     1  0.0000000  0.6508444  3
   1325   1324   1336   1337     1  0.0000000  0.6508444  3
   1325   1324   1336   1338     1  0.0000000  0.6508444  3
   1326   1324   1320   1327     1  0.0000000  0.6508444  3
   1326   1324   1320   1349     1  0.0000000  0.6508444  3
   1326   1324   1336   1342     1  0.0000000  0.6508444  3
   1326   1324   1336   1337     1  0.0000000  0.6508444  3
   1326   1324   1336   1338     1  0.0000000  0.6508444  3
   1327   1330   1339   1340     1  0.0000000  0.6508444  3
   1327   1330   1339   1341     1  0.0000000  0.6508444  3
   1328   1327   1320   1349     1  0.0000000  0.6508444  3
   1328   1327   1330   1339     1  0.0000000  0.6508444  3
   1328   1327   1330   1331     1  0.0000000  0.6508444  3
   1328   1327   1330   1332     1  0.0000000  0.6508444  3
   1329   1327   1320   1349     1  0.0000000  0.6508444  3
   1329   1327   1330   1339     1  0.0000000  0.6508444  3
   1329   1327   1330   1331     1  0.0000000  0.6508444  3
   1329   1327   1330   1332     1  0.0000000  0.6508444  3
   1330   1327   1320   1349     1  0.0000000  0.6508444  3
   1331   1330   1339   1348     1  0.0000000  1.0460000  1
   1331   1330   1339   1348     1  0.0000000  0.0000000  3
   1331   1330   1339   1340     1  0.0000000  0.6508444  3
   1331   1330   1339   1341     1  0.0000000  0.6508444  3
   1332   1330   1339   1348     1  0.0000000  1.0460000  1
   1332   1330   1339   1348     1  0.0000000  0.0000000  3
   1332   1330   1339   1340     1  0.0000000  0.6508444  3
   1332   1330   1339   1341     1  0.0000000  0.6508444  3
   1333   1321   1320   1349     1  0.0000000  0.6508444  3
   1334   1333   1345   2758     1  0.0000000  1.0460000  1
   1334   1333   1345   2758     1  0.0000000  0.0000000  3
   1334   1333   1345   1346     1  0.0000000  0.6508444  3
   1334   1333   1345   1347     1  0.0000000  0.6508444  3
   1335   1333   1345   2758     1  0.0000000  1.0460000  1
   1335   1333   1345   2758     1  0.0000000  0.0000000  3
   1335   1333   1345   1346     1  0.0000000  0.6508444  3
   1335   1333   1345   1347     1  0.0000000  0.6508444  3
   1336   1324   1320   1349     1  0.0000000  0.6508444  3
   1337   1336   1342   2728     1  0.0000000  1.0460000  1
   1337   1336   1342   2728     1  0.0000000  0.0000000  3
   1337   1336   1342   1343     1  0.0000000  0.6508444  3
   1337   1336   1342   1344     1  0.0000000  0.6508444  3
   1338   1336   1342   2728     1  0.0000000  1.0460000  1
   1338   1336   1342   2728     1  0.0000000  0.0000000  3
   1338   1336   1342   1343     1  0.0000000  0.6508444  3
   1338   1336   1342   1344     1  0.0000000  0.6508444  3
   1342   2728   2719   2720     1  0.0000000  1.6038667  3
   1342   2728   2719   2721     1  0.0000000  1.6038667  3
   1343   1342   2728   2719     1  0.0000000  1.6038667  3
   1344   1342   2728   2719     1  0.0000000  1.6038667  3
   1345   2758   2749   2750     1  0.0000000  1.6038667  3
   1345   2758   2749   2751     1  0.0000000  1.6038667  3
   1346   1345   2758   2749     1  0.0000000  1.6038667  3
   1347   1345   2758   2749     1  0.0000000  1.6038667  3
   1350   1351   1363   1364     1  0.0000000  0.6508444  3
   1350   1351   1363   1365     1  0.0000000  0.6508444  3
   1350   1354   1366   1367     1  0.0000000  0.6508444  3
   1350   1354   1366   1368     1  0.0000000  0.6508444  3
   1350   1357   1360   1361     1  0.0000000  0.6508444  3
   1350   1357   1360   1362     1  0.0000000  0.6508444  3
   1351   1350   1354   1355     1  0.0000000  0.6508444  3
   1351   1350   1354   1356     1  0.0000000  0.6508444  3
   1351   1350   1357   1358     1  0.0000000  0.6508444  3
   1351   1350   1357   1359     1  0.0000000  0.6508444  3
   1351   1363   1375   1376     1  0.0000000  0.6508444  3
   1351   1363   1375   1377     1  0.0000000  0.6508444  3
   1352   1351   1350   1354     1  0.0000000  0.6508444  3
   1352   1351   1350   1357     1  0.0000000  0.6508444  3
   1352   1351   1350   1379     1  0.0000000  0.6508444  3
   1352   1351   1363   1375     1  0.0000000  0.6508444  3
   1352   1351   1363   1364     1  0.0000000  0.6508444  3
   1352   1351   1363   1365     1  0.0000000  0.6508444  3
   1353   1351   1350   1354     1  0.0000000  0.6508444  3
   1353   1351   1350   1357     1  0.0000000  0.6508444  3
   1353   1351   1350   1379     1  0.0000000  0.6508444  3
   1353   1351   1363   1375     1  0.0000000  0.6508444  3
   1353   1351   1363   1364     1  0.0000000  0.6508444  3
   1353   1351   1363   1365     1  0.0000000  0.6508444  3
   1354   1350   1357   1358     1  0.0000000  0.6508444  3
   1354   1350   1357   1359     1  0.0000000  0.6508444  3
   1354   1366   1372   1373     1  0.0000000  0.6508444  3
   1354   1366   1372   1374     1  0.0000000  0.6508444  3
   1355   1354   1350   1357     1  0.0000000  0.6508444  3
   1355   1354   1350   1379     1  0.0000000  0.6508444  3
   1355   1354   1366   1372     1  0.0000000  0.6508444  3
   1355   1354   1366   1367     1  0.0000000  0.6508444  3
   1355   1354   1366   1368     1  0.0000000  0.6508444  3
   1356   1354   1350   1357     1  0.0000000  0.6508444  3
   1356   1354   1350   1379     1  0.0000000  0.6508444  3
   1356   1354   1366   1372     1  0.0000000  0.6508444  3
   1356   1354   1366   1367     1  0.0000000  0.6508444  3
   1356   1354   1366   1368     1  0.0000000  0.6508444  3
   1357   1360   1369   1370     1  0.0000000  0.6508444  3
   1357   1360   1369   1371     1  0.0000000  0.6508444  3
   1358   1357   1350   1379     1  0.0000000  0.6508444  3
   1358   1357   1360   1369     1  0.0000000  0.6508444  3
   1358   1357   1360   1361     1  0.0000000  0.6508444  3
   1358   1357   1360   1362     1  0.0000000  0.6508444  3
   1359   1357   1350   1379     1  0.0000000  0.6508444  3
   1359   1357   1360   1369     1  0.0000000  0.6508444  3
   1359   1357   1360   1361     1  0.0000000  0.6508444  3
   1359   1357   1360   1362     1  0.0000000  0.6508444  3
   1360   1357   1350   1379     1  0.0000000  0.6508444  3
   1361   1360   1369   1378     1  0.0000000  1.0460000  1
   1361   1360   1369   1378     1  0.0000000  0.0000000  3
   1361   1360   1369   1370     1  0.0000000  0.6508444  3
   1361   1360   1369   1371     1  0.0000000  0.6508444  3
   1362   1360   1369   1378     1  0.0000000  1.0460000  1
   1362   1360   1369   1378     1  0.0000000  0.0000000  3
   1362   1360   1369   1370     1  0.0000000  0.6508444  3
   1362   1360   1369   1371     1  0.0000000  0.6508444  3
   1363   1351   1350   1379     1  0.0000000  0.6508444  3
   1364   1363   1375   2818     1  0.0000000  1.0460000  1
   1364   1363   1375   2818     1  0.0000000  0.0000000  3
   1364   1363   1375   1376     1  0.0000000  0.6508444  3
   1364   1363   1375   1377     1  0.0000000  0.6508444  3
   1365   1363   1375   2818     1  0.0000000  1.0460000  1
   1365   1363   1375   2818     1  0.0000000  0.0000000  3
   1365   1363   1375   1376     1  0.0000000  0.6508444  3
   1365   1363   1375   1377     1  0.0000000  0.6508444  3
   1366   1354   1350   1379     1  0.0000000  0.6508444  3
   1367   1366   1372   2788     1  0.0000000  1.0460000  1
   1367   1366   1372   2788     1  0.0000000  0.0000000  3
   1367   1366   1372   1373     1  0.0000000  0.6508444  3
   1367   1366   1372   1374     1  0.0000000  0.6508444  3
   1368   1366   1372   2788     1  0.0000000  1.0460000  1
   1368   1366   1372   2788     1  0.0000000  0.0000000  3
   1368   1366   1372   1373     1  0.0000000  0.6508444  3
   1368   1366   1372   1374     1  0.0000000  0.6508444  3
   1372   2788   2779   2780     1  0.0000000  1.6038667  3
   1372   2788   2779   2781     1  0.0000000  1.6038667  3
   1373   1372   2788   2779     1  0.0000000  1.6038667  3
   1374   1372   2788   2779     1  0.0000000  1.6038667  3
   1375   2818   2809   2810     1  0.0000000  1.6038667  3
   1375   2818   2809   2811     1  0.0000000  1.6038667  3
   1376   1375   2818   2809     1  0.0000000  1.6038667  3
   1377   1375   2818   2809     1  0.0000000  1.6038667  3
   1380   1381   1393   1394     1  0.0000000  0.6508444  3
   1380   1381   1393   1395     1  0.0000000  0.6508444  3
   1380   1384   1396   1397     1  0.0000000  0.6508444  3
   1380   1384   1396   1398     1  0.0000000  0.6508444  3
   1380   1387   1390   1391     1  0.0000000  0.6508444  3
   1380   1387   1390   1392     1  0.0000000  0.6508444  3
   1381   1380   1384   1385     1  0.0000000  0.6508444  3
   1381   1380   1384   1386     1  0.0000000  0.6508444  3
   1381   1380   1387   1388     1  0.0000000  0.6508444  3
   1381   1380   1387   1389     1  0.0000000  0.6508444  3
   1381   1393   1405   1406     1  0.0000000  0.6508444  3
   1381   1393   1405   1407     1  0.0000000  0.6508444  3
   1382   1381   1380   1384     1  0.0000000  0.6508444  3
   1382   1381   1380   1387     1  0.0000000  0.6508444  3
   1382   1381   1380   1409     1  0.0000000  0.6508444  3
   1382   1381   1393   1405     1  0.0000000  0.6508444  3
   1382   1381   1393   1394     1  0.0000000  0.6508444  3
   1382   1381   1393   1395     1  0.0000000  0.6508444  3
   1383   1381   1380   1384     1  0.0000000  0.6508444  3
   1383   1381   1380   1387     1  0.0000000  0.6508444  3
   1383   1381   1380   1409     1  0.0000000  0.6508444  3
   1383   1381   1393   1405     1  0.0000000  0.6508444  3
   1383   1381   1393   1394     1  0.0000000  0.6508444  3
   1383   1381   1393   1395     1  0.0000000  0.6508444  3
   1384   1380   1387   1388     1  0.0000000  0.6508444  3
   1384   1380   1387   1389     1  0.0000000  0.6508444  3
   1384   1396   1402   1403     1  0.0000000  0.6508444  3
   1384   1396   1402   1404     1  0.0000000  0.6508444  3
   1385   1384   1380   1387     1  0.0000000  0.6508444  3
   1385   1384   1380   1409     1  0.0000000  0.6508444  3
   1385   1384   1396   1402     1  0.0000000  0.6508444  3
   1385   1384   1396   1397     1  0.0000000  0.6508444  3
   1385   1384   1396   1398     1  0.0000000  0.6508444  3
   1386   1384   1380   1387     1  0.0000000  0.6508444  3
   1386   1384   1380   1409     1  0.0000000  0.6508444  3
   1386   1384   1396   1402     1  0.0000000  0.6508444  3
   1386   1384   1396   1397     1  0.0000000  0.6508444  3
   1386   1384   1396   1398     1  0.0000000  0.6508444  3
   1387   1390   1399   1400     1  0.0000000  0.6508444  3
   1387   1390   1399   1401     1  0.0000000  0.6508444  3
   1388   1387   1380   1409     1  0.0000000  0.6508444  3
   1388   1387   1390   1399     1  0.0000000  0.6508444  3
   1388   1387   1390   1391     1  0.0000000  0.6508444  3
   1388   1387   1390   1392     1  0.0000000  0.6508444  3
   1389   1387   1380   1409     1  0.0000000  0.6508444  3
   1389   1387   1390   1399     1  0.0000000  0.6508444  3
   1389   1387   1390   1391     1  0.0000000  0.6508444  3
   1389   1387   1390   1392     1  0.0000000  0.6508444  3
   1390   1387   1380   1409     1  0.0000000  0.6508444  3
   1391   1390   1399   1408     1  0.0000000  1.0460000  1
   1391   1390   1399   1408     1  0.0000000  0.0000000  3
   1391   1390   1399   1400     1  0.0000000  0.6508444  3
   1391   1390   1399   1401     1  0.0000000  0.6508444  3
   1392   1390   1399   1408     1  0.0000000  1.0460000  1
   1392   1390   1399   1408     1  0.0000000  0.0000000  3
   1392   1390   1399   1400     1  0.0000000  0.6508444  3
   1392   1390   1399   1401     1  0.0000000  0.6508444  3
   1393   1381   1380   1409     1  0.0000000  0.6508444  3
   1394   1393   1405   2878     1  0.0000000  1.0460000  1
   1394   1393   1405   2878     1  0.0000000  0.0000000  3
   1394   1393   1405   1406     1  0.0000000  0.6508444  3
   1394   1393   1405   1407     1  0.0000000  0.6508444  3
   1395   1393   1405   2878     1  0.0000000  1.0460000  1
   1395   1393   1405   2878     1  0.0000000  0.0000000  3
   1395   1393   1405   1406     1  0.0000000  0.6508444  3
   1395   1393   1405   1407     1  0.0000000  0.6508444  3
   1396   1384   1380   1409     1  0.0000000  0.6508444  3
   1397   1396   1402   2848     1  0.0000000  1.0460000  1
   1397   1396   1402   2848     1  0.0000000  0.0000000  3
   1397   1396   1402   1403     1  0.0000000  0.6508444  3
   1397   1396   1402   1404     1  0.0000000  0.6508444  3
   1398   1396   1402   2848     1  0.0000000  1.0460000  1
   1398   1396   1402   2848     1  0.0000000  0.0000000  3
   1398   1396   1402   1403     1  0.0000000  0.6508444  3
   1398   1396   1402   1404     1  0.0000000  0.6508444  3
   1402   2848   2839   2840     1  0.0000000  1.6038667  3
   1402   2848   2839   2841     1  0.0000000  1.6038667  3
   1403   1402   2848   2839     1  0.0000000  1.6038667  3
   1404   1402   2848   2839     1  0.0000000  1.6038667  3
   1405   2878   2869   2870     1  0.0000000  1.6038667  3
   1405   2878   2869   2871     1  0.0000000  1.6038667  3
   1406   1405   2878   2869     1  0.0000000  1.6038667  3
   1407   1405   2878   2869     1  0.0000000  1.6038667  3
   1410   1411   1423   1424     1  0.0000000  0.6508444  3
   1410   1411   1423   1425     1  0.0000000  0.6508444  3
   1410   1414   1426   1427     1  0.0000000  0.6508444  3
   1410   1414   1426   1428     1  0.0000000  0.6508444  3
   1410   1417   1420   1421     1  0.0000000  0.6508444  3
   1410   1417   1420   1422     1  0.0000000  0.6508444  3
   1411   1410   1414   1415     1  0.0000000  0.6508444  3
   1411   1410   1414   1416     1  0.0000000  0.6508444  3
   1411   1410   1417   1418     1  0.0000000  0.6508444  3
   1411   1410   1417   1419     1  0.0000000  0.6508444  3
   1411   1423   1435   1436     1  0.0000000  0.6508444  3
   1411   1423   1435   1437     1  0.0000000  0.6508444  3
   1412   1411   1410   1414     1  0.0000000  0.6508444  3
   1412   1411   1410   1417     1  0.0000000  0.6508444  3
   1412   1411   1410   1439     1  0.0000000  0.6508444  3
   1412   1411   1423   1435     1  0.0000000  0.6508444  3
   1412   1411   1423   1424     1  0.0000000  0.6508444  3
   1412   1411   1423   1425     1  0.0000000  0.6508444  3
   1413   1411   1410   1414     1  0.0000000  0.6508444  3
   1413   1411   1410   1417     1  0.0000000  0.6508444  3
   1413   1411   1410   1439     1  0.0000000  0.6508444  3
   1413   1411   1423   1435     1  0.0000000  0.6508444  3
   1413   1411   1423   1424     1  0.0000000  0.6508444  3
   1413   1411   1423   1425     1  0.0000000  0.6508444  3
   1414   1410   1417   1418     1  0.0000000  0.6508444  3
   1414   1410   1417   1419     1  0.0000000  0.6508444  3
   1414   1426   1432   1433     1  0.0000000  0.6508444  3
   1414   1426   1432   1434     1  0.0000000  0.6508444  3
   1415   1414   1410   1417     1  0.0000000  0.6508444  3
   1415   1414   1410   1439     1  0.0000000  0.6508444  3
   1415   1414   1426   1432     1  0.0000000  0.6508444  3
   1415   1414   1426   1427     1  0.0000000  0.6508444  3
   1415   1414   1426   1428     1  0.0000000  0.6508444  3
   1416   1414   1410   1417     1  0.0000000  0.6508444  3
   1416   1414   1410   1439     1  0.0000000  0.6508444  3
   1416   1414   1426   1432     1  0.0000000  0.6508444  3
   1416   1414   1426   1427     1  0.0000000  0.6508444  3
   1416   1414   1426   1428     1  0.0000000  0.6508444  3
   1417   1420   1429   1430     1  0.0000000  0.6508444  3
   1417   1420   1429   1431     1  0.0000000  0.6508444  3
   1418   1417   1410   1439     1  0.0000000  0.6508444  3
   1418   1417   1420   1429     1  0.0000000  0.6508444  3
   1418   1417   1420   1421     1  0.0000000  0.6508444  3
   1418   1417   1420   1422     1  0.0000000  0.6508444  3
   1419   1417   1410   1439     1  0.0000000  0.6508444  3
   1419   1417   1420   1429     1  0.0000000  0.6508444  3
   1419   1417   1420   1421     1  0.0000000  0.6508444  3
   1419   1417   1420   1422     1  0.0000000  0.6508444  3
   1420   1417   1410   1439     1  0.0000000  0.6508444  3
   1421   1420   1429   1438     1  0.0000000  1.0460000  1
   1421   1420   1429   1438     1  0.0000000  0.0000000  3
   1421   1420   1429   1430     1  0.0000000  0.6508444  3
   1421   1420   1429   1431     1  0.0000000  0.6508444  3
   1422   1420   1429   1438     1  0.0000000  1.0460000  1
   1422   1420   1429   1438     1  0.0000000  0.0000000  3
   1422   1420   1429   1430     1  0.0000000  0.6508444  3
   1422   1420   1429   1431     1  0.0000000  0.6508444  3
   1423   1411   1410   1439     1  0.0000000  0.6508444  3
   1424   1423   1435   2938     1  0.0000000  1.0460000  1
   1424   1423   1435   2938     1  0.0000000  0.0000000  3
   1424   1423   1435   1436     1  0.0000000  0.6508444  3
   1424   1423   1435   1437     1  0.0000000  0.6508444  3
   1425   1423   1435   2938     1  0.0000000  1.0460000  1
   1425   1423   1435   2938     1  0.0000000  0.0000000  3
   1425   1423   1435   1436     1  0.0000000  0.6508444  3
   1425   1423   1435   1437     1  0.0000000  0.6508444  3
   1426   1414   1410   1439     1  0.0000000  0.6508444  3
   1427   1426   1432   2908     1  0.0000000  1.0460000  1
   1427   1426   1432   2908     1  0.0000000  0.0000000  3
   1427   1426   1432   1433     1  0.0000000  0.6508444  3
   1427   1426   1432   1434     1  0.0000000  0.6508444  3
   1428   1426   1432   2908     1  0.0000000  1.0460000  1
   1428   1426   1432   2908     1  0.0000000  0.0000000  3
   1428   1426   1432   1433     1  0.0000000  0.6508444  3
   1428   1426   1432   1434     1  0.0000000  0.6508444  3
   1432   2908   2899   2900     1  0.0000000  1.6038667  3
   1432   2908   2899   2901     1  0.0000000  1.6038667  3
   1433   1432   2908   2899     1  0.0000000  1.6038667  3
   1434   1432   2908   2899     1  0.0000000  1.6038667  3
   1435   2938   2929   2930     1  0.0000000  1.6038667  3
   1435   2938   2929   2931     1  0.0000000  1.6038667  3
   1436   1435   2938   2929     1  0.0000000  1.6038667  3
   1437   1435   2938   2929     1  0.0000000  1.6038667  3
   1440   1441   1453   1454     1  0.0000000  0.6508444  3
   1440   1441   1453   1455     1  0.0000000  0.6508444  3
   1440   1444   1456   1457     1  0.0000000  0.6508444  3
   1440   1444   1456   1458     1  0.0000000  0.6508444  3
   1440   1447   1450   1451     1  0.0000000  0.6508444  3
   1440   1447   1450   1452     1  0.0000000  0.6508444  3
   1441   1440   1444   1445     1  0.0000000  0.6508444  3
   1441   1440   1444   1446     1  0.0000000  0.6508444  3
   1441   1440   1447   1448     1  0.0000000  0.6508444  3
   1441   1440   1447   1449     1  0.0000000  0.6508444  3
   1441   1453   1465   1466     1  0.0000000  0.6508444  3
   1441   1453   1465   1467     1  0.0000000  0.6508444  3
   1442   1441   1440   1444     1  0.0000000  0.6508444  3
   1442   1441   1440   1447     1  0.0000000  0.6508444  3
   1442   1441   1440   1469     1  0.0000000  0.6508444  3
   1442   1441   1453   1465     1  0.0000000  0.6508444  3
   1442   1441   1453   1454     1  0.0000000  0.6508444  3
   1442   1441   1453   1455     1  0.0000000  0.6508444  3
   1443   1441   1440   1444     1  0.0000000  0.6508444  3
   1443   1441   1440   1447     1  0.0000000  0.6508444  3
   1443   1441   1440   1469     1  0.0000000  0.6508444  3
   1443   1441   1453   1465     1  0.0000000  0.6508444  3
   1443   1441   1453   1454     1  0.0000000  0.6508444  3
   1443   1441   1453   1455     1  0.0000000  0.6508444  3
   1444   1440   1447   1448     1  0.0000000  0.6508444  3
   1444   1440   1447   1449     1  0.0000000  0.6508444  3
   1444   1456   1462   1463     1  0.0000000  0.6508444  3
   1444   1456   1462   1464     1  0.0000000  0.6508444  3
   1445   1444   1440   1447     1  0.0000000  0.6508444  3
   1445   1444   1440   1469     1  0.0000000  0.6508444  3
   1445   1444   1456   1462     1  0.0000000  0.6508444  3
   1445   1444   1456   1457     1  0.0000000  0.6508444  3
   1445   1444   1456   1458     1  0.0000000  0.6508444  3
   1446   1444   1440   1447     1  0.0000000  0.6508444  3
   1446   1444   1440   1469     1  0.0000000  0.6508444  3
   1446   1444   1456   1462     1  0.0000000  0.6508444  3
   1446   1444   1456   1457     1  0.0000000  0.6508444  3
   1446   1444   1456   1458     1  0.0000000  0.6508444  3
   1447   1450   1459   1460     1  0.0000000  0.6508444  3
   1447   1450   1459   1461     1  0.0000000  0.6508444  3
   1448   1447   1440   1469     1  0.0000000  0.6508444  3
   1448   1447   1450   1459     1  0.0000000  0.6508444  3
   1448   1447   1450   1451     1  0.0000000  0.6508444  3
   1448   1447   1450   1452     1  0.0000000  0.6508444  3
   1449   1447   1440   1469     1  0.0000000  0.6508444  3
   1449   1447   1450   1459     1  0.0000000  0.6508444  3
   1449   1447   1450   1451     1  0.0000000  0.6508444  3
   1449   1447   1450   1452     1  0.0000000  0.6508444  3
   1450   1447   1440   1469     1  0.0000000  0.6508444  3
   1451   1450   1459   1468     1  0.0000000  1.0460000  1
   1451   1450   1459   1468     1  0.0000000  0.0000000  3
   1451   1450   1459   1460     1  0.0000000  0.6508444  3
   1451   1450   1459   1461     1  0.0000000  0.6508444  3
   1452   1450   1459   1468     1  0.0000000  1.0460000  1
   1452   1450   1459   1468     1  0.0000000  0.0000000  3
   1452   1450   1459   1460     1  0.0000000  0.6508444  3
   1452   1450   1459   1461     1  0.0000000  0.6508444  3
   1453   1441   1440   1469     1  0.0000000  0.6508444  3
   1454   1453   1465   2998     1  0.0000000  1.0460000  1
   1454   1453   1465   2998     1  0.0000000  0.0000000  3
   1454   1453   1465   1466     1  0.0000000  0.6508444  3
   1454   1453   1465   1467     1  0.0000000  0.6508444  3
   1455   1453   1465   2998     1  0.0000000  1.0460000  1
   1455   1453   1465   2998     1  0.0000000  0.0000000  3
   1455   1453   1465   1466     1  0.0000000  0.6508444  3
   1455   1453   1465   1467     1  0.0000000  0.6508444  3
   1456   1444   1440   1469     1  0.0000000  0.6508444  3
   1457   1456   1462   2968     1  0.0000000  1.0460000  1
   1457   1456   1462   2968     1  0.0000000  0.0000000  3
   1457   1456   1462   1463     1  0.0000000  0.6508444  3
   1457   1456   1462   1464     1  0.0000000  0.6508444  3
   1458   1456   1462   2968     1  0.0000000  1.0460000  1
   1458   1456   1462   2968     1  0.0000000  0.0000000  3
   1458   1456   1462   1463     1  0.0000000  0.6508444  3
   1458   1456   1462   1464     1  0.0000000  0.6508444  3
   1462   2968   2959   2960     1  0.0000000  1.6038667  3
   1462   2968   2959   2961     1  0.0000000  1.6038667  3
   1463   1462   2968   2959     1  0.0000000  1.6038667  3
   1464   1462   2968   2959     1  0.0000000  1.6038667  3
   1465   2998   2989   2990     1  0.0000000  1.6038667  3
   1465   2998   2989   2991     1  0.0000000  1.6038667  3
   1466   1465   2998   2989     1  0.0000000  1.6038667  3
   1467   1465   2998   2989     1  0.0000000  1.6038667  3
   1470   1471   1483   1484     1  0.0000000  0.6508444  3
   1470   1471   1483   1485     1  0.0000000  0.6508444  3
   1470   1474   1486   1487     1  0.0000000  0.6508444  3
   1470   1474   1486   1488     1  0.0000000  0.6508444  3
   1470   1477   1480   1481     1  0.0000000  0.6508444  3
   1470   1477   1480   1482     1  0.0000000  0.6508444  3
   1471   1470   1474   1475     1  0.0000000  0.6508444  3
   1471   1470   1474   1476     1  0.0000000  0.6508444  3
   1471   1470   1477   1478     1  0.0000000  0.6508444  3
   1471   1470   1477   1479     1  0.0000000  0.6508444  3
   1471   1483   1495   1496     1  0.0000000  0.6508444  3
   1471   1483   1495   1497     1  0.0000000  0.6508444  3
   1472   1471   1470   1474     1  0.0000000  0.6508444  3
   1472   1471   1470   1477     1  0.0000000  0.6508444  3
   1472   1471   1470   1499     1  0.0000000  0.6508444  3
   1472   1471   1483   1495     1  0.0000000  0.6508444  3
   1472   1471   1483   1484     1  0.0000000  0.6508444  3
   1472   1471   1483   1485     1  0.0000000  0.6508444  3
   1473   1471   1470   1474     1  0.0000000  0.6508444  3
   1473   1471   1470   1477     1  0.0000000  0.6508444  3
   1473   1471   1470   1499     1  0.0000000  0.6508444  3
   1473   1471   1483   1495     1  0.0000000  0.6508444  3
   1473   1471   1483   1484     1  0.0000000  0.6508444  3
   1473   1471   1483   1485     1  0.0000000  0.6508444  3
   1474   1470   1477   1478     1  0.0000000  0.6508444  3
   1474   1470   1477   1479     1  0.0000000  0.6508444  3
   1474   1486   1492   1493     1  0.0000000  0.6508444  3
   1474   1486   1492   1494     1  0.0000000  0.6508444  3
   1475   1474   1470   1477     1  0.0000000  0.6508444  3
   1475   1474   1470   1499     1  0.0000000  0.6508444  3
   1475   1474   1486   1492     1  0.0000000  0.6508444  3
   1475   1474   1486   1487     1  0.0000000  0.6508444  3
   1475   1474   1486   1488     1  0.0000000  0.6508444  3
   1476   1474   1470   1477     1  0.0000000  0.6508444  3
   1476   1474   1470   1499     1  0.0000000  0.6508444  3
   1476   1474   1486   1492     1  0.0000000  0.6508444  3
   1476   1474   1486   1487     1  0.0000000  0.6508444  3
   1476   1474   1486   1488     1  0.0000000  0.6508444  3
   1477   1480   1489   1490     1  0.0000000  0.6508444  3
   1477   1480   1489   1491     1  0.0000000  0.6508444  3
   1478   1477   1470   1499     1  0.0000000  0.6508444  3
   1478   1477   1480   1489     1  0.0000000  0.6508444  3
   1478   1477   1480   1481     1  0.0000000  0.6508444  3
   1478   1477   1480   1482     1  0.0000000  0.6508444  3
   1479   1477   1470   1499     1  0.0000000  0.6508444  3
   1479   1477   1480   1489     1  0.0000000  0.6508444  3
   1479   1477   1480   1481     1  0.0000000  0.6508444  3
   1479   1477   1480   1482     1  0.0000000  0.6508444  3
   1480   1477   1470   1499     1  0.0000000  0.6508444  3
   1481   1480   1489   1498     1  0.0000000  1.0460000  1
   1481   1480   1489   1498     1  0.0000000  0.0000000  3
   1481   1480   1489   1490     1  0.0000000  0.6508444  3
   1481   1480   1489   1491     1  0.0000000  0.6508444  3
   1482   1480   1489   1498     1  0.0000000  1.0460000  1
   1482   1480   1489   1498     1  0.0000000  0.0000000  3
   1482   1480   1489   1490     1  0.0000000  0.6508444  3
   1482   1480   1489   1491     1  0.0000000  0.6508444  3
   1483   1471   1470   1499     1  0.0000000  0.6508444  3
   1484   1483   1495   3058     1  0.0000000  1.0460000  1
   1484   1483   1495   3058     1  0.0000000  0.0000000  3
   1484   1483   1495   1496     1  0.0000000  0.6508444  3
   1484   1483   1495   1497     1  0.0000000  0.6508444  3
   1485   1483   1495   3058     1  0.0000000  1.0460000  1
   1485   1483   1495   3058     1  0.0000000  0.0000000  3
   1485   1483   1495   1496     1  0.0000000  0.6508444  3
   1485   1483   1495   1497     1  0.0000000  0.6508444  3
   1486   1474   1470   1499     1  0.0000000  0.6508444  3
   1487   1486   1492   3028     1  0.0000000  1.0460000  1
   1487   1486   1492   3028     1  0.0000000  0.0000000  3
   1487   1486   1492   1493     1  0.0000000  0.6508444  3
   1487   1486   1492   1494     1  0.0000000  0.6508444  3
   1488   1486   1492   3028     1  0.0000000  1.0460000  1
   1488   1486   1492   3028     1  0.0000000  0.0000000  3
   1488   1486   1492   1493     1  0.0000000  0.6508444  3
   1488   1486   1492   1494     1  0.0000000  0.6508444  3
   1492   3028   3019   3020     1  0.0000000  1.6038667  3
   1492   3028   3019   3021     1  0.0000000  1.6038667  3
   1493   1492   3028   3019     1  0.0000000  1.6038667  3
   1494   1492   3028   3019     1  0.0000000  1.6038667  3
   1495   3058   3049   3050     1  0.0000000  1.6038667  3
   1495   3058   3049   3051     1  0.0000000  1.6038667  3
   1496   1495   3058   3049     1  0.0000000  1.6038667  3
   1497   1495   3058   3049     1  0.0000000  1.6038667  3
   1500   1501   1513   1514     1  0.0000000  0.6508444  3
   1500   1501   1513   1515     1  0.0000000  0.6508444  3
   1500   1504   1516   1517     1  0.0000000  0.6508444  3
   1500   1504   1516   1518     1  0.0000000  0.6508444  3
   1500   1507   1510   1511     1  0.0000000  0.6508444  3
   1500   1507   1510   1512     1  0.0000000  0.6508444  3
   1501   1500   1504   1505     1  0.0000000  0.6508444  3
   1501   1500   1504   1506     1  0.0000000  0.6508444  3
   1501   1500   1507   1508     1  0.0000000  0.6508444  3
   1501   1500   1507   1509     1  0.0000000  0.6508444  3
   1501   1513   1525   1526     1  0.0000000  0.6508444  3
   1501   1513   1525   1527     1  0.0000000  0.6508444  3
   1502   1501   1500   1504     1  0.0000000  0.6508444  3
   1502   1501   1500   1507     1  0.0000000  0.6508444  3
   1502   1501   1500   1529     1  0.0000000  0.6508444  3
   1502   1501   1513   1525     1  0.0000000  0.6508444  3
   1502   1501   1513   1514     1  0.0000000  0.6508444  3
   1502   1501   1513   1515     1  0.0000000  0.6508444  3
   1503   1501   1500   1504     1  0.0000000  0.6508444  3
   1503   1501   1500   1507     1  0.0000000  0.6508444  3
   1503   1501   1500   1529     1  0.0000000  0.6508444  3
   1503   1501   1513   1525     1  0.0000000  0.6508444  3
   1503   1501   1513   1514     1  0.0000000  0.6508444  3
   1503   1501   1513   1515     1  0.0000000  0.6508444  3
   1504   1500   1507   1508     1  0.0000000  0.6508444  3
   1504   1500   1507   1509     1  0.0000000  0.6508444  3
   1504   1516   1522   1523     1  0.0000000  0.6508444  3
   1504   1516   1522   1524     1  0.0000000  0.6508444  3
   1505   1504   1500   1507     1  0.0000000  0.6508444  3
   1505   1504   1500   1529     1  0.0000000  0.6508444  3
   1505   1504   1516   1522     1  0.0000000  0.6508444  3
   1505   1504   1516   1517     1  0.0000000  0.6508444  3
   1505   1504   1516   1518     1  0.0000000  0.6508444  3
   1506   1504   1500   1507     1  0.0000000  0.6508444  3
   1506   1504   1500   1529     1  0.0000000  0.6508444  3
   1506   1504   1516   1522     1  0.0000000  0.6508444  3
   1506   1504   1516   1517     1  0.0000000  0.6508444  3
   1506   1504   1516   1518     1  0.0000000  0.6508444  3
   1507   1510   1519   1520     1  0.0000000  0.6508444  3
   1507   1510   1519   1521     1  0.0000000  0.6508444  3
   1508   1507   1500   1529     1  0.0000000  0.6508444  3
   1508   1507   1510   1519     1  0.0000000  0.6508444  3
   1508   1507   1510   1511     1  0.0000000  0.6508444  3
   1508   1507   1510   1512     1  0.0000000  0.6508444  3
   1509   1507   1500   1529     1  0.0000000  0.6508444  3
   1509   1507   1510   1519     1  0.0000000  0.6508444  3
   1509   1507   1510   1511     1  0.0000000  0.6508444  3
   1509   1507   1510   1512     1  0.0000000  0.6508444  3
   1510   1507   1500   1529     1  0.0000000  0.6508444  3
   1511   1510   1519   1528     1  0.0000000  1.0460000  1
   1511   1510   1519   1528     1  0.0000000  0.0000000  3
   1511   1510   1519   1520     1  0.0000000  0.6508444  3
   1511   1510   1519   1521     1  0.0000000  0.6508444  3
   1512   1510   1519   1528     1  0.0000000  1.0460000  1
   1512   1510   1519   1528     1  0.0000000  0.0000000  3
   1512   1510   1519   1520     1  0.0000000  0.6508444  3
   1512   1510   1519   1521     1  0.0000000  0.6508444  3
   1513   1501   1500   1529     1  0.0000000  0.6508444  3
   1514   1513   1525   3118     1  0.0000000  1.0460000  1
   1514   1513   1525   3118     1  0.0000000  0.0000000  3
   1514   1513   1525   1526     1  0.0000000  0.6508444  3
   1514   1513   1525   1527     1  0.0000000  0.6508444  3
   1515   1513   1525   3118     1  0.0000000  1.0460000  1
   1515   1513   1525   3118     1  0.0000000  0.0000000  3
   1515   1513   1525   1526     1  0.0000000  0.6508444  3
   1515   1513   1525   1527     1  0.0000000  0.6508444  3
   1516   1504   1500   1529     1  0.0000000  0.6508444  3
   1517   1516   1522   3088     1  0.0000000  1.0460000  1
   1517   1516   1522   3088     1  0.0000000  0.0000000  3
   1517   1516   1522   1523     1  0.0000000  0.6508444  3
   1517   1516   1522   1524     1  0.0000000  0.6508444  3
   1518   1516   1522   3088     1  0.0000000  1.0460000  1
   1518   1516   1522   3088     1  0.0000000  0.0000000  3
   1518   1516   1522   1523     1  0.0000000  0.6508444  3
   1518   1516   1522   1524     1  0.0000000  0.6508444  3
   1522   3088   3079   3080     1  0.0000000  1.6038667  3
   1522   3088   3079   3081     1  0.0000000  1.6038667  3
   1523   1522   3088   3079     1  0.0000000  1.6038667  3
   1524   1522   3088   3079     1  0.0000000  1.6038667  3
   1525   3118   3109   3110     1  0.0000000  1.6038667  3
   1525   3118   3109   3111     1  0.0000000  1.6038667  3
   1526   1525   3118   3109     1  0.0000000  1.6038667  3
   1527   1525   3118   3109     1  0.0000000  1.6038667  3
   1530   1531   1543   1544     1  0.0000000  0.6508444  3
   1530   1531   1543   1545     1  0.0000000  0.6508444  3
   1530   1534   1546   1547     1  0.0000000  0.6508444  3
   1530   1534   1546   1548     1  0.0000000  0.6508444  3
   1530   1537   1540   1541     1  0.0000000  0.6508444  3
   1530   1537   1540   1542     1  0.0000000  0.6508444  3
   1531   1530   1534   1535     1  0.0000000  0.6508444  3
   1531   1530   1534   1536     1  0.0000000  0.6508444  3
   1531   1530   1537   1538     1  0.0000000  0.6508444  3
   1531   1530   1537   1539     1  0.0000000  0.6508444  3
   1531   1543   1555   1556     1  0.0000000  0.6508444  3
   1531   1543   1555   1557     1  0.0000000  0.6508444  3
   1532   1531   1530   1534     1  0.0000000  0.6508444  3
   1532   1531   1530   1537     1  0.0000000  0.6508444  3
   1532   1531   1530   1559     1  0.0000000  0.6508444  3
   1532   1531   1543   1555     1  0.0000000  0.6508444  3
   1532   1531   1543   1544     1  0.0000000  0.6508444  3
   1532   1531   1543   1545     1  0.0000000  0.6508444  3
   1533   1531   1530   1534     1  0.0000000  0.6508444  3
   1533   1531   1530   1537     1  0.0000000  0.6508444  3
   1533   1531   1530   1559     1  0.0000000  0.6508444  3
   1533   1531   1543   1555     1  0.0000000  0.6508444  3
   1533   1531   1543   1544     1  0.0000000  0.6508444  3
   1533   1531   1543   1545     1  0.0000000  0.6508444  3
   1534   1530   1537   1538     1  0.0000000  0.6508444  3
   1534   1530   1537   1539     1  0.0000000  0.6508444  3
   1534   1546   1552   1553     1  0.0000000  0.6508444  3
   1534   1546   1552   1554     1  0.0000000  0.6508444  3
   1535   1534   1530   1537     1  0.0000000  0.6508444  3
   1535   1534   1530   1559     1  0.0000000  0.6508444  3
   1535   1534   1546   1552     1  0.0000000  0.6508444  3
   1535   1534   1546   1547     1  0.0000000  0.6508444  3
   1535   1534   1546   1548     1  0.0000000  0.6508444  3
   1536   1534   1530   1537     1  0.0000000  0.6508444  3
   1536   1534   1530   1559     1  0.0000000  0.6508444  3
   1536   1534   1546   1552     1  0.0000000  0.6508444  3
   1536   1534   1546   1547     1  0.0000000  0.6508444  3
   1536   1534   1546   1548     1  0.0000000  0.6508444  3
   1537   1540   1549   1550     1  0.0000000  0.6508444  3
   1537   1540   1549   1551     1  0.0000000  0.6508444  3
   1538   1537   1530   1559     1  0.0000000  0.6508444  3
   1538   1537   1540   1549     1  0.0000000  0.6508444  3
   1538   1537   1540   1541     1  0.0000000  0.6508444  3
   1538   1537   1540   1542     1  0.0000000  0.6508444  3
   1539   1537   1530   1559     1  0.0000000  0.6508444  3
   1539   1537   1540   1549     1  0.0000000  0.6508444  3
   1539   1537   1540   1541     1  0.0000000  0.6508444  3
   1539   1537   1540   1542     1  0.0000000  0.6508444  3
   1540   1537   1530   1559     1  0.0000000  0.6508444  3
   1541   1540   1549   1558     1  0.0000000  1.0460000  1
   1541   1540   1549   1558     1  0.0000000  0.0000000  3
   1541   1540   1549   1550     1  0.0000000  0.6508444  3
   1541   1540   1549   1551     1  0.0000000  0.6508444  3
   1542   1540   1549   1558     1  0.0000000  1.0460000  1
   1542   1540   1549   1558     1  0.0000000  0.0000000  3
   1542   1540   1549   1550     1  0.0000000  0.6508444  3
   1542   1540   1549   1551     1  0.0000000  0.6508444  3
   1543   1531   1530   1559     1  0.0000000  0.6508444  3
   1544   1543   1555   3178     1  0.0000000  1.0460000  1
   1544   1543   1555   3178     1  0.0000000  0.0000000  3
   1544   1543   1555   1556     1  0.0000000  0.6508444  3
   1544   1543   1555   1557     1  0.0000000  0.6508444  3
   1545   1543   1555   3178     1  0.0000000  1.0460000  1
   1545   1543   1555   3178     1  0.0000000  0.0000000  3
   1545   1543   1555   1556     1  0.0000000  0.6508444  3
   1545   1543   1555   1557     1  0.0000000  0.6508444  3
   1546   1534   1530   1559     1  0.0000000  0.6508444  3
   1547   1546   1552   3148     1  0.0000000  1.0460000  1
   1547   1546   1552   3148     1  0.0000000  0.0000000  3
   1547   1546   1552   1553     1  0.0000000  0.6508444  3
   1547   1546   1552   1554     1  0.0000000  0.6508444  3
   1548   1546   1552   3148     1  0.0000000  1.0460000  1
   1548   1546   1552   3148     1  0.0000000  0.0000000  3
   1548   1546   1552   1553     1  0.0000000  0.6508444  3
   1548   1546   1552   1554     1  0.0000000  0.6508444  3
   1552   3148   3139   3140     1  0.0000000  1.6038667  3
   1552   3148   3139   3141     1  0.0000000  1.6038667  3
   1553   1552   3148   3139     1  0.0000000  1.6038667  3
   1554   1552   3148   3139     1  0.0000000  1.6038667  3
   1555   3178   3169   3170     1  0.0000000  1.6038667  3
   1555   3178   3169   3171     1  0.0000000  1.6038667  3
   1556   1555   3178   3169     1  0.0000000  1.6038667  3
   1557   1555   3178   3169     1  0.0000000  1.6038667  3
   1560   1561   1573   1574     1  0.0000000  0.6508444  3
   1560   1561   1573   1575     1  0.0000000  0.6508444  3
   1560   1564   1576   1577     1  0.0000000  0.6508444  3
   1560   1564   1576   1578     1  0.0000000  0.6508444  3
   1560   1567   1570   1571     1  0.0000000  0.6508444  3
   1560   1567   1570   1572     1  0.0000000  0.6508444  3
   1561   1560   1564   1565     1  0.0000000  0.6508444  3
   1561   1560   1564   1566     1  0.0000000  0.6508444  3
   1561   1560   1567   1568     1  0.0000000  0.6508444  3
   1561   1560   1567   1569     1  0.0000000  0.6508444  3
   1561   1573   1585   1586     1  0.0000000  0.6508444  3
   1561   1573   1585   1587     1  0.0000000  0.6508444  3
   1562   1561   1560   1564     1  0.0000000  0.6508444  3
   1562   1561   1560   1567     1  0.0000000  0.6508444  3
   1562   1561   1560   1589     1  0.0000000  0.6508444  3
   1562   1561   1573   1585     1  0.0000000  0.6508444  3
   1562   1561   1573   1574     1  0.0000000  0.6508444  3
   1562   1561   1573   1575     1  0.0000000  0.6508444  3
   1563   1561   1560   1564     1  0.0000000  0.6508444  3
   1563   1561   1560   1567     1  0.0000000  0.6508444  3
   1563   1561   1560   1589     1  0.0000000  0.6508444  3
   1563   1561   1573   1585     1  0.0000000  0.6508444  3
   1563   1561   1573   1574     1  0.0000000  0.6508444  3
   1563   1561   1573   1575     1  0.0000000  0.6508444  3
   1564   1560   1567   1568     1  0.0000000  0.6508444  3
   1564   1560   1567   1569     1  0.0000000  0.6508444  3
   1564   1576   1582   1583     1  0.0000000  0.6508444  3
   1564   1576   1582   1584     1  0.0000000  0.6508444  3
   1565   1564   1560   1567     1  0.0000000  0.6508444  3
   1565   1564   1560   1589     1  0.0000000  0.6508444  3
   1565   1564   1576   1582     1  0.0000000  0.6508444  3
   1565   1564   1576   1577     1  0.0000000  0.6508444  3
   1565   1564   1576   1578     1  0.0000000  0.6508444  3
   1566   1564   1560   1567     1  0.0000000  0.6508444  3
   1566   1564   1560   1589     1  0.0000000  0.6508444  3
   1566   1564   1576   1582     1  0.0000000  0.6508444  3
   1566   1564   1576   1577     1  0.0000000  0.6508444  3
   1566   1564   1576   1578     1  0.0000000  0.6508444  3
   1567   1570   1579   1580     1  0.0000000  0.6508444  3
   1567   1570   1579   1581     1  0.0000000  0.6508444  3
   1568   1567   1560   1589     1  0.0000000  0.6508444  3
   1568   1567   1570   1579     1  0.0000000  0.6508444  3
   1568   1567   1570   1571     1  0.0000000  0.6508444  3
   1568   1567   1570   1572     1  0.0000000  0.6508444  3
   1569   1567   1560   1589     1  0.0000000  0.6508444  3
   1569   1567   1570   1579     1  0.0000000  0.6508444  3
   1569   1567   1570   1571     1  0.0000000  0.6508444  3
   1569   1567   1570   1572     1  0.0000000  0.6508444  3
   1570   1567   1560   1589     1  0.0000000  0.6508444  3
   1571   1570   1579   1588     1  0.0000000  1.0460000  1
   1571   1570   1579   1588     1  0.0000000  0.0000000  3
   1571   1570   1579   1580     1  0.0000000  0.6508444  3
   1571   1570   1579   1581     1  0.0000000  0.6508444  3
   1572   1570   1579   1588     1  0.0000000  1.0460000  1
   1572   1570   1579   1588     1  0.0000000  0.0000000  3
   1572   1570   1579   1580     1  0.0000000  0.6508444  3
   1572   1570   1579   1581     1  0.0000000  0.6508444  3
   1573   1561   1560   1589     1  0.0000000  0.6508444  3
   1574   1573   1585   3238     1  0.0000000  1.0460000  1
   1574   1573   1585   3238     1  0.0000000  0.0000000  3
   1574   1573   1585   1586     1  0.0000000  0.6508444  3
   1574   1573   1585   1587     1  0.0000000  0.6508444  3
   1575   1573   1585   3238     1  0.0000000  1.0460000  1
   1575   1573   1585   3238     1  0.0000000  0.0000000  3
   1575   1573   1585   1586     1  0.0000000  0.6508444  3
   1575   1573   1585   1587     1  0.0000000  0.6508444  3
   1576   1564   1560   1589     1  0.0000000  0.6508444  3
   1577   1576   1582   3208     1  0.0000000  1.0460000  1
   1577   1576   1582   3208     1  0.0000000  0.0000000  3
   1577   1576   1582   1583     1  0.0000000  0.6508444  3
   1577   1576   1582   1584     1  0.0000000  0.6508444  3
   1578   1576   1582   3208     1  0.0000000  1.0460000  1
   1578   1576   1582   3208     1  0.0000000  0.0000000  3
   1578   1576   1582   1583     1  0.0000000  0.6508444  3
   1578   1576   1582   1584     1  0.0000000  0.6508444  3
   1582   3208   3199   3200     1  0.0000000  1.6038667  3
   1582   3208   3199   3201     1  0.0000000  1.6038667  3
   1583   1582   3208   3199     1  0.0000000  1.6038667  3
   1584   1582   3208   3199     1  0.0000000  1.6038667  3
   1585   3238   3229   3230     1  0.0000000  1.6038667  3
   1585   3238   3229   3231     1  0.0000000  1.6038667  3
   1586   1585   3238   3229     1  0.0000000  1.6038667  3
   1587   1585   3238   3229     1  0.0000000  1.6038667  3
   1590   1591   1603   1604     1  0.0000000  0.6508444  3
   1590   1591   1603   1605     1  0.0000000  0.6508444  3
   1590   1594   1606   1607     1  0.0000000  0.6508444  3
   1590   1594   1606   1608     1  0.0000000  0.6508444  3
   1590   1597   1600   1601     1  0.0000000  0.6508444  3
   1590   1597   1600   1602     1  0.0000000  0.6508444  3
   1591   1590   1594   1595     1  0.0000000  0.6508444  3
   1591   1590   1594   1596     1  0.0000000  0.6508444  3
   1591   1590   1597   1598     1  0.0000000  0.6508444  3
   1591   1590   1597   1599     1  0.0000000  0.6508444  3
   1591   1603   1615   1616     1  0.0000000  0.6508444  3
   1591   1603   1615   1617     1  0.0000000  0.6508444  3
   1592   1591   1590   1594     1  0.0000000  0.6508444  3
   1592   1591   1590   1597     1  0.0000000  0.6508444  3
   1592   1591   1590   1619     1  0.0000000  0.6508444  3
   1592   1591   1603   1615     1  0.0000000  0.6508444  3
   1592   1591   1603   1604     1  0.0000000  0.6508444  3
   1592   1591   1603   1605     1  0.0000000  0.6508444  3
   1593   1591   1590   1594     1  0.0000000  0.6508444  3
   1593   1591   1590   1597     1  0.0000000  0.6508444  3
   1593   1591   1590   1619     1  0.0000000  0.6508444  3
   1593   1591   1603   1615     1  0.0000000  0.6508444  3
   1593   1591   1603   1604     1  0.0000000  0.6508444  3
   1593   1591   1603   1605     1  0.0000000  0.6508444  3
   1594   1590   1597   1598     1  0.0000000  0.6508444  3
   1594   1590   1597   1599     1  0.0000000  0.6508444  3
   1594   1606   1612   1613     1  0.0000000  0.6508444  3
   1594   1606   1612   1614     1  0.0000000  0.6508444  3
   1595   1594   1590   1597     1  0.0000000  0.6508444  3
   1595   1594   1590   1619     1  0.0000000  0.6508444  3
   1595   1594   1606   1612     1  0.0000000  0.6508444  3
   1595   1594   1606   1607     1  0.0000000  0.6508444  3
   1595   1594   1606   1608     1  0.0000000  0.6508444  3
   1596   1594   1590   1597     1  0.0000000  0.6508444  3
   1596   1594   1590   1619     1  0.0000000  0.6508444  3
   1596   1594   1606   1612     1  0.0000000  0.6508444  3
   1596   1594   1606   1607     1  0.0000000  0.6508444  3
   1596   1594   1606   1608     1  0.0000000  0.6508444  3
   1597   1600   1609   1610     1  0.0000000  0.6508444  3
   1597   1600   1609   1611     1  0.0000000  0.6508444  3
   1598   1597   1590   1619     1  0.0000000  0.6508444  3
   1598   1597   1600   1609     1  0.0000000  0.6508444  3
   1598   1597   1600   1601     1  0.0000000  0.6508444  3
   1598   1597   1600   1602     1  0.0000000  0.6508444  3
   1599   1597   1590   1619     1  0.0000000  0.6508444  3
   1599   1597   1600   1609     1  0.0000000  0.6508444  3
   1599   1597   1600   1601     1  0.0000000  0.6508444  3
   1599   1597   1600   1602     1  0.0000000  0.6508444  3
   1600   1597   1590   1619     1  0.0000000  0.6508444  3
   1601   1600   1609   1618     1  0.0000000  1.0460000  1
   1601   1600   1609   1618     1  0.0000000  0.0000000  3
   1601   1600   1609   1610     1  0.0000000  0.6508444  3
   1601   1600   1609   1611     1  0.0000000  0.6508444  3
   1602   1600   1609   1618     1  0.0000000  1.0460000  1
   1602   1600   1609   1618     1  0.0000000  0.0000000  3
   1602   1600   1609   1610     1  0.0000000  0.6508444  3
   1602   1600   1609   1611     1  0.0000000  0.6508444  3
   1603   1591   1590   1619     1  0.0000000  0.6508444  3
   1604   1603   1615   3298     1  0.0000000  1.0460000  1
   1604   1603   1615   3298     1  0.0000000  0.0000000  3
   1604   1603   1615   1616     1  0.0000000  0.6508444  3
   1604   1603   1615   1617     1  0.0000000  0.6508444  3
   1605   1603   1615   3298     1  0.0000000  1.0460000  1
   1605   1603   1615   3298     1  0.0000000  0.0000000  3
   1605   1603   1615   1616     1  0.0000000  0.6508444  3
   1605   1603   1615   1617     1  0.0000000  0.6508444  3
   1606   1594   1590   1619     1  0.0000000  0.6508444  3
   1607   1606   1612   3268     1  0.0000000  1.0460000  1
   1607   1606   1612   3268     1  0.0000000  0.0000000  3
   1607   1606   1612   1613     1  0.0000000  0.6508444  3
   1607   1606   1612   1614     1  0.0000000  0.6508444  3
   1608   1606   1612   3268     1  0.0000000  1.0460000  1
   1608   1606   1612   3268     1  0.0000000  0.0000000  3
   1608   1606   1612   1613     1  0.0000000  0.6508444  3
   1608   1606   1612   1614     1  0.0000000  0.6508444  3
   1612   3268   3259   3260     1  0.0000000  1.6038667  3
   1612   3268   3259   3261     1  0.0000000  1.6038667  3
   1613   1612   3268   3259     1  0.0000000  1.6038667  3
   1614   1612   3268   3259     1  0.0000000  1.6038667  3
   1615   3298   3289   3290     1  0.0000000  1.6038667  3
   1615   3298   3289   3291     1  0.0000000  1.6038667  3
   1616   1615   3298   3289     1  0.0000000  1.6038667  3
   1617   1615   3298   3289     1  0.0000000  1.6038667  3
   1620   1621   1633   1634     1  0.0000000  0.6508444  3
   1620   1621   1633   1635     1  0.0000000  0.6508444  3
   1620   1624   1636   1637     1  0.0000000  0.6508444  3
   1620   1624   1636   1638     1  0.0000000  0.6508444  3
   1620   1627   1630   1631     1  0.0000000  0.6508444  3
   1620   1627   1630   1632     1  0.0000000  0.6508444  3
   1621   1620   1624   1625     1  0.0000000  0.6508444  3
   1621   1620   1624   1626     1  0.0000000  0.6508444  3
   1621   1620   1627   1628     1  0.0000000  0.6508444  3
   1621   1620   1627   1629     1  0.0000000  0.6508444  3
   1621   1633   1645   1646     1  0.0000000  0.6508444  3
   1621   1633   1645   1647     1  0.0000000  0.6508444  3
   1622   1621   1620   1624     1  0.0000000  0.6508444  3
   1622   1621   1620   1627     1  0.0000000  0.6508444  3
   1622   1621   1620   1649     1  0.0000000  0.6508444  3
   1622   1621   1633   1645     1  0.0000000  0.6508444  3
   1622   1621   1633   1634     1  0.0000000  0.6508444  3
   1622   1621   1633   1635     1  0.0000000  0.6508444  3
   1623   1621   1620   1624     1  0.0000000  0.6508444  3
   1623   1621   1620   1627     1  0.0000000  0.6508444  3
   1623   1621   1620   1649     1  0.0000000  0.6508444  3
   1623   1621   1633   1645     1  0.0000000  0.6508444  3
   1623   1621   1633   1634     1  0.0000000  0.6508444  3
   1623   1621   1633   1635     1  0.0000000  0.6508444  3
   1624   1620   1627   1628     1  0.0000000  0.6508444  3
   1624   1620   1627   1629     1  0.0000000  0.6508444  3
   1624   1636   1642   1643     1  0.0000000  0.6508444  3
   1624   1636   1642   1644     1  0.0000000  0.6508444  3
   1625   1624   1620   1627     1  0.0000000  0.6508444  3
   1625   1624   1620   1649     1  0.0000000  0.6508444  3
   1625   1624   1636   1642     1  0.0000000  0.6508444  3
   1625   1624   1636   1637     1  0.0000000  0.6508444  3
   1625   1624   1636   1638     1  0.0000000  0.6508444  3
   1626   1624   1620   1627     1  0.0000000  0.6508444  3
   1626   1624   1620   1649     1  0.0000000  0.6508444  3
   1626   1624   1636   1642     1  0.0000000  0.6508444  3
   1626   1624   1636   1637     1  0.0000000  0.6508444  3
   1626   1624   1636   1638     1  0.0000000  0.6508444  3
   1627   1630   1639   1640     1  0.0000000  0.6508444  3
   1627   1630   1639   1641     1  0.0000000  0.6508444  3
   1628   1627   1620   1649     1  0.0000000  0.6508444  3
   1628   1627   1630   1639     1  0.0000000  0.6508444  3
   1628   1627   1630   1631     1  0.0000000  0.6508444  3
   1628   1627   1630   1632     1  0.0000000  0.6508444  3
   1629   1627   1620   1649     1  0.0000000  0.6508444  3
   1629   1627   1630   1639     1  0.0000000  0.6508444  3
   1629   1627   1630   1631     1  0.0000000  0.6508444  3
   1629   1627   1630   1632     1  0.0000000  0.6508444  3
   1630   1627   1620   1649     1  0.0000000  0.6508444  3
   1631   1630   1639   1648     1  0.0000000  1.0460000  1
   1631   1630   1639   1648     1  0.0000000  0.0000000  3
   1631   1630   1639   1640     1  0.0000000  0.6508444  3
   1631   1630   1639   1641     1  0.0000000  0.6508444  3
   1632   1630   1639   1648     1  0.0000000  1.0460000  1
   1632   1630   1639   1648     1  0.0000000  0.0000000  3
   1632   1630   1639   1640     1  0.0000000  0.6508444  3
   1632   1630   1639   1641     1  0.0000000  0.6508444  3
   1633   1621   1620   1649     1  0.0000000  0.6508444  3
   1634   1633   1645   3358     1  0.0000000  1.0460000  1
   1634   1633   1645   3358     1  0.0000000  0.0000000  3
   1634   1633   1645   1646     1  0.0000000  0.6508444  3
   1634   1633   1645   1647     1  0.0000000  0.6508444  3
   1635   1633   1645   3358     1  0.0000000  1.0460000  1
   1635   1633   1645   3358     1  0.0000000  0.0000000  3
   1635   1633   1645   1646     1  0.0000000  0.6508444  3
   1635   1633   1645   1647     1  0.0000000  0.6508444  3
   1636   1624   1620   1649     1  0.0000000  0.6508444  3
   1637   1636   1642   3328     1  0.0000000  1.0460000  1
   1637   1636   1642   3328     1  0.0000000  0.0000000  3
   1637   1636   1642   1643     1  0.0000000  0.6508444  3
   1637   1636   1642   1644     1  0.0000000  0.6508444  3
   1638   1636   1642   3328     1  0.0000000  1.0460000  1
   1638   1636   1642   3328     1  0.0000000  0.0000000  3
   1638   1636   1642   1643     1  0.0000000  0.6508444  3
   1638   1636   1642   1644     1  0.0000000  0.6508444  3
   1642   3328   3319   3320     1  0.0000000  1.6038667  3
   1642   3328   3319   3321     1  0.0000000  1.6038667  3
   1643   1642   3328   3319     1  0.0000000  1.6038667  3
   1644   1642   3328   3319     1  0.0000000  1.6038667  3
   1645   3358   3349   3350     1  0.0000000  1.6038667  3
   1645   3358   3349   3351     1  0.0000000  1.6038667  3
   1646   1645   3358   3349     1  0.0000000  1.6038667  3
   1647   1645   3358   3349     1  0.0000000  1.6038667  3
   1650   1651   1663   1664     1  0.0000000  0.6508444  3
   1650   1651   1663   1665     1  0.0000000  0.6508444  3
   1650   1654   1666   1667     1  0.0000000  0.6508444  3
   1650   1654   1666   1668     1  0.0000000  0.6508444  3
   1650   1657   1660   1661     1  0.0000000  0.6508444  3
   1650   1657   1660   1662     1  0.0000000  0.6508444  3
   1651   1650   1654   1655     1  0.0000000  0.6508444  3
   1651   1650   1654   1656     1  0.0000000  0.6508444  3
   1651   1650   1657   1658     1  0.0000000  0.6508444  3
   1651   1650   1657   1659     1  0.0000000  0.6508444  3
   1651   1663   1675   1676     1  0.0000000  0.6508444  3
   1651   1663   1675   1677     1  0.0000000  0.6508444  3
   1652   1651   1650   1654     1  0.0000000  0.6508444  3
   1652   1651   1650   1657     1  0.0000000  0.6508444  3
   1652   1651   1650   1679     1  0.0000000  0.6508444  3
   1652   1651   1663   1675     1  0.0000000  0.6508444  3
   1652   1651   1663   1664     1  0.0000000  0.6508444  3
   1652   1651   1663   1665     1  0.0000000  0.6508444  3
   1653   1651   1650   1654     1  0.0000000  0.6508444  3
   1653   1651   1650   1657     1  0.0000000  0.6508444  3
   1653   1651   1650   1679     1  0.0000000  0.6508444  3
   1653   1651   1663   1675     1  0.0000000  0.6508444  3
   1653   1651   1663   1664     1  0.0000000  0.6508444  3
   1653   1651   1663   1665     1  0.0000000  0.6508444  3
   1654   1650   1657   1658     1  0.0000000  0.6508444  3
   1654   1650   1657   1659     1  0.0000000  0.6508444  3
   1654   1666   1672   1673     1  0.0000000  0.6508444  3
   1654   1666   1672   1674     1  0.0000000  0.6508444  3
   1655   1654   1650   1657     1  0.0000000  0.6508444  3
   1655   1654   1650   1679     1  0.0000000  0.6508444  3
   1655   1654   1666   1672     1  0.0000000  0.6508444  3
   1655   1654   1666   1667     1  0.0000000  0.6508444  3
   1655   1654   1666   1668     1  0.0000000  0.6508444  3
   1656   1654   1650   1657     1  0.0000000  0.6508444  3
   1656   1654   1650   1679     1  0.0000000  0.6508444  3
   1656   1654   1666   1672     1  0.0000000  0.6508444  3
   1656   1654   1666   1667     1  0.0000000  0.6508444  3
   1656   1654   1666   1668     1  0.0000000  0.6508444  3
   1657   1660   1669   1670     1  0.0000000  0.6508444  3
   1657   1660   1669   1671     1  0.0000000  0.6508444  3
   1658   1657   1650   1679     1  0.0000000  0.6508444  3
   1658   1657   1660   1669     1  0.0000000  0.6508444  3
   1658   1657   1660   1661     1  0.0000000  0.6508444  3
   1658   1657   1660   1662     1  0.0000000  0.6508444  3
   1659   1657   1650   1679     1  0.0000000  0.6508444  3
   1659   1657   1660   1669     1  0.0000000  0.6508444  3
   1659   1657   1660   1661     1  0.0000000  0.6508444  3
   1659   1657   1660   1662     1  0.0000000  0.6508444  3
   1660   1657   1650   1679     1  0.0000000  0.6508444  3
   1661   1660   1669   1678     1  0.0000000  1.0460000  1
   1661   1660   1669   1678     1  0.0000000  0.0000000  3
   1661   1660   1669   1670     1  0.0000000  0.6508444  3
   1661   1660   1669   1671     1  0.0000000  0.6508444  3
   1662   1660   1669   1678     1  0.0000000  1.0460000  1
   1662   1660   1669   1678     1  0.0000000  0.0000000  3
   1662   1660   1669   1670     1  0.0000000  0.6508444  3
   1662   1660   1669   1671     1  0.0000000  0.6508444  3
   1663   1651   1650   1679     1  0.0000000  0.6508444  3
   1664   1663   1675   3418     1  0.0000000  1.0460000  1
   1664   1663   1675   3418     1  0.0000000  0.0000000  3
   1664   1663   1675   1676     1  0.0000000  0.6508444  3
   1664   1663   1675   1677     1  0.0000000  0.6508444  3
   1665   1663   1675   3418     1  0.0000000  1.0460000  1
   1665   1663   1675   3418     1  0.0000000  0.0000000  3
   1665   1663   1675   1676     1  0.0000000  0.6508444  3
   1665   1663   1675   1677     1  0.0000000  0.6508444  3
   1666   1654   1650   1679     1  0.0000000  0.6508444  3
   1667   1666   1672   3388     1  0.0000000  1.0460000  1
   1667   1666   1672   3388     1  0.0000000  0.0000000  3
   1667   1666   1672   1673     1  0.0000000  0.6508444  3
   1667   1666   1672   1674     1  0.0000000  0.6508444  3
   1668   1666   1672   3388     1  0.0000000  1.0460000  1
   1668   1666   1672   3388     1  0.0000000  0.0000000  3
   1668   1666   1672   1673     1  0.0000000  0.6508444  3
   1668   1666   1672   1674     1  0.0000000  0.6508444  3
   1672   3388   3379   3380     1  0.0000000  1.6038667  3
   1672   3388   3379   3381     1  0.0000000  1.6038667  3
   1673   1672   3388   3379     1  0.0000000  1.6038667  3
   1674   1672   3388   3379     1  0.0000000  1.6038667  3
   1675   3418   3409   3410     1  0.0000000  1.6038667  3
   1675   3418   3409   3411     1  0.0000000  1.6038667  3
   1676   1675   3418   3409     1  0.0000000  1.6038667  3
   1677   1675   3418   3409     1  0.0000000  1.6038667  3
   1680   1681   1693   1694     1  0.0000000  0.6508444  3
   1680   1681   1693   1695     1  0.0000000  0.6508444  3
   1680   1684   1696   1697     1  0.0000000  0.6508444  3
   1680   1684   1696   1698     1  0.0000000  0.6508444  3
   1680   1687   1690   1691     1  0.0000000  0.6508444  3
   1680   1687   1690   1692     1  0.0000000  0.6508444  3
   1681   1680   1684   1685     1  0.0000000  0.6508444  3
   1681   1680   1684   1686     1  0.0000000  0.6508444  3
   1681   1680   1687   1688     1  0.0000000  0.6508444  3
   1681   1680   1687   1689     1  0.0000000  0.6508444  3
   1681   1693   1705   1706     1  0.0000000  0.6508444  3
   1681   1693   1705   1707     1  0.0000000  0.6508444  3
   1682   1681   1680   1684     1  0.0000000  0.6508444  3
   1682   1681   1680   1687     1  0.0000000  0.6508444  3
   1682   1681   1680   1709     1  0.0000000  0.6508444  3
   1682   1681   1693   1705     1  0.0000000  0.6508444  3
   1682   1681   1693   1694     1  0.0000000  0.6508444  3
   1682   1681   1693   1695     1  0.0000000  0.6508444  3
   1683   1681   1680   1684     1  0.0000000  0.6508444  3
   1683   1681   1680   1687     1  0.0000000  0.6508444  3
   1683   1681   1680   1709     1  0.0000000  0.6508444  3
   1683   1681   1693   1705     1  0.0000000  0.6508444  3
   1683   1681   1693   1694     1  0.0000000  0.6508444  3
   1683   1681   1693   1695     1  0.0000000  0.6508444  3
   1684   1680   1687   1688     1  0.0000000  0.6508444  3
   1684   1680   1687   1689     1  0.0000000  0.6508444  3
   1684   1696   1702   1703     1  0.0000000  0.6508444  3
   1684   1696   1702   1704     1  0.0000000  0.6508444  3
   1685   1684   1680   1687     1  0.0000000  0.6508444  3
   1685   1684   1680   1709     1  0.0000000  0.6508444  3
   1685   1684   1696   1702     1  0.0000000  0.6508444  3
   1685   1684   1696   1697     1  0.0000000  0.6508444  3
   1685   1684   1696   1698     1  0.0000000  0.6508444  3
   1686   1684   1680   1687     1  0.0000000  0.6508444  3
   1686   1684   1680   1709     1  0.0000000  0.6508444  3
   1686   1684   1696   1702     1  0.0000000  0.6508444  3
   1686   1684   1696   1697     1  0.0000000  0.6508444  3
   1686   1684   1696   1698     1  0.0000000  0.6508444  3
   1687   1690   1699   1700     1  0.0000000  0.6508444  3
   1687   1690   1699   1701     1  0.0000000  0.6508444  3
   1688   1687   1680   1709     1  0.0000000  0.6508444  3
   1688   1687   1690   1699     1  0.0000000  0.6508444  3
   1688   1687   1690   1691     1  0.0000000  0.6508444  3
   1688   1687   1690   1692     1  0.0000000  0.6508444  3
   1689   1687   1680   1709     1  0.0000000  0.6508444  3
   1689   1687   1690   1699     1  0.0000000  0.6508444  3
   1689   1687   1690   1691     1  0.0000000  0.6508444  3
   1689   1687   1690   1692     1  0.0000000  0.6508444  3
   1690   1687   1680   1709     1  0.0000000  0.6508444  3
   1691   1690   1699   1708     1  0.0000000  1.0460000  1
   1691   1690   1699   1708     1  0.0000000  0.0000000  3
   1691   1690   1699   1700     1  0.0000000  0.6508444  3
   1691   1690   1699   1701     1  0.0000000  0.6508444  3
   1692   1690   1699   1708     1  0.0000000  1.0460000  1
   1692   1690   1699   1708     1  0.0000000  0.0000000  3
   1692   1690   1699   1700     1  0.0000000  0.6508444  3
   1692   1690   1699   1701     1  0.0000000  0.6508444  3
   1693   1681   1680   1709     1  0.0000000  0.6508444  3
   1694   1693   1705   3478     1  0.0000000  1.0460000  1
   1694   1693   1705   3478     1  0.0000000  0.0000000  3
   1694   1693   1705   1706     1  0.0000000  0.6508444  3
   1694   1693   1705   1707     1  0.0000000  0.6508444  3
   1695   1693   1705   3478     1  0.0000000  1.0460000  1
   1695   1693   1705   3478     1  0.0000000  0.0000000  3
   1695   1693   1705   1706     1  0.0000000  0.6508444  3
   1695   1693   1705   1707     1  0.0000000  0.6508444  3
   1696   1684   1680   1709     1  0.0000000  0.6508444  3
   1697   1696   1702   3448     1  0.0000000  1.0460000  1
   1697   1696   1702   3448     1  0.0000000  0.0000000  3
   1697   1696   1702   1703     1  0.0000000  0.6508444  3
   1697   1696   1702   1704     1  0.0000000  0.6508444  3
   1698   1696   1702   3448     1  0.0000000  1.0460000  1
   1698   1696   1702   3448     1  0.0000000  0.0000000  3
   1698   1696   1702   1703     1  0.0000000  0.6508444  3
   1698   1696   1702   1704     1  0.0000000  0.6508444  3
   1702   3448   3439   3440     1  0.0000000  1.6038667  3
   1702   3448   3439   3441     1  0.0000000  1.6038667  3
   1703   1702   3448   3439     1  0.0000000  1.6038667  3
   1704   1702   3448   3439     1  0.0000000  1.6038667  3
   1705   3478   3469   3470     1  0.0000000  1.6038667  3
   1705   3478   3469   3471     1  0.0000000  1.6038667  3
   1706   1705   3478   3469     1  0.0000000  1.6038667  3
   1707   1705   3478   3469     1  0.0000000  1.6038667  3
   1710   1711   1723   1724     1  0.0000000  0.6508444  3
   1710   1711   1723   1725     1  0.0000000  0.6508444  3
   1710   1714   1726   1727     1  0.0000000  0.6508444  3
   1710   1714   1726   1728     1  0.0000000  0.6508444  3
   1710   1717   1720   1721     1  0.0000000  0.6508444  3
   1710   1717   1720   1722     1  0.0000000  0.6508444  3
   1711   1710   1714   1715     1  0.0000000  0.6508444  3
   1711   1710   1714   1716     1  0.0000000  0.6508444  3
   1711   1710   1717   1718     1  0.0000000  0.6508444  3
   1711   1710   1717   1719     1  0.0000000  0.6508444  3
   1711   1723   1735   1736     1  0.0000000  0.6508444  3
   1711   1723   1735   1737     1  0.0000000  0.6508444  3
   1712   1711   1710   1714     1  0.0000000  0.6508444  3
   1712   1711   1710   1717     1  0.0000000  0.6508444  3
   1712   1711   1710   1739     1  0.0000000  0.6508444  3
   1712   1711   1723   1735     1  0.0000000  0.6508444  3
   1712   1711   1723   1724     1  0.0000000  0.6508444  3
   1712   1711   1723   1725     1  0.0000000  0.6508444  3
   1713   1711   1710   1714     1  0.0000000  0.6508444  3
   1713   1711   1710   1717     1  0.0000000  0.6508444  3
   1713   1711   1710   1739     1  0.0000000  0.6508444  3
   1713   1711   1723   1735     1  0.0000000  0.6508444  3
   1713   1711   1723   1724     1  0.0000000  0.6508444  3
   1713   1711   1723   1725     1  0.0000000  0.6508444  3
   1714   1710   1717   1718     1  0.0000000  0.6508444  3
   1714   1710   1717   1719     1  0.0000000  0.6508444  3
   1714   1726   1732   1733     1  0.0000000  0.6508444  3
   1714   1726   1732   1734     1  0.0000000  0.6508444  3
   1715   1714   1710   1717     1  0.0000000  0.6508444  3
   1715   1714   1710   1739     1  0.0000000  0.6508444  3
   1715   1714   1726   1732     1  0.0000000  0.6508444  3
   1715   1714   1726   1727     1  0.0000000  0.6508444  3
   1715   1714   1726   1728     1  0.0000000  0.6508444  3
   1716   1714   1710   1717     1  0.0000000  0.6508444  3
   1716   1714   1710   1739     1  0.0000000  0.6508444  3
   1716   1714   1726   1732     1  0.0000000  0.6508444  3
   1716   1714   1726   1727     1  0.0000000  0.6508444  3
   1716   1714   1726   1728     1  0.0000000  0.6508444  3
   1717   1720   1729   1730     1  0.0000000  0.6508444  3
   1717   1720   1729   1731     1  0.0000000  0.6508444  3
   1718   1717   1710   1739     1  0.0000000  0.6508444  3
   1718   1717   1720   1729     1  0.0000000  0.6508444  3
   1718   1717   1720   1721     1  0.0000000  0.6508444  3
   1718   1717   1720   1722     1  0.0000000  0.6508444  3
   1719   1717   1710   1739     1  0.0000000  0.6508444  3
   1719   1717   1720   1729     1  0.0000000  0.6508444  3
   1719   1717   1720   1721     1  0.0000000  0.6508444  3
   1719   1717   1720   1722     1  0.0000000  0.6508444  3
   1720   1717   1710   1739     1  0.0000000  0.6508444  3
   1721   1720   1729   1738     1  0.0000000  1.0460000  1
   1721   1720   1729   1738     1  0.0000000  0.0000000  3
   1721   1720   1729   1730     1  0.0000000  0.6508444  3
   1721   1720   1729   1731     1  0.0000000  0.6508444  3
   1722   1720   1729   1738     1  0.0000000  1.0460000  1
   1722   1720   1729   1738     1  0.0000000  0.0000000  3
   1722   1720   1729   1730     1  0.0000000  0.6508444  3
   1722   1720   1729   1731     1  0.0000000  0.6508444  3
   1723   1711   1710   1739     1  0.0000000  0.6508444  3
   1724   1723   1735   3538     1  0.0000000  1.0460000  1
   1724   1723   1735   3538     1  0.0000000  0.0000000  3
   1724   1723   1735   1736     1  0.0000000  0.6508444  3
   1724   1723   1735   1737     1  0.0000000  0.6508444  3
   1725   1723   1735   3538     1  0.0000000  1.0460000  1
   1725   1723   1735   3538     1  0.0000000  0.0000000  3
   1725   1723   1735   1736     1  0.0000000  0.6508444  3
   1725   1723   1735   1737     1  0.0000000  0.6508444  3
   1726   1714   1710   1739     1  0.0000000  0.6508444  3
   1727   1726   1732   3508     1  0.0000000  1.0460000  1
   1727   1726   1732   3508     1  0.0000000  0.0000000  3
   1727   1726   1732   1733     1  0.0000000  0.6508444  3
   1727   1726   1732   1734     1  0.0000000  0.6508444  3
   1728   1726   1732   3508     1  0.0000000  1.0460000  1
   1728   1726   1732   3508     1  0.0000000  0.0000000  3
   1728   1726   1732   1733     1  0.0000000  0.6508444  3
   1728   1726   1732   1734     1  0.0000000  0.6508444  3
   1732   3508   3499   3500     1  0.0000000  1.6038667  3
   1732   3508   3499   3501     1  0.0000000  1.6038667  3
   1733   1732   3508   3499     1  0.0000000  1.6038667  3
   1734   1732   3508   3499     1  0.0000000  1.6038667  3
   1735   3538   3529   3530     1  0.0000000  1.6038667  3
   1735   3538   3529   3531     1  0.0000000  1.6038667  3
   1736   1735   3538   3529     1  0.0000000  1.6038667  3
   1737   1735   3538   3529     1  0.0000000  1.6038667  3
   1740   1741   1753   1754     1  0.0000000  0.6508444  3
   1740   1741   1753   1755     1  0.0000000  0.6508444  3
   1740   1744   1756   1757     1  0.0000000  0.6508444  3
   1740   1744   1756   1758     1  0.0000000  0.6508444  3
   1740   1747   1750   1751     1  0.0000000  0.6508444  3
   1740   1747   1750   1752     1  0.0000000  0.6508444  3
   1741   1740   1744   1745     1  0.0000000  0.6508444  3
   1741   1740   1744   1746     1  0.0000000  0.6508444  3
   1741   1740   1747   1748     1  0.0000000  0.6508444  3
   1741   1740   1747   1749     1  0.0000000  0.6508444  3
   1741   1753   1765   1766     1  0.0000000  0.6508444  3
   1741   1753   1765   1767     1  0.0000000  0.6508444  3
   1742   1741   1740   1744     1  0.0000000  0.6508444  3
   1742   1741   1740   1747     1  0.0000000  0.6508444  3
   1742   1741   1740   1769     1  0.0000000  0.6508444  3
   1742   1741   1753   1765     1  0.0000000  0.6508444  3
   1742   1741   1753   1754     1  0.0000000  0.6508444  3
   1742   1741   1753   1755     1  0.0000000  0.6508444  3
   1743   1741   1740   1744     1  0.0000000  0.6508444  3
   1743   1741   1740   1747     1  0.0000000  0.6508444  3
   1743   1741   1740   1769     1  0.0000000  0.6508444  3
   1743   1741   1753   1765     1  0.0000000  0.6508444  3
   1743   1741   1753   1754     1  0.0000000  0.6508444  3
   1743   1741   1753   1755     1  0.0000000  0.6508444  3
   1744   1740   1747   1748     1  0.0000000  0.6508444  3
   1744   1740   1747   1749     1  0.0000000  0.6508444  3
   1744   1756   1762   1763     1  0.0000000  0.6508444  3
   1744   1756   1762   1764     1  0.0000000  0.6508444  3
   1745   1744   1740   1747     1  0.0000000  0.6508444  3
   1745   1744   1740   1769     1  0.0000000  0.6508444  3
   1745   1744   1756   1762     1  0.0000000  0.6508444  3
   1745   1744   1756   1757     1  0.0000000  0.6508444  3
   1745   1744   1756   1758     1  0.0000000  0.6508444  3
   1746   1744   1740   1747     1  0.0000000  0.6508444  3
   1746   1744   1740   1769     1  0.0000000  0.6508444  3
   1746   1744   1756   1762     1  0.0000000  0.6508444  3
   1746   1744   1756   1757     1  0.0000000  0.6508444  3
   1746   1744   1756   1758     1  0.0000000  0.6508444  3
   1747   1750   1759   1760     1  0.0000000  0.6508444  3
   1747   1750   1759   1761     1  0.0000000  0.6508444  3
   1748   1747   1740   1769     1  0.0000000  0.6508444  3
   1748   1747   1750   1759     1  0.0000000  0.6508444  3
   1748   1747   1750   1751     1  0.0000000  0.6508444  3
   1748   1747   1750   1752     1  0.0000000  0.6508444  3
   1749   1747   1740   1769     1  0.0000000  0.6508444  3
   1749   1747   1750   1759     1  0.0000000  0.6508444  3
   1749   1747   1750   1751     1  0.0000000  0.6508444  3
   1749   1747   1750   1752     1  0.0000000  0.6508444  3
   1750   1747   1740   1769     1  0.0000000  0.6508444  3
   1751   1750   1759   1768     1  0.0000000  1.0460000  1
   1751   1750   1759   1768     1  0.0000000  0.0000000  3
   1751   1750   1759   1760     1  0.0000000  0.6508444  3
   1751   1750   1759   1761     1  0.0000000  0.6508444  3
   1752   1750   1759   1768     1  0.0000000  1.0460000  1
   1752   1750   1759   1768     1  0.0000000  0.0000000  3
   1752   1750   1759   1760     1  0.0000000  0.6508444  3
   1752   1750   1759   1761     1  0.0000000  0.6508444  3
   1753   1741   1740   1769     1  0.0000000  0.6508444  3
   1754   1753   1765   3598     1  0.0000000  1.0460000  1
   1754   1753   1765   3598     1  0.0000000  0.0000000  3
   1754   1753   1765   1766     1  0.0000000  0.6508444  3
   1754   1753   1765   1767     1  0.0000000  0.6508444  3
   1755   1753   1765   3598     1  0.0000000  1.0460000  1
   1755   1753   1765   3598     1  0.0000000  0.0000000  3
   1755   1753   1765   1766     1  0.0000000  0.6508444  3
   1755   1753   1765   1767     1  0.0000000  0.6508444  3
   1756   1744   1740   1769     1  0.0000000  0.6508444  3
   1757   1756   1762   3568     1  0.0000000  1.0460000  1
   1757   1756   1762   3568     1  0.0000000  0.0000000  3
   1757   1756   1762   1763     1  0.0000000  0.6508444  3
   1757   1756   1762   1764     1  0.0000000  0.6508444  3
   1758   1756   1762   3568     1  0.0000000  1.0460000  1
   1758   1756   1762   3568     1  0.0000000  0.0000000  3
   1758   1756   1762   1763     1  0.0000000  0.6508444  3
   1758   1756   1762   1764     1  0.0000000  0.6508444  3
   1762   3568   3559   3560     1  0.0000000  1.6038667  3
   1762   3568   3559   3561     1  0.0000000  1.6038667  3
   1763   1762   3568   3559     1  0.0000000  1.6038667  3
   1764   1762   3568   3559     1  0.0000000  1.6038667  3
   1765   3598   3589   3590     1  0.0000000  1.6038667  3
   1765   3598   3589   3591     1  0.0000000  1.6038667  3
   1766   1765   3598   3589     1  0.0000000  1.6038667  3
   1767   1765   3598   3589     1  0.0000000  1.6038667  3
   1770   1771   1783   1784     1  0.0000000  0.6508444  3
   1770   1771   1783   1785     1  0.0000000  0.6508444  3
   1770   1774   1786   1787     1  0.0000000  0.6508444  3
   1770   1774   1786   1788     1  0.0000000  0.6508444  3
   1770   1777   1780   1781     1  0.0000000  0.6508444  3
   1770   1777   1780   1782     1  0.0000000  0.6508444  3
   1771   1770   1774   1775     1  0.0000000  0.6508444  3
   1771   1770   1774   1776     1  0.0000000  0.6508444  3
   1771   1770   1777   1778     1  0.0000000  0.6508444  3
   1771   1770   1777   1779     1  0.0000000  0.6508444  3
   1771   1783   1795   1796     1  0.0000000  0.6508444  3
   1771   1783   1795   1797     1  0.0000000  0.6508444  3
   1772   1771   1770   1774     1  0.0000000  0.6508444  3
   1772   1771   1770   1777     1  0.0000000  0.6508444  3
   1772   1771   1770   1799     1  0.0000000  0.6508444  3
   1772   1771   1783   1795     1  0.0000000  0.6508444  3
   1772   1771   1783   1784     1  0.0000000  0.6508444  3
   1772   1771   1783   1785     1  0.0000000  0.6508444  3
   1773   1771   1770   1774     1  0.0000000  0.6508444  3
   1773   1771   1770   1777     1  0.0000000  0.6508444  3
   1773   1771   1770   1799     1  0.0000000  0.6508444  3
   1773   1771   1783   1795     1  0.0000000  0.6508444  3
   1773   1771   1783   1784     1  0.0000000  0.6508444  3
   1773   1771   1783   1785     1  0.0000000  0.6508444  3
   1774   1770   1777   1778     1  0.0000000  0.6508444  3
   1774   1770   1777   1779     1  0.0000000  0.6508444  3
   1774   1786   1792   1793     1  0.0000000  0.6508444  3
   1774   1786   1792   1794     1  0.0000000  0.6508444  3
   1775   1774   1770   1777     1  0.0000000  0.6508444  3
   1775   1774   1770   1799     1  0.0000000  0.6508444  3
   1775   1774   1786   1792     1  0.0000000  0.6508444  3
   1775   1774   1786   1787     1  0.0000000  0.6508444  3
   1775   1774   1786   1788     1  0.0000000  0.6508444  3
   1776   1774   1770   1777     1  0.0000000  0.6508444  3
   1776   1774   1770   1799     1  0.0000000  0.6508444  3
   1776   1774   1786   1792     1  0.0000000  0.6508444  3
   1776   1774   1786   1787     1  0.0000000  0.6508444  3
   1776   1774   1786   1788     1  0.0000000  0.6508444  3
   1777   1780   1789   1790     1  0.0000000  0.6508444  3
   1777   1780   1789   1791     1  0.0000000  0.6508444  3
   1778   1777   1770   1799     1  0.0000000  0.6508444  3
   1778   1777   1780   1789     1  0.0000000  0.6508444  3
   1778   1777   1780   1781     1  0.0000000  0.6508444  3
   1778   1777   1780   1782     1  0.0000000  0.6508444  3
   1779   1777   1770   1799     1  0.0000000  0.6508444  3
   1779   1777   1780   1789     1  0.0000000  0.6508444  3
   1779   1777   1780   1781     1  0.0000000  0.6508444  3
   1779   1777   1780   1782     1  0.0000000  0.6508444  3
   1780   1777   1770   1799     1  0.0000000  0.6508444  3
   1781   1780   1789   1798     1  0.0000000  1.0460000  1
   1781   1780   1789   1798     1  0.0000000  0.0000000  3
   1781   1780   1789   1790     1  0.0000000  0.6508444  3
   1781   1780   1789   1791     1  0.0000000  0.6508444  3
   1782   1780   1789   1798     1  0.0000000  1.0460000  1
   1782   1780   1789   1798     1  0.0000000  0.0000000  3
   1782   1780   1789   1790     1  0.0000000  0.6508444  3
   1782   1780   1789   1791     1  0.0000000  0.6508444  3
   1783   1771   1770   1799     1  0.0000000  0.6508444  3
   1784   1783   1795   3658     1  0.0000000  1.0460000  1
   1784   1783   1795   3658     1  0.0000000  0.0000000  3
   1784   1783   1795   1796     1  0.0000000  0.6508444  3
   1784   1783   1795   1797     1  0.0000000  0.6508444  3
   1785   1783   1795   3658     1  0.0000000  1.0460000  1
   1785   1783   1795   3658     1  0.0000000  0.0000000  3
   1785   1783   1795   1796     1  0.0000000  0.6508444  3
   1785   1783   1795   1797     1  0.0000000  0.6508444  3
   1786   1774   1770   1799     1  0.0000000  0.6508444  3
   1787   1786   1792   3628     1  0.0000000  1.0460000  1
   1787   1786   1792   3628     1  0.0000000  0.0000000  3
   1787   1786   1792   1793     1  0.0000000  0.6508444  3
   1787   1786   1792   1794     1  0.0000000  0.6508444  3
   1788   1786   1792   3628     1  0.0000000  1.0460000  1
   1788   1786   1792   3628     1  0.0000000  0.0000000  3
   1788   1786   1792   1793     1  0.0000000  0.6508444  3
   1788   1786   1792   1794     1  0.0000000  0.6508444  3
   1792   3628   3619   3620     1  0.0000000  1.6038667  3
   1792   3628   3619   3621     1  0.0000000  1.6038667  3
   1793   1792   3628   3619     1  0.0000000  1.6038667  3
   1794   1792   3628   3619     1  0.0000000  1.6038667  3
   1795   3658   3649   3650     1  0.0000000  1.6038667  3
   1795   3658   3649   3651     1  0.0000000  1.6038667  3
   1796   1795   3658   3649     1  0.0000000  1.6038667  3
   1797   1795   3658   3649     1  0.0000000  1.6038667  3
   1800   1801   1813   1814     1  0.0000000  0.6508444  3
   1800   1801   1813   1815     1  0.0000000  0.6508444  3
   1800   1804   1816   1817     1  0.0000000  0.6508444  3
   1800   1804   1816   1818     1  0.0000000  0.6508444  3
   1800   1807   1810   1811     1  0.0000000  0.6508444  3
   1800   1807   1810   1812     1  0.0000000  0.6508444  3
   1801   1800   1804   1805     1  0.0000000  0.6508444  3
   1801   1800   1804   1806     1  0.0000000  0.6508444  3
   1801   1800   1807   1808     1  0.0000000  0.6508444  3
   1801   1800   1807   1809     1  0.0000000  0.6508444  3
   1801   1813   1825   1826     1  0.0000000  0.6508444  3
   1801   1813   1825   1827     1  0.0000000  0.6508444  3
   1802   1801   1800   1804     1  0.0000000  0.6508444  3
   1802   1801   1800   1807     1  0.0000000  0.6508444  3
   1802   1801   1800   1829     1  0.0000000  0.6508444  3
   1802   1801   1813   1825     1  0.0000000  0.6508444  3
   1802   1801   1813   1814     1  0.0000000  0.6508444  3
   1802   1801   1813   1815     1  0.0000000  0.6508444  3
   1803   1801   1800   1804     1  0.0000000  0.6508444  3
   1803   1801   1800   1807     1  0.0000000  0.6508444  3
   1803   1801   1800   1829     1  0.0000000  0.6508444  3
   1803   1801   1813   1825     1  0.0000000  0.6508444  3
   1803   1801   1813   1814     1  0.0000000  0.6508444  3
   1803   1801   1813   1815     1  0.0000000  0.6508444  3
   1804   1800   1807   1808     1  0.0000000  0.6508444  3
   1804   1800   1807   1809     1  0.0000000  0.6508444  3
   1804   1816   1822   1823     1  0.0000000  0.6508444  3
   1804   1816   1822   1824     1  0.0000000  0.6508444  3
   1805   1804   1800   1807     1  0.0000000  0.6508444  3
   1805   1804   1800   1829     1  0.0000000  0.6508444  3
   1805   1804   1816   1822     1  0.0000000  0.6508444  3
   1805   1804   1816   1817     1  0.0000000  0.6508444  3
   1805   1804   1816   1818     1  0.0000000  0.6508444  3
   1806   1804   1800   1807     1  0.0000000  0.6508444  3
   1806   1804   1800   1829     1  0.0000000  0.6508444  3
   1806   1804   1816   1822     1  0.0000000  0.6508444  3
   1806   1804   1816   1817     1  0.0000000  0.6508444  3
   1806   1804   1816   1818     1  0.0000000  0.6508444  3
   1807   1810   1819   1820     1  0.0000000  0.6508444  3
   1807   1810   1819   1821     1  0.0000000  0.6508444  3
   1808   1807   1800   1829     1  0.0000000  0.6508444  3
   1808   1807   1810   1819     1  0.0000000  0.6508444  3
   1808   1807   1810   1811     1  0.0000000  0.6508444  3
   1808   1807   1810   1812     1  0.0000000  0.6508444  3
   1809   1807   1800   1829     1  0.0000000  0.6508444  3
   1809   1807   1810   1819     1  0.0000000  0.6508444  3
   1809   1807   1810   1811     1  0.0000000  0.6508444  3
   1809   1807   1810   1812     1  0.0000000  0.6508444  3
   1810   1807   1800   1829     1  0.0000000  0.6508444  3
   1811   1810   1819   1828     1  0.0000000  1.0460000  1
   1811   1810   1819   1828     1  0.0000000  0.0000000  3
   1811   1810   1819   1820     1  0.0000000  0.6508444  3
   1811   1810   1819   1821     1  0.0000000  0.6508444  3
   1812   1810   1819   1828     1  0.0000000  1.0460000  1
   1812   1810   1819   1828     1  0.0000000  0.0000000  3
   1812   1810   1819   1820     1  0.0000000  0.6508444  3
   1812   1810   1819   1821     1  0.0000000  0.6508444  3
   1813   1801   1800   1829     1  0.0000000  0.6508444  3
   1814   1813   1825   3718     1  0.0000000  1.0460000  1
   1814   1813   1825   3718     1  0.0000000  0.0000000  3
   1814   1813   1825   1826     1  0.0000000  0.6508444  3
   1814   1813   1825   1827     1  0.0000000  0.6508444  3
   1815   1813   1825   3718     1  0.0000000  1.0460000  1
   1815   1813   1825   3718     1  0.0000000  0.0000000  3
   1815   1813   1825   1826     1  0.0000000  0.6508444  3
   1815   1813   1825   1827     1  0.0000000  0.6508444  3
   1816   1804   1800   1829     1  0.0000000  0.6508444  3
   1817   1816   1822   3688     1  0.0000000  1.0460000  1
   1817   1816   1822   3688     1  0.0000000  0.0000000  3
   1817   1816   1822   1823     1  0.0000000  0.6508444  3
   1817   1816   1822   1824     1  0.0000000  0.6508444  3
   1818   1816   1822   3688     1  0.0000000  1.0460000  1
   1818   1816   1822   3688     1  0.0000000  0.0000000  3
   1818   1816   1822   1823     1  0.0000000  0.6508444  3
   1818   1816   1822   1824     1  0.0000000  0.6508444  3
   1822   3688   3679   3680     1  0.0000000  1.6038667  3
   1822   3688   3679   3681     1  0.0000000  1.6038667  3
   1823   1822   3688   3679     1  0.0000000  1.6038667  3
   1824   1822   3688   3679     1  0.0000000  1.6038667  3
   1825   3718   3709   3710     1  0.0000000  1.6038667  3
   1825   3718   3709   3711     1  0.0000000  1.6038667  3
   1826   1825   3718   3709     1  0.0000000  1.6038667  3
   1827   1825   3718   3709     1  0.0000000  1.6038667  3
   1830   1831   1843   1844     1  0.0000000  0.6508444  3
   1830   1831   1843   1845     1  0.0000000  0.6508444  3
   1830   1834   1846   1847     1  0.0000000  0.6508444  3
   1830   1834   1846   1848     1  0.0000000  0.6508444  3
   1830   1837   1840   1841     1  0.0000000  0.6508444  3
   1830   1837   1840   1842     1  0.0000000  0.6508444  3
   1831   1830   1834   1835     1  0.0000000  0.6508444  3
   1831   1830   1834   1836     1  0.0000000  0.6508444  3
   1831   1830   1837   1838     1  0.0000000  0.6508444  3
   1831   1830   1837   1839     1  0.0000000  0.6508444  3
   1831   1843   1855   1856     1  0.0000000  0.6508444  3
   1831   1843   1855   1857     1  0.0000000  0.6508444  3
   1832   1831   1830   1834     1  0.0000000  0.6508444  3
   1832   1831   1830   1837     1  0.0000000  0.6508444  3
   1832   1831   1830   1859     1  0.0000000  0.6508444  3
   1832   1831   1843   1855     1  0.0000000  0.6508444  3
   1832   1831   1843   1844     1  0.0000000  0.6508444  3
   1832   1831   1843   1845     1  0.0000000  0.6508444  3
   1833   1831   1830   1834     1  0.0000000  0.6508444  3
   1833   1831   1830   1837     1  0.0000000  0.6508444  3
   1833   1831   1830   1859     1  0.0000000  0.6508444  3
   1833   1831   1843   1855     1  0.0000000  0.6508444  3
   1833   1831   1843   1844     1  0.0000000  0.6508444  3
   1833   1831   1843   1845     1  0.0000000  0.6508444  3
   1834   1830   1837   1838     1  0.0000000  0.6508444  3
   1834   1830   1837   1839     1  0.0000000  0.6508444  3
   1834   1846   1852   1853     1  0.0000000  0.6508444  3
   1834   1846   1852   1854     1  0.0000000  0.6508444  3
   1835   1834   1830   1837     1  0.0000000  0.6508444  3
   1835   1834   1830   1859     1  0.0000000  0.6508444  3
   1835   1834   1846   1852     1  0.0000000  0.6508444  3
   1835   1834   1846   1847     1  0.0000000  0.6508444  3
   1835   1834   1846   1848     1  0.0000000  0.6508444  3
   1836   1834   1830   1837     1  0.0000000  0.6508444  3
   1836   1834   1830   1859     1  0.0000000  0.6508444  3
   1836   1834   1846   1852     1  0.0000000  0.6508444  3
   1836   1834   1846   1847     1  0.0000000  0.6508444  3
   1836   1834   1846   1848     1  0.0000000  0.6508444  3
   1837   1840   1849   1850     1  0.0000000  0.6508444  3
   1837   1840   1849   1851     1  0.0000000  0.6508444  3
   1838   1837   1830   1859     1  0.0000000  0.6508444  3
   1838   1837   1840   1849     1  0.0000000  0.6508444  3
   1838   1837   1840   1841     1  0.0000000  0.6508444  3
   1838   1837   1840   1842     1  0.0000000  0.6508444  3
   1839   1837   1830   1859     1  0.0000000  0.6508444  3
   1839   1837   1840   1849     1  0.0000000  0.6508444  3
   1839   1837   1840   1841     1  0.0000000  0.6508444  3
   1839   1837   1840   1842     1  0.0000000  0.6508444  3
   1840   1837   1830   1859     1  0.0000000  0.6508444  3
   1841   1840   1849   1858     1  0.0000000  1.0460000  1
   1841   1840   1849   1858     1  0.0000000  0.0000000  3
   1841   1840   1849   1850     1  0.0000000  0.6508444  3
   1841   1840   1849   1851     1  0.0000000  0.6508444  3
   1842   1840   1849   1858     1  0.0000000  1.0460000  1
   1842   1840   1849   1858     1  0.0000000  0.0000000  3
   1842   1840   1849   1850     1  0.0000000  0.6508444  3
   1842   1840   1849   1851     1  0.0000000  0.6508444  3
   1843   1831   1830   1859     1  0.0000000  0.6508444  3
   1844   1843   1855   3778     1  0.0000000  1.0460000  1
   1844   1843   1855   3778     1  0.0000000  0.0000000  3
   1844   1843   1855   1856     1  0.0000000  0.6508444  3
   1844   1843   1855   1857     1  0.0000000  0.6508444  3
   1845   1843   1855   3778     1  0.0000000  1.0460000  1
   1845   1843   1855   3778     1  0.0000000  0.0000000  3
   1845   1843   1855   1856     1  0.0000000  0.6508444  3
   1845   1843   1855   1857     1  0.0000000  0.6508444  3
   1846   1834   1830   1859     1  0.0000000  0.6508444  3
   1847   1846   1852   3748     1  0.0000000  1.0460000  1
   1847   1846   1852   3748     1  0.0000000  0.0000000  3
   1847   1846   1852   1853     1  0.0000000  0.6508444  3
   1847   1846   1852   1854     1  0.0000000  0.6508444  3
   1848   1846   1852   3748     1  0.0000000  1.0460000  1
   1848   1846   1852   3748     1  0.0000000  0.0000000  3
   1848   1846   1852   1853     1  0.0000000  0.6508444  3
   1848   1846   1852   1854     1  0.0000000  0.6508444  3
   1852   3748   3739   3740     1  0.0000000  1.6038667  3
   1852   3748   3739   3741     1  0.0000000  1.6038667  3
   1853   1852   3748   3739     1  0.0000000  1.6038667  3
   1854   1852   3748   3739     1  0.0000000  1.6038667  3
   1855   3778   3769   3770     1  0.0000000  1.6038667  3
   1855   3778   3769   3771     1  0.0000000  1.6038667  3
   1856   1855   3778   3769     1  0.0000000  1.6038667  3
   1857   1855   3778   3769     1  0.0000000  1.6038667  3
   1860   1861   1873   1874     1  0.0000000  0.6508444  3
   1860   1861   1873   1875     1  0.0000000  0.6508444  3
   1860   1864   1876   1877     1  0.0000000  0.6508444  3
   1860   1864   1876   1878     1  0.0000000  0.6508444  3
   1860   1867   1870   1871     1  0.0000000  0.6508444  3
   1860   1867   1870   1872     1  0.0000000  0.6508444  3
   1861   1860   1864   1865     1  0.0000000  0.6508444  3
   1861   1860   1864   1866     1  0.0000000  0.6508444  3
   1861   1860   1867   1868     1  0.0000000  0.6508444  3
   1861   1860   1867   1869     1  0.0000000  0.6508444  3
   1861   1873   1885   1886     1  0.0000000  0.6508444  3
   1861   1873   1885   1887     1  0.0000000  0.6508444  3
   1862   1861   1860   1864     1  0.0000000  0.6508444  3
   1862   1861   1860   1867     1  0.0000000  0.6508444  3
   1862   1861   1860   1889     1  0.0000000  0.6508444  3
   1862   1861   1873   1885     1  0.0000000  0.6508444  3
   1862   1861   1873   1874     1  0.0000000  0.6508444  3
   1862   1861   1873   1875     1  0.0000000  0.6508444  3
   1863   1861   1860   1864     1  0.0000000  0.6508444  3
   1863   1861   1860   1867     1  0.0000000  0.6508444  3
   1863   1861   1860   1889     1  0.0000000  0.6508444  3
   1863   1861   1873   1885     1  0.0000000  0.6508444  3
   1863   1861   1873   1874     1  0.0000000  0.6508444  3
   1863   1861   1873   1875     1  0.0000000  0.6508444  3
   1864   1860   1867   1868     1  0.0000000  0.6508444  3
   1864   1860   1867   1869     1  0.0000000  0.6508444  3
   1864   1876   1882   1883     1  0.0000000  0.6508444  3
   1864   1876   1882   1884     1  0.0000000  0.6508444  3
   1865   1864   1860   1867     1  0.0000000  0.6508444  3
   1865   1864   1860   1889     1  0.0000000  0.6508444  3
   1865   1864   1876   1882     1  0.0000000  0.6508444  3
   1865   1864   1876   1877     1  0.0000000  0.6508444  3
   1865   1864   1876   1878     1  0.0000000  0.6508444  3
   1866   1864   1860   1867     1  0.0000000  0.6508444  3
   1866   1864   1860   1889     1  0.0000000  0.6508444  3
   1866   1864   1876   1882     1  0.0000000  0.6508444  3
   1866   1864   1876   1877     1  0.0000000  0.6508444  3
   1866   1864   1876   1878     1  0.0000000  0.6508444  3
   1867   1870   1879   1880     1  0.0000000  0.6508444  3
   1867   1870   1879   1881     1  0.0000000  0.6508444  3
   1868   1867   1860   1889     1  0.0000000  0.6508444  3
   1868   1867   1870   1879     1  0.0000000  0.6508444  3
   1868   1867   1870   1871     1  0.0000000  0.6508444  3
   1868   1867   1870   1872     1  0.0000000  0.6508444  3
   1869   1867   1860   1889     1  0.0000000  0.6508444  3
   1869   1867   1870   1879     1  0.0000000  0.6508444  3
   1869   1867   1870   1871     1  0.0000000  0.6508444  3
   1869   1867   1870   1872     1  0.0000000  0.6508444  3
   1870   1867   1860   1889     1  0.0000000  0.6508444  3
   1871   1870   1879   1888     1  0.0000000  1.0460000  1
   1871   1870   1879   1888     1  0.0000000  0.0000000  3
   1871   1870   1879   1880     1  0.0000000  0.6508444  3
   1871   1870   1879   1881     1  0.0000000  0.6508444  3
   1872   1870   1879   1888     1  0.0000000  1.0460000  1
   1872   1870   1879   1888     1  0.0000000  0.0000000  3
   1872   1870   1879   1880     1  0.0000000  0.6508444  3
   1872   1870   1879   1881     1  0.0000000  0.6508444  3
   1873   1861   1860   1889     1  0.0000000  0.6508444  3
   1874   1873   1885   3838     1  0.0000000  1.0460000  1
   1874   1873   1885   3838     1  0.0000000  0.0000000  3
   1874   1873   1885   1886     1  0.0000000  0.6508444  3
   1874   1873   1885   1887     1  0.0000000  0.6508444  3
   1875   1873   1885   3838     1  0.0000000  1.0460000  1
   1875   1873   1885   3838     1  0.0000000  0.0000000  3
   1875   1873   1885   1886     1  0.0000000  0.6508444  3
   1875   1873   1885   1887     1  0.0000000  0.6508444  3
   1876   1864   1860   1889     1  0.0000000  0.6508444  3
   1877   1876   1882   3808     1  0.0000000  1.0460000  1
   1877   1876   1882   3808     1  0.0000000  0.0000000  3
   1877   1876   1882   1883     1  0.0000000  0.6508444  3
   1877   1876   1882   1884     1  0.0000000  0.6508444  3
   1878   1876   1882   3808     1  0.0000000  1.0460000  1
   1878   1876   1882   3808     1  0.0000000  0.0000000  3
   1878   1876   1882   1883     1  0.0000000  0.6508444  3
   1878   1876   1882   1884     1  0.0000000  0.6508444  3
   1882   3808   3799   3800     1  0.0000000  1.6038667  3
   1882   3808   3799   3801     1  0.0000000  1.6038667  3
   1883   1882   3808   3799     1  0.0000000  1.6038667  3
   1884   1882   3808   3799     1  0.0000000  1.6038667  3
   1885   3838   3829   3830     1  0.0000000  1.6038667  3
   1885   3838   3829   3831     1  0.0000000  1.6038667  3
   1886   1885   3838   3829     1  0.0000000  1.6038667  3
   1887   1885   3838   3829     1  0.0000000  1.6038667  3
   1890   1891   1903   1904     1  0.0000000  0.6508444  3
   1890   1891   1903   1905     1  0.0000000  0.6508444  3
   1890   1894   1906   1907     1  0.0000000  0.6508444  3
   1890   1894   1906   1908     1  0.0000000  0.6508444  3
   1890   1897   1900   1901     1  0.0000000  0.6508444  3
   1890   1897   1900   1902     1  0.0000000  0.6508444  3
   1891   1890   1894   1895     1  0.0000000  0.6508444  3
   1891   1890   1894   1896     1  0.0000000  0.6508444  3
   1891   1890   1897   1898     1  0.0000000  0.6508444  3
   1891   1890   1897   1899     1  0.0000000  0.6508444  3
   1891   1903   1915   1916     1  0.0000000  0.6508444  3
   1891   1903   1915   1917     1  0.0000000  0.6508444  3
   1892   1891   1890   1894     1  0.0000000  0.6508444  3
   1892   1891   1890   1897     1  0.0000000  0.6508444  3
   1892   1891   1890   1919     1  0.0000000  0.6508444  3
   1892   1891   1903   1915     1  0.0000000  0.6508444  3
   1892   1891   1903   1904     1  0.0000000  0.6508444  3
   1892   1891   1903   1905     1  0.0000000  0.6508444  3
   1893   1891   1890   1894     1  0.0000000  0.6508444  3
   1893   1891   1890   1897     1  0.0000000  0.6508444  3
   1893   1891   1890   1919     1  0.0000000  0.6508444  3
   1893   1891   1903   1915     1  0.0000000  0.6508444  3
   1893   1891   1903   1904     1  0.0000000  0.6508444  3
   1893   1891   1903   1905     1  0.0000000  0.6508444  3
   1894   1890   1897   1898     1  0.0000000  0.6508444  3
   1894   1890   1897   1899     1  0.0000000  0.6508444  3
   1894   1906   1912   1913     1  0.0000000  0.6508444  3
   1894   1906   1912   1914     1  0.0000000  0.6508444  3
   1895   1894   1890   1897     1  0.0000000  0.6508444  3
   1895   1894   1890   1919     1  0.0000000  0.6508444  3
   1895   1894   1906   1912     1  0.0000000  0.6508444  3
   1895   1894   1906   1907     1  0.0000000  0.6508444  3
   1895   1894   1906   1908     1  0.0000000  0.6508444  3
   1896   1894   1890   1897     1  0.0000000  0.6508444  3
   1896   1894   1890   1919     1  0.0000000  0.6508444  3
   1896   1894   1906   1912     1  0.0000000  0.6508444  3
   1896   1894   1906   1907     1  0.0000000  0.6508444  3
   1896   1894   1906   1908     1  0.0000000  0.6508444  3
   1897   1900   1909   1910     1  0.0000000  0.6508444  3
   1897   1900   1909   1911     1  0.0000000  0.6508444  3
   1898   1897   1890   1919     1  0.0000000  0.6508444  3
   1898   1897   1900   1909     1  0.0000000  0.6508444  3
   1898   1897   1900   1901     1  0.0000000  0.6508444  3
   1898   1897   1900   1902     1  0.0000000  0.6508444  3
   1899   1897   1890   1919     1  0.0000000  0.6508444  3
   1899   1897   1900   1909     1  0.0000000  0.6508444  3
   1899   1897   1900   1901     1  0.0000000  0.6508444  3
   1899   1897   1900   1902     1  0.0000000  0.6508444  3
   1900   1897   1890   1919     1  0.0000000  0.6508444  3
   1901   1900   1909   1918     1  0.0000000  1.0460000  1
   1901   1900   1909   1918     1  0.0000000  0.0000000  3
   1901   1900   1909   1910     1  0.0000000  0.6508444  3
   1901   1900   1909   1911     1  0.0000000  0.6508444  3
   1902   1900   1909   1918     1  0.0000000  1.0460000  1
   1902   1900   1909   1918     1  0.0000000  0.0000000  3
   1902   1900   1909   1910     1  0.0000000  0.6508444  3
   1902   1900   1909   1911     1  0.0000000  0.6508444  3
   1903   1891   1890   1919     1  0.0000000  0.6508444  3
   1904   1903   1915   3898     1  0.0000000  1.0460000  1
   1904   1903   1915   3898     1  0.0000000  0.0000000  3
   1904   1903   1915   1916     1  0.0000000  0.6508444  3
   1904   1903   1915   1917     1  0.0000000  0.6508444  3
   1905   1903   1915   3898     1  0.0000000  1.0460000  1
   1905   1903   1915   3898     1  0.0000000  0.0000000  3
   1905   1903   1915   1916     1  0.0000000  0.6508444  3
   1905   1903   1915   1917     1  0.0000000  0.6508444  3
   1906   1894   1890   1919     1  0.0000000  0.6508444  3
   1907   1906   1912   3868     1  0.0000000  1.0460000  1
   1907   1906   1912   3868     1  0.0000000  0.0000000  3
   1907   1906   1912   1913     1  0.0000000  0.6508444  3
   1907   1906   1912   1914     1  0.0000000  0.6508444  3
   1908   1906   1912   3868     1  0.0000000  1.0460000  1
   1908   1906   1912   3868     1  0.0000000  0.0000000  3
   1908   1906   1912   1913     1  0.0000000  0.6508444  3
   1908   1906   1912   1914     1  0.0000000  0.6508444  3
   1912   3868   3859   3860     1  0.0000000  1.6038667  3
   1912   3868   3859   3861     1  0.0000000  1.6038667  3
   1913   1912   3868   3859     1  0.0000000  1.6038667  3
   1914   1912   3868   3859     1  0.0000000  1.6038667  3
   1915   3898   3889   3890     1  0.0000000  1.6038667  3
   1915   3898   3889   3891     1  0.0000000  1.6038667  3
   1916   1915   3898   3889     1  0.0000000  1.6038667  3
   1917   1915   3898   3889     1  0.0000000  1.6038667  3
   1920   1921   1933   1934     1  0.0000000  0.6508444  3
   1920   1921   1933   1935     1  0.0000000  0.6508444  3
   1920   1924   1936   1937     1  0.0000000  0.6508444  3
   1920   1924   1936   1938     1  0.0000000  0.6508444  3
   1920   1927   1930   1931     1  0.0000000  0.6508444  3
   1920   1927   1930   1932     1  0.0000000  0.6508444  3
   1921   1920   1924   1925     1  0.0000000  0.6508444  3
   1921   1920   1924   1926     1  0.0000000  0.6508444  3
   1921   1920   1927   1928     1  0.0000000  0.6508444  3
   1921   1920   1927   1929     1  0.0000000  0.6508444  3
   1921   1933   1945   1946     1  0.0000000  0.6508444  3
   1921   1933   1945   1947     1  0.0000000  0.6508444  3
   1922   1921   1920   1924     1  0.0000000  0.6508444  3
   1922   1921   1920   1927     1  0.0000000  0.6508444  3
   1922   1921   1920   1949     1  0.0000000  0.6508444  3
   1922   1921   1933   1945     1  0.0000000  0.6508444  3
   1922   1921   1933   1934     1  0.0000000  0.6508444  3
   1922   1921   1933   1935     1  0.0000000  0.6508444  3
   1923   1921   1920   1924     1  0.0000000  0.6508444  3
   1923   1921   1920   1927     1  0.0000000  0.6508444  3
   1923   1921   1920   1949     1  0.0000000  0.6508444  3
   1923   1921   1933   1945     1  0.0000000  0.6508444  3
   1923   1921   1933   1934     1  0.0000000  0.6508444  3
   1923   1921   1933   1935     1  0.0000000  0.6508444  3
   1924   1920   1927   1928     1  0.0000000  0.6508444  3
   1924   1920   1927   1929     1  0.0000000  0.6508444  3
   1924   1936   1942   1943     1  0.0000000  0.6508444  3
   1924   1936   1942   1944     1  0.0000000  0.6508444  3
   1925   1924   1920   1927     1  0.0000000  0.6508444  3
   1925   1924   1920   1949     1  0.0000000  0.6508444  3
   1925   1924   1936   1942     1  0.0000000  0.6508444  3
   1925   1924   1936   1937     1  0.0000000  0.6508444  3
   1925   1924   1936   1938     1  0.0000000  0.6508444  3
   1926   1924   1920   1927     1  0.0000000  0.6508444  3
   1926   1924   1920   1949     1  0.0000000  0.6508444  3
   1926   1924   1936   1942     1  0.0000000  0.6508444  3
   1926   1924   1936   1937     1  0.0000000  0.6508444  3
   1926   1924   1936   1938     1  0.0000000  0.6508444  3
   1927   1930   1939   1940     1  0.0000000  0.6508444  3
   1927   1930   1939   1941     1  0.0000000  0.6508444  3
   1928   1927   1920   1949     1  0.0000000  0.6508444  3
   1928   1927   1930   1939     1  0.0000000  0.6508444  3
   1928   1927   1930   1931     1  0.0000000  0.6508444  3
   1928   1927   1930   1932     1  0.0000000  0.6508444  3
   1929   1927   1920   1949     1  0.0000000  0.6508444  3
   1929   1927   1930   1939     1  0.0000000  0.6508444  3
   1929   1927   1930   1931     1  0.0000000  0.6508444  3
   1929   1927   1930   1932     1  0.0000000  0.6508444  3
   1930   1927   1920   1949     1  0.0000000  0.6508444  3
   1931   1930   1939   1948     1  0.0000000  1.0460000  1
   1931   1930   1939   1948     1  0.0000000  0.0000000  3
   1931   1930   1939   1940     1  0.0000000  0.6508444  3
   1931   1930   1939   1941     1  0.0000000  0.6508444  3
   1932   1930   1939   1948     1  0.0000000  1.0460000  1
   1932   1930   1939   1948     1  0.0000000  0.0000000  3
   1932   1930   1939   1940     1  0.0000000  0.6508444  3
   1932   1930   1939   1941     1  0.0000000  0.6508444  3
   1933   1921   1920   1949     1  0.0000000  0.6508444  3
   1934   1933   1945   3958     1  0.0000000  1.0460000  1
   1934   1933   1945   3958     1  0.0000000  0.0000000  3
   1934   1933   1945   1946     1  0.0000000  0.6508444  3
   1934   1933   1945   1947     1  0.0000000  0.6508444  3
   1935   1933   1945   3958     1  0.0000000  1.0460000  1
   1935   1933   1945   3958     1  0.0000000  0.0000000  3
   1935   1933   1945   1946     1  0.0000000  0.6508444  3
   1935   1933   1945   1947     1  0.0000000  0.6508444  3
   1936   1924   1920   1949     1  0.0000000  0.6508444  3
   1937   1936   1942   3928     1  0.0000000  1.0460000  1
   1937   1936   1942   3928     1  0.0000000  0.0000000  3
   1937   1936   1942   1943     1  0.0000000  0.6508444  3
   1937   1936   1942   1944     1  0.0000000  0.6508444  3
   1938   1936   1942   3928     1  0.0000000  1.0460000  1
   1938   1936   1942   3928     1  0.0000000  0.0000000  3
   1938   1936   1942   1943     1  0.0000000  0.6508444  3
   1938   1936   1942   1944     1  0.0000000  0.6508444  3
   1942   3928   3919   3920     1  0.0000000  1.6038667  3
   1942   3928   3919   3921     1  0.0000000  1.6038667  3
   1943   1942   3928   3919     1  0.0000000  1.6038667  3
   1944   1942   3928   3919     1  0.0000000  1.6038667  3
   1945   3958   3949   3950     1  0.0000000  1.6038667  3
   1945   3958   3949   3951     1  0.0000000  1.6038667  3
   1946   1945   3958   3949     1  0.0000000  1.6038667  3
   1947   1945   3958   3949     1  0.0000000  1.6038667  3
   1950   1951   1963   1964     1  0.0000000  0.6508444  3
   1950   1951   1963   1965     1  0.0000000  0.6508444  3
   1950   1954   1966   1967     1  0.0000000  0.6508444  3
   1950   1954   1966   1968     1  0.0000000  0.6508444  3
   1950   1957   1960   1961     1  0.0000000  0.6508444  3
   1950   1957   1960   1962     1  0.0000000  0.6508444  3
   1951   1950   1954   1955     1  0.0000000  0.6508444  3
   1951   1950   1954   1956     1  0.0000000  0.6508444  3
   1951   1950   1957   1958     1  0.0000000  0.6508444  3
   1951   1950   1957   1959     1  0.0000000  0.6508444  3
   1951   1963   1975   1976     1  0.0000000  0.6508444  3
   1951   1963   1975   1977     1  0.0000000  0.6508444  3
   1952   1951   1950   1954     1  0.0000000  0.6508444  3
   1952   1951   1950   1957     1  0.0000000  0.6508444  3
   1952   1951   1950   1979     1  0.0000000  0.6508444  3
   1952   1951   1963   1975     1  0.0000000  0.6508444  3
   1952   1951   1963   1964     1  0.0000000  0.6508444  3
   1952   1951   1963   1965     1  0.0000000  0.6508444  3
   1953   1951   1950   1954     1  0.0000000  0.6508444  3
   1953   1951   1950   1957     1  0.0000000  0.6508444  3
   1953   1951   1950   1979     1  0.0000000  0.6508444  3
   1953   1951   1963   1975     1  0.0000000  0.6508444  3
   1953   1951   1963   1964     1  0.0000000  0.6508444  3
   1953   1951   1963   1965     1  0.0000000  0.6508444  3
   1954   1950   1957   1958     1  0.0000000  0.6508444  3
   1954   1950   1957   1959     1  0.0000000  0.6508444  3
   1954   1966   1972   1973     1  0.0000000  0.6508444  3
   1954   1966   1972   1974     1  0.0000000  0.6508444  3
   1955   1954   1950   1957     1  0.0000000  0.6508444  3
   1955   1954   1950   1979     1  0.0000000  0.6508444  3
   1955   1954   1966   1972     1  0.0000000  0.6508444  3
   1955   1954   1966   1967     1  0.0000000  0.6508444  3
   1955   1954   1966   1968     1  0.0000000  0.6508444  3
   1956   1954   1950   1957     1  0.0000000  0.6508444  3
   1956   1954   1950   1979     1  0.0000000  0.6508444  3
   1956   1954   1966   1972     1  0.0000000  0.6508444  3
   1956   1954   1966   1967     1  0.0000000  0.6508444  3
   1956   1954   1966   1968     1  0.0000000  0.6508444  3
   1957   1960   1969   1970     1  0.0000000  0.6508444  3
   1957   1960   1969   1971     1  0.0000000  0.6508444  3
   1958   1957   1950   1979     1  0.0000000  0.6508444  3
   1958   1957   1960   1969     1  0.0000000  0.6508444  3
   1958   1957   1960   1961     1  0.0000000  0.6508444  3
   1958   1957   1960   1962     1  0.0000000  0.6508444  3
   1959   1957   1950   1979     1  0.0000000  0.6508444  3
   1959   1957   1960   1969     1  0.0000000  0.6508444  3
   1959   1957   1960   1961     1  0.0000000  0.6508444  3
   1959   1957   1960   1962     1  0.0000000  0.6508444  3
   1960   1957   1950   1979     1  0.0000000  0.6508444  3
   1961   1960   1969   1978     1  0.0000000  1.0460000  1
   1961   1960   1969   1978     1  0.0000000  0.0000000  3
   1961   1960   1969   1970     1  0.0000000  0.6508444  3
   1961   1960   1969   1971     1  0.0000000  0.6508444  3
   1962   1960   1969   1978     1  0.0000000  1.0460000  1
   1962   1960   1969   1978     1  0.0000000  0.0000000  3
   1962   1960   1969   1970     1  0.0000000  0.6508444  3
   1962   1960   1969   1971     1  0.0000000  0.6508444  3
   1963   1951   1950   1979     1  0.0000000  0.6508444  3
   1964   1963   1975   4018     1  0.0000000  1.0460000  1
   1964   1963   1975   4018     1  0.0000000  0.0000000  3
   1964   1963   1975   1976     1  0.0000000  0.6508444  3
   1964   1963   1975   1977     1  0.0000000  0.6508444  3
   1965   1963   1975   4018     1  0.0000000  1.0460000  1
   1965   1963   1975   4018     1  0.0000000  0.0000000  3
   1965   1963   1975   1976     1  0.0000000  0.6508444  3
   1965   1963   1975   1977     1  0.0000000  0.6508444  3
   1966   1954   1950   1979     1  0.0000000  0.6508444  3
   1967   1966   1972   3988     1  0.0000000  1.0460000  1
   1967   1966   1972   3988     1  0.0000000  0.0000000  3
   1967   1966   1972   1973     1  0.0000000  0.6508444  3
   1967   1966   1972   1974     1  0.0000000  0.6508444  3
   1968   1966   1972   3988     1  0.0000000  1.0460000  1
   1968   1966   1972   3988     1  0.0000000  0.0000000  3
   1968   1966   1972   1973     1  0.0000000  0.6508444  3
   1968   1966   1972   1974     1  0.0000000  0.6508444  3
   1972   3988   3979   3980     1  0.0000000  1.6038667  3
   1972   3988   3979   3981     1  0.0000000  1.6038667  3
   1973   1972   3988   3979     1  0.0000000  1.6038667  3
   1974   1972   3988   3979     1  0.0000000  1.6038667  3
   1975   4018   4009   4010     1  0.0000000  1.6038667  3
   1975   4018   4009   4011     1  0.0000000  1.6038667  3
   1976   1975   4018   4009     1  0.0000000  1.6038667  3
   1977   1975   4018   4009     1  0.0000000  1.6038667  3
   1980   1981   1993   1994     1  0.0000000  0.6508444  3
   1980   1981   1993   1995     1  0.0000000  0.6508444  3
   1980   1984   1996   1997     1  0.0000000  0.6508444  3
   1980   1984   1996   1998     1  0.0000000  0.6508444  3
   1980   1987   1990   1991     1  0.0000000  0.6508444  3
   1980   1987   1990   1992     1  0.0000000  0.6508444  3
   1981   1980   1984   1985     1  0.0000000  0.6508444  3
   1981   1980   1984   1986     1  0.0000000  0.6508444  3
   1981   1980   1987   1988     1  0.0000000  0.6508444  3
   1981   1980   1987   1989     1  0.0000000  0.6508444  3
   1981   1993   2005   2006     1  0.0000000  0.6508444  3
   1981   1993   2005   2007     1  0.0000000  0.6508444  3
   1982   1981   1980   1984     1  0.0000000  0.6508444  3
   1982   1981   1980   1987     1  0.0000000  0.6508444  3
   1982   1981   1980   2009     1  0.0000000  0.6508444  3
   1982   1981   1993   2005     1  0.0000000  0.6508444  3
   1982   1981   1993   1994     1  0.0000000  0.6508444  3
   1982   1981   1993   1995     1  0.0000000  0.6508444  3
   1983   1981   1980   1984     1  0.0000000  0.6508444  3
   1983   1981   1980   1987     1  0.0000000  0.6508444  3
   1983   1981   1980   2009     1  0.0000000  0.6508444  3
   1983   1981   1993   2005     1  0.0000000  0.6508444  3
   1983   1981   1993   1994     1  0.0000000  0.6508444  3
   1983   1981   1993   1995     1  0.0000000  0.6508444  3
   1984   1980   1987   1988     1  0.0000000  0.6508444  3
   1984   1980   1987   1989     1  0.0000000  0.6508444  3
   1984   1996   2002   2003     1  0.0000000  0.6508444  3
   1984   1996   2002   2004     1  0.0000000  0.6508444  3
   1985   1984   1980   1987     1  0.0000000  0.6508444  3
   1985   1984   1980   2009     1  0.0000000  0.6508444  3
   1985   1984   1996   2002     1  0.0000000  0.6508444  3
   1985   1984   1996   1997     1  0.0000000  0.6508444  3
   1985   1984   1996   1998     1  0.0000000  0.6508444  3
   1986   1984   1980   1987     1  0.0000000  0.6508444  3
   1986   1984   1980   2009     1  0.0000000  0.6508444  3
   1986   1984   1996   2002     1  0.0000000  0.6508444  3
   1986   1984   1996   1997     1  0.0000000  0.6508444  3
   1986   1984   1996   1998     1  0.0000000  0.6508444  3
   1987   1990   1999   2000     1  0.0000000  0.6508444  3
   1987   1990   1999   2001     1  0.0000000  0.6508444  3
   1988   1987   1980   2009     1  0.0000000  0.6508444  3
   1988   1987   1990   1999     1  0.0000000  0.6508444  3
   1988   1987   1990   1991     1  0.0000000  0.6508444  3
   1988   1987   1990   1992     1  0.0000000  0.6508444  3
   1989   1987   1980   2009     1  0.0000000  0.6508444  3
   1989   1987   1990   1999     1  0.0000000  0.6508444  3
   1989   1987   1990   1991     1  0.0000000  0.6508444  3
   1989   1987   1990   1992     1  0.0000000  0.6508444  3
   1990   1987   1980   2009     1  0.0000000  0.6508444  3
   1991   1990   1999   2008     1  0.0000000  1.0460000  1
   1991   1990   1999   2008     1  0.0000000  0.0000000  3
   1991   1990   1999   2000     1  0.0000000  0.6508444  3
   1991   1990   1999   2001     1  0.0000000  0.6508444  3
   1992   1990   1999   2008     1  0.0000000  1.0460000  1
   1992   1990   1999   2008     1  0.0000000  0.0000000  3
   1992   1990   1999   2000     1  0.0000000  0.6508444  3
   1992   1990   1999   2001     1  0.0000000  0.6508444  3
   1993   1981   1980   2009     1  0.0000000  0.6508444  3
   1994   1993   2005   4078     1  0.0000000  1.0460000  1
   1994   1993   2005   4078     1  0.0000000  0.0000000  3
   1994   1993   2005   2006     1  0.0000000  0.6508444  3
   1994   1993   2005   2007     1  0.0000000  0.6508444  3
   1995   1993   2005   4078     1  0.0000000  1.0460000  1
   1995   1993   2005   4078     1  0.0000000  0.0000000  3
   1995   1993   2005   2006     1  0.0000000  0.6508444  3
   1995   1993   2005   2007     1  0.0000000  0.6508444  3
   1996   1984   1980   2009     1  0.0000000  0.6508444  3
   1997   1996   2002   4048     1  0.0000000  1.0460000  1
   1997   1996   2002   4048     1  0.0000000  0.0000000  3
   1997   1996   2002   2003     1  0.0000000  0.6508444  3
   1997   1996   2002   2004     1  0.0000000  0.6508444  3
   1998   1996   2002   4048     1  0.0000000  1.0460000  1
   1998   1996   2002   4048     1  0.0000000  0.0000000  3
   1998   1996   2002   2003     1  0.0000000  0.6508444  3
   1998   1996   2002   2004     1  0.0000000  0.6508444  3
   2002   4048   4039   4040     1  0.0000000  1.6038667  3
   2002   4048   4039   4041     1  0.0000000  1.6038667  3
   2003   2002   4048   4039     1  0.0000000  1.6038667  3
   2004   2002   4048   4039     1  0.0000000  1.6038667  3
   2005   4078   4069   4070     1  0.0000000  1.6038667  3
   2005   4078   4069   4071     1  0.0000000  1.6038667  3
   2006   2005   4078   4069     1  0.0000000  1.6038667  3
   2007   2005   4078   4069     1  0.0000000  1.6038667  3
   2010   2011   2023   2024     1  0.0000000  0.6508444  3
   2010   2011   2023   2025     1  0.0000000  0.6508444  3
   2010   2014   2026   2027     1  0.0000000  0.6508444  3
   2010   2014   2026   2028     1  0.0000000  0.6508444  3
   2010   2017   2020   2021     1  0.0000000  0.6508444  3
   2010   2017   2020   2022     1  0.0000000  0.6508444  3
   2011   2010   2014   2015     1  0.0000000  0.6508444  3
   2011   2010   2014   2016     1  0.0000000  0.6508444  3
   2011   2010   2017   2018     1  0.0000000  0.6508444  3
   2011   2010   2017   2019     1  0.0000000  0.6508444  3
   2011   2023   2035   2036     1  0.0000000  0.6508444  3
   2011   2023   2035   2037     1  0.0000000  0.6508444  3
   2012   2011   2010   2014     1  0.0000000  0.6508444  3
   2012   2011   2010   2017     1  0.0000000  0.6508444  3
   2012   2011   2010   2039     1  0.0000000  0.6508444  3
   2012   2011   2023   2035     1  0.0000000  0.6508444  3
   2012   2011   2023   2024     1  0.0000000  0.6508444  3
   2012   2011   2023   2025     1  0.0000000  0.6508444  3
   2013   2011   2010   2014     1  0.0000000  0.6508444  3
   2013   2011   2010   2017     1  0.0000000  0.6508444  3
   2013   2011   2010   2039     1  0.0000000  0.6508444  3
   2013   2011   2023   2035     1  0.0000000  0.6508444  3
   2013   2011   2023   2024     1  0.0000000  0.6508444  3
   2013   2011   2023   2025     1  0.0000000  0.6508444  3
   2014   2010   2017   2018     1  0.0000000  0.6508444  3
   2014   2010   2017   2019     1  0.0000000  0.6508444  3
   2014   2026   2032   2033     1  0.0000000  0.6508444  3
   2014   2026   2032   2034     1  0.0000000  0.6508444  3
   2015   2014   2010   2017     1  0.0000000  0.6508444  3
   2015   2014   2010   2039     1  0.0000000  0.6508444  3
   2015   2014   2026   2032     1  0.0000000  0.6508444  3
   2015   2014   2026   2027     1  0.0000000  0.6508444  3
   2015   2014   2026   2028     1  0.0000000  0.6508444  3
   2016   2014   2010   2017     1  0.0000000  0.6508444  3
   2016   2014   2010   2039     1  0.0000000  0.6508444  3
   2016   2014   2026   2032     1  0.0000000  0.6508444  3
   2016   2014   2026   2027     1  0.0000000  0.6508444  3
   2016   2014   2026   2028     1  0.0000000  0.6508444  3
   2017   2020   2029   2030     1  0.0000000  0.6508444  3
   2017   2020   2029   2031     1  0.0000000  0.6508444  3
   2018   2017   2010   2039     1  0.0000000  0.6508444  3
   2018   2017   2020   2029     1  0.0000000  0.6508444  3
   2018   2017   2020   2021     1  0.0000000  0.6508444  3
   2018   2017   2020   2022     1  0.0000000  0.6508444  3
   2019   2017   2010   2039     1  0.0000000  0.6508444  3
   2019   2017   2020   2029     1  0.0000000  0.6508444  3
   2019   2017   2020   2021     1  0.0000000  0.6508444  3
   2019   2017   2020   2022     1  0.0000000  0.6508444  3
   2020   2017   2010   2039     1  0.0000000  0.6508444  3
   2021   2020   2029   2038     1  0.0000000  1.0460000  1
   2021   2020   2029   2038     1  0.0000000  0.0000000  3
   2021   2020   2029   2030     1  0.0000000  0.6508444  3
   2021   2020   2029   2031     1  0.0000000  0.6508444  3
   2022   2020   2029   2038     1  0.0000000  1.0460000  1
   2022   2020   2029   2038     1  0.0000000  0.0000000  3
   2022   2020   2029   2030     1  0.0000000  0.6508444  3
   2022   2020   2029   2031     1  0.0000000  0.6508444  3
   2023   2011   2010   2039     1  0.0000000  0.6508444  3
   2024   2023   2035   4138     1  0.0000000  1.0460000  1
   2024   2023   2035   4138     1  0.0000000  0.0000000  3
   2024   2023   2035   2036     1  0.0000000  0.6508444  3
   2024   2023   2035   2037     1  0.0000000  0.6508444  3
   2025   2023   2035   4138     1  0.0000000  1.0460000  1
   2025   2023   2035   4138     1  0.0000000  0.0000000  3
   2025   2023   2035   2036     1  0.0000000  0.6508444  3
   2025   2023   2035   2037     1  0.0000000  0.6508444  3
   2026   2014   2010   2039     1  0.0000000  0.6508444  3
   2027   2026   2032   4108     1  0.0000000  1.0460000  1
   2027   2026   2032   4108     1  0.0000000  0.0000000  3
   2027   2026   2032   2033     1  0.0000000  0.6508444  3
   2027   2026   2032   2034     1  0.0000000  0.6508444  3
   2028   2026   2032   4108     1  0.0000000  1.0460000  1
   2028   2026   2032   4108     1  0.0000000  0.0000000  3
   2028   2026   2032   2033     1  0.0000000  0.6508444  3
   2028   2026   2032   2034     1  0.0000000  0.6508444  3
   2032   4108   4099   4100     1  0.0000000  1.6038667  3
   2032   4108   4099   4101     1  0.0000000  1.6038667  3
   2033   2032   4108   4099     1  0.0000000  1.6038667  3
   2034   2032   4108   4099     1  0.0000000  1.6038667  3
   2035   4138   4129   4130     1  0.0000000  1.6038667  3
   2035   4138   4129   4131     1  0.0000000  1.6038667  3
   2036   2035   4138   4129     1  0.0000000  1.6038667  3
   2037   2035   4138   4129     1  0.0000000  1.6038667  3
   2040   2041   2053   2054     1  0.0000000  0.6508444  3
   2040   2041   2053   2055     1  0.0000000  0.6508444  3
   2040   2044   2056   2057     1  0.0000000  0.6508444  3
   2040   2044   2056   2058     1  0.0000000  0.6508444  3
   2040   2047   2050   2051     1  0.0000000  0.6508444  3
   2040   2047   2050   2052     1  0.0000000  0.6508444  3
   2041   2040   2044   2045     1  0.0000000  0.6508444  3
   2041   2040   2044   2046     1  0.0000000  0.6508444  3
   2041   2040   2047   2048     1  0.0000000  0.6508444  3
   2041   2040   2047   2049     1  0.0000000  0.6508444  3
   2041   2053   2065   2066     1  0.0000000  0.6508444  3
   2041   2053   2065   2067     1  0.0000000  0.6508444  3
   2042   2041   2040   2044     1  0.0000000  0.6508444  3
   2042   2041   2040   2047     1  0.0000000  0.6508444  3
   2042   2041   2040   2069     1  0.0000000  0.6508444  3
   2042   2041   2053   2065     1  0.0000000  0.6508444  3
   2042   2041   2053   2054     1  0.0000000  0.6508444  3
   2042   2041   2053   2055     1  0.0000000  0.6508444  3
   2043   2041   2040   2044     1  0.0000000  0.6508444  3
   2043   2041   2040   2047     1  0.0000000  0.6508444  3
   2043   2041   2040   2069     1  0.0000000  0.6508444  3
   2043   2041   2053   2065     1  0.0000000  0.6508444  3
   2043   2041   2053   2054     1  0.0000000  0.6508444  3
   2043   2041   2053   2055     1  0.0000000  0.6508444  3
   2044   2040   2047   2048     1  0.0000000  0.6508444  3
   2044   2040   2047   2049     1  0.0000000  0.6508444  3
   2044   2056   2062   2063     1  0.0000000  0.6508444  3
   2044   2056   2062   2064     1  0.0000000  0.6508444  3
   2045   2044   2040   2047     1  0.0000000  0.6508444  3
   2045   2044   2040   2069     1  0.0000000  0.6508444  3
   2045   2044   2056   2062     1  0.0000000  0.6508444  3
   2045   2044   2056   2057     1  0.0000000  0.6508444  3
   2045   2044   2056   2058     1  0.0000000  0.6508444  3
   2046   2044   2040   2047     1  0.0000000  0.6508444  3
   2046   2044   2040   2069     1  0.0000000  0.6508444  3
   2046   2044   2056   2062     1  0.0000000  0.6508444  3
   2046   2044   2056   2057     1  0.0000000  0.6508444  3
   2046   2044   2056   2058     1  0.0000000  0.6508444  3
   2047   2050   2059   2060     1  0.0000000  0.6508444  3
   2047   2050   2059   2061     1  0.0000000  0.6508444  3
   2048   2047   2040   2069     1  0.0000000  0.6508444  3
   2048   2047   2050   2059     1  0.0000000  0.6508444  3
   2048   2047   2050   2051     1  0.0000000  0.6508444  3
   2048   2047   2050   2052     1  0.0000000  0.6508444  3
   2049   2047   2040   2069     1  0.0000000  0.6508444  3
   2049   2047   2050   2059     1  0.0000000  0.6508444  3
   2049   2047   2050   2051     1  0.0000000  0.6508444  3
   2049   2047   2050   2052     1  0.0000000  0.6508444  3
   2050   2047   2040   2069     1  0.0000000  0.6508444  3
   2051   2050   2059   2068     1  0.0000000  1.0460000  1
   2051   2050   2059   2068     1  0.0000000  0.0000000  3
   2051   2050   2059   2060     1  0.0000000  0.6508444  3
   2051   2050   2059   2061     1  0.0000000  0.6508444  3
   2052   2050   2059   2068     1  0.0000000  1.0460000  1
   2052   2050   2059   2068     1  0.0000000  0.0000000  3
   2052   2050   2059   2060     1  0.0000000  0.6508444  3
   2052   2050   2059   2061     1  0.0000000  0.6508444  3
   2053   2041   2040   2069     1  0.0000000  0.6508444  3
   2054   2053   2065   4198     1  0.0000000  1.0460000  1
   2054   2053   2065   4198     1  0.0000000  0.0000000  3
   2054   2053   2065   2066     1  0.0000000  0.6508444  3
   2054   2053   2065   2067     1  0.0000000  0.6508444  3
   2055   2053   2065   4198     1  0.0000000  1.0460000  1
   2055   2053   2065   4198     1  0.0000000  0.0000000  3
   2055   2053   2065   2066     1  0.0000000  0.6508444  3
   2055   2053   2065   2067     1  0.0000000  0.6508444  3
   2056   2044   2040   2069     1  0.0000000  0.6508444  3
   2057   2056   2062   4168     1  0.0000000  1.0460000  1
   2057   2056   2062   4168     1  0.0000000  0.0000000  3
   2057   2056   2062   2063     1  0.0000000  0.6508444  3
   2057   2056   2062   2064     1  0.0000000  0.6508444  3
   2058   2056   2062   4168     1  0.0000000  1.0460000  1
   2058   2056   2062   4168     1  0.0000000  0.0000000  3
   2058   2056   2062   2063     1  0.0000000  0.6508444  3
   2058   2056   2062   2064     1  0.0000000  0.6508444  3
   2062   4168   4159   4160     1  0.0000000  1.6038667  3
   2062   4168   4159   4161     1  0.0000000  1.6038667  3
   2063   2062   4168   4159     1  0.0000000  1.6038667  3
   2064   2062   4168   4159     1  0.0000000  1.6038667  3
   2065   4198   4189   4190     1  0.0000000  1.6038667  3
   2065   4198   4189   4191     1  0.0000000  1.6038667  3
   2066   2065   4198   4189     1  0.0000000  1.6038667  3
   2067   2065   4198   4189     1  0.0000000  1.6038667  3
   2070   2071   2083   2084     1  0.0000000  0.6508444  3
   2070   2071   2083   2085     1  0.0000000  0.6508444  3
   2070   2074   2086   2087     1  0.0000000  0.6508444  3
   2070   2074   2086   2088     1  0.0000000  0.6508444  3
   2070   2077   2080   2081     1  0.0000000  0.6508444  3
   2070   2077   2080   2082     1  0.0000000  0.6508444  3
   2071   2070   2074   2075     1  0.0000000  0.6508444  3
   2071   2070   2074   2076     1  0.0000000  0.6508444  3
   2071   2070   2077   2078     1  0.0000000  0.6508444  3
   2071   2070   2077   2079     1  0.0000000  0.6508444  3
   2071   2083   2095   2096     1  0.0000000  0.6508444  3
   2071   2083   2095   2097     1  0.0000000  0.6508444  3
   2072   2071   2070   2074     1  0.0000000  0.6508444  3
   2072   2071   2070   2077     1  0.0000000  0.6508444  3
   2072   2071   2070   2099     1  0.0000000  0.6508444  3
   2072   2071   2083   2095     1  0.0000000  0.6508444  3
   2072   2071   2083   2084     1  0.0000000  0.6508444  3
   2072   2071   2083   2085     1  0.0000000  0.6508444  3
   2073   2071   2070   2074     1  0.0000000  0.6508444  3
   2073   2071   2070   2077     1  0.0000000  0.6508444  3
   2073   2071   2070   2099     1  0.0000000  0.6508444  3
   2073   2071   2083   2095     1  0.0000000  0.6508444  3
   2073   2071   2083   2084     1  0.0000000  0.6508444  3
   2073   2071   2083   2085     1  0.0000000  0.6508444  3
   2074   2070   2077   2078     1  0.0000000  0.6508444  3
   2074   2070   2077   2079     1  0.0000000  0.6508444  3
   2074   2086   2092   2093     1  0.0000000  0.6508444  3
   2074   2086   2092   2094     1  0.0000000  0.6508444  3
   2075   2074   2070   2077     1  0.0000000  0.6508444  3
   2075   2074   2070   2099     1  0.0000000  0.6508444  3
   2075   2074   2086   2092     1  0.0000000  0.6508444  3
   2075   2074   2086   2087     1  0.0000000  0.6508444  3
   2075   2074   2086   2088     1  0.0000000  0.6508444  3
   2076   2074   2070   2077     1  0.0000000  0.6508444  3
   2076   2074   2070   2099     1  0.0000000  0.6508444  3
   2076   2074   2086   2092     1  0.0000000  0.6508444  3
   2076   2074   2086   2087     1  0.0000000  0.6508444  3
   2076   2074   2086   2088     1  0.0000000  0.6508444  3
   2077   2080   2089   2090     1  0.0000000  0.6508444  3
   2077   2080   2089   2091     1  0.0000000  0.6508444  3
   2078   2077   2070   2099     1  0.0000000  0.6508444  3
   2078   2077   2080   2089     1  0.0000000  0.6508444  3
   2078   2077   2080   2081     1  0.0000000  0.6508444  3
   2078   2077   2080   2082     1  0.0000000  0.6508444  3
   2079   2077   2070   2099     1  0.0000000  0.6508444  3
   2079   2077   2080   2089     1  0.0000000  0.6508444  3
   2079   2077   2080   2081     1  0.0000000  0.6508444  3
   2079   2077   2080   2082     1  0.0000000  0.6508444  3
   2080   2077   2070   2099     1  0.0000000  0.6508444  3
   2081   2080   2089   2098     1  0.0000000  1.0460000  1
   2081   2080   2089   2098     1  0.0000000  0.0000000  3
   2081   2080   2089   2090     1  0.0000000  0.6508444  3
   2081   2080   2089   2091     1  0.0000000  0.6508444  3
   2082   2080   2089   2098     1  0.0000000  1.0460000  1
   2082   2080   2089   2098     1  0.0000000  0.0000000  3
   2082   2080   2089   2090     1  0.0000000  0.6508444  3
   2082   2080   2089   2091     1  0.0000000  0.6508444  3
   2083   2071   2070   2099     1  0.0000000  0.6508444  3
   2084   2083   2095   4258     1  0.0000000  1.0460000  1
   2084   2083   2095   4258     1  0.0000000  0.0000000  3
   2084   2083   2095   2096     1  0.0000000  0.6508444  3
   2084   2083   2095   2097     1  0.0000000  0.6508444  3
   2085   2083   2095   4258     1  0.0000000  1.0460000  1
   2085   2083   2095   4258     1  0.0000000  0.0000000  3
   2085   2083   2095   2096     1  0.0000000  0.6508444  3
   2085   2083   2095   2097     1  0.0000000  0.6508444  3
   2086   2074   2070   2099     1  0.0000000  0.6508444  3
   2087   2086   2092   4228     1  0.0000000  1.0460000  1
   2087   2086   2092   4228     1  0.0000000  0.0000000  3
   2087   2086   2092   2093     1  0.0000000  0.6508444  3
   2087   2086   2092   2094     1  0.0000000  0.6508444  3
   2088   2086   2092   4228     1  0.0000000  1.0460000  1
   2088   2086   2092   4228     1  0.0000000  0.0000000  3
   2088   2086   2092   2093     1  0.0000000  0.6508444  3
   2088   2086   2092   2094     1  0.0000000  0.6508444  3
   2092   4228   4219   4220     1  0.0000000  1.6038667  3
   2092   4228   4219   4221     1  0.0000000  1.6038667  3
   2093   2092   4228   4219     1  0.0000000  1.6038667  3
   2094   2092   4228   4219     1  0.0000000  1.6038667  3
   2095   4258   4249   4250     1  0.0000000  1.6038667  3
   2095   4258   4249   4251     1  0.0000000  1.6038667  3
   2096   2095   4258   4249     1  0.0000000  1.6038667  3
   2097   2095   4258   4249     1  0.0000000  1.6038667  3
   2100   2101   2113   2114     1  0.0000000  0.6508444  3
   2100   2101   2113   2115     1  0.0000000  0.6508444  3
   2100   2104   2116   2117     1  0.0000000  0.6508444  3
   2100   2104   2116   2118     1  0.0000000  0.6508444  3
   2100   2107   2110   2111     1  0.0000000  0.6508444  3
   2100   2107   2110   2112     1  0.0000000  0.6508444  3
   2101   2100   2104   2105     1  0.0000000  0.6508444  3
   2101   2100   2104   2106     1  0.0000000  0.6508444  3
   2101   2100   2107   2108     1  0.0000000  0.6508444  3
   2101   2100   2107   2109     1  0.0000000  0.6508444  3
   2101   2113   2125   2126     1  0.0000000  0.6508444  3
   2101   2113   2125   2127     1  0.0000000  0.6508444  3
   2102   2101   2100   2104     1  0.0000000  0.6508444  3
   2102   2101   2100   2107     1  0.0000000  0.6508444  3
   2102   2101   2100   2129     1  0.0000000  0.6508444  3
   2102   2101   2113   2125     1  0.0000000  0.6508444  3
   2102   2101   2113   2114     1  0.0000000  0.6508444  3
   2102   2101   2113   2115     1  0.0000000  0.6508444  3
   2103   2101   2100   2104     1  0.0000000  0.6508444  3
   2103   2101   2100   2107     1  0.0000000  0.6508444  3
   2103   2101   2100   2129     1  0.0000000  0.6508444  3
   2103   2101   2113   2125     1  0.0000000  0.6508444  3
   2103   2101   2113   2114     1  0.0000000  0.6508444  3
   2103   2101   2113   2115     1  0.0000000  0.6508444  3
   2104   2100   2107   2108     1  0.0000000  0.6508444  3
   2104   2100   2107   2109     1  0.0000000  0.6508444  3
   2104   2116   2122   2123     1  0.0000000  0.6508444  3
   2104   2116   2122   2124     1  0.0000000  0.6508444  3
   2105   2104   2100   2107     1  0.0000000  0.6508444  3
   2105   2104   2100   2129     1  0.0000000  0.6508444  3
   2105   2104   2116   2122     1  0.0000000  0.6508444  3
   2105   2104   2116   2117     1  0.0000000  0.6508444  3
   2105   2104   2116   2118     1  0.0000000  0.6508444  3
   2106   2104   2100   2107     1  0.0000000  0.6508444  3
   2106   2104   2100   2129     1  0.0000000  0.6508444  3
   2106   2104   2116   2122     1  0.0000000  0.6508444  3
   2106   2104   2116   2117     1  0.0000000  0.6508444  3
   2106   2104   2116   2118     1  0.0000000  0.6508444  3
   2107   2110   2119   2120     1  0.0000000  0.6508444  3
   2107   2110   2119   2121     1  0.0000000  0.6508444  3
   2108   2107   2100   2129     1  0.0000000  0.6508444  3
   2108   2107   2110   2119     1  0.0000000  0.6508444  3
   2108   2107   2110   2111     1  0.0000000  0.6508444  3
   2108   2107   2110   2112     1  0.0000000  0.6508444  3
   2109   2107   2100   2129     1  0.0000000  0.6508444  3
   2109   2107   2110   2119     1  0.0000000  0.6508444  3
   2109   2107   2110   2111     1  0.0000000  0.6508444  3
   2109   2107   2110   2112     1  0.0000000  0.6508444  3
   2110   2107   2100   2129     1  0.0000000  0.6508444  3
   2111   2110   2119   2128     1  0.0000000  1.0460000  1
   2111   2110   2119   2128     1  0.0000000  0.0000000  3
   2111   2110   2119   2120     1  0.0000000  0.6508444  3
   2111   2110   2119   2121     1  0.0000000  0.6508444  3
   2112   2110   2119   2128     1  0.0000000  1.0460000  1
   2112   2110   2119   2128     1  0.0000000  0.0000000  3
   2112   2110   2119   2120     1  0.0000000  0.6508444  3
   2112   2110   2119   2121     1  0.0000000  0.6508444  3
   2113   2101   2100   2129     1  0.0000000  0.6508444  3
   2114   2113   2125   4318     1  0.0000000  1.0460000  1
   2114   2113   2125   4318     1  0.0000000  0.0000000  3
   2114   2113   2125   2126     1  0.0000000  0.6508444  3
   2114   2113   2125   2127     1  0.0000000  0.6508444  3
   2115   2113   2125   4318     1  0.0000000  1.0460000  1
   2115   2113   2125   4318     1  0.0000000  0.0000000  3
   2115   2113   2125   2126     1  0.0000000  0.6508444  3
   2115   2113   2125   2127     1  0.0000000  0.6508444  3
   2116   2104   2100   2129     1  0.0000000  0.6508444  3
   2117   2116   2122   4288     1  0.0000000  1.0460000  1
   2117   2116   2122   4288     1  0.0000000  0.0000000  3
   2117   2116   2122   2123     1  0.0000000  0.6508444  3
   2117   2116   2122   2124     1  0.0000000  0.6508444  3
   2118   2116   2122   4288     1  0.0000000  1.0460000  1
   2118   2116   2122   4288     1  0.0000000  0.0000000  3
   2118   2116   2122   2123     1  0.0000000  0.6508444  3
   2118   2116   2122   2124     1  0.0000000  0.6508444  3
   2122   4288   4279   4280     1  0.0000000  1.6038667  3
   2122   4288   4279   4281     1  0.0000000  1.6038667  3
   2123   2122   4288   4279     1  0.0000000  1.6038667  3
   2124   2122   4288   4279     1  0.0000000  1.6038667  3
   2125   4318   4309   4310     1  0.0000000  1.6038667  3
   2125   4318   4309   4311     1  0.0000000  1.6038667  3
   2126   2125   4318   4309     1  0.0000000  1.6038667  3
   2127   2125   4318   4309     1  0.0000000  1.6038667  3
   2130   2131   2143   2144     1  0.0000000  0.6508444  3
   2130   2131   2143   2145     1  0.0000000  0.6508444  3
   2130   2134   2146   2147     1  0.0000000  0.6508444  3
   2130   2134   2146   2148     1  0.0000000  0.6508444  3
   2130   2137   2140   2141     1  0.0000000  0.6508444  3
   2130   2137   2140   2142     1  0.0000000  0.6508444  3
   2131   2130   2134   2135     1  0.0000000  0.6508444  3
   2131   2130   2134   2136     1  0.0000000  0.6508444  3
   2131   2130   2137   2138     1  0.0000000  0.6508444  3
   2131   2130   2137   2139     1  0.0000000  0.6508444  3
   2131   2143   2155   2156     1  0.0000000  0.6508444  3
   2131   2143   2155   2157     1  0.0000000  0.6508444  3
   2132   2131   2130   2134     1  0.0000000  0.6508444  3
   2132   2131   2130   2137     1  0.0000000  0.6508444  3
   2132   2131   2130   2159     1  0.0000000  0.6508444  3
   2132   2131   2143   2155     1  0.0000000  0.6508444  3
   2132   2131   2143   2144     1  0.0000000  0.6508444  3
   2132   2131   2143   2145     1  0.0000000  0.6508444  3
   2133   2131   2130   2134     1  0.0000000  0.6508444  3
   2133   2131   2130   2137     1  0.0000000  0.6508444  3
   2133   2131   2130   2159     1  0.0000000  0.6508444  3
   2133   2131   2143   2155     1  0.0000000  0.6508444  3
   2133   2131   2143   2144     1  0.0000000  0.6508444  3
   2133   2131   2143   2145     1  0.0000000  0.6508444  3
   2134   2130   2137   2138     1  0.0000000  0.6508444  3
   2134   2130   2137   2139     1  0.0000000  0.6508444  3
   2134   2146   2152   2153     1  0.0000000  0.6508444  3
   2134   2146   2152   2154     1  0.0000000  0.6508444  3
   2135   2134   2130   2137     1  0.0000000  0.6508444  3
   2135   2134   2130   2159     1  0.0000000  0.6508444  3
   2135   2134   2146   2152     1  0.0000000  0.6508444  3
   2135   2134   2146   2147     1  0.0000000  0.6508444  3
   2135   2134   2146   2148     1  0.0000000  0.6508444  3
   2136   2134   2130   2137     1  0.0000000  0.6508444  3
   2136   2134   2130   2159     1  0.0000000  0.6508444  3
   2136   2134   2146   2152     1  0.0000000  0.6508444  3
   2136   2134   2146   2147     1  0.0000000  0.6508444  3
   2136   2134   2146   2148     1  0.0000000  0.6508444  3
   2137   2140   2149   2150     1  0.0000000  0.6508444  3
   2137   2140   2149   2151     1  0.0000000  0.6508444  3
   2138   2137   2130   2159     1  0.0000000  0.6508444  3
   2138   2137   2140   2149     1  0.0000000  0.6508444  3
   2138   2137   2140   2141     1  0.0000000  0.6508444  3
   2138   2137   2140   2142     1  0.0000000  0.6508444  3
   2139   2137   2130   2159     1  0.0000000  0.6508444  3
   2139   2137   2140   2149     1  0.0000000  0.6508444  3
   2139   2137   2140   2141     1  0.0000000  0.6508444  3
   2139   2137   2140   2142     1  0.0000000  0.6508444  3
   2140   2137   2130   2159     1  0.0000000  0.6508444  3
   2141   2140   2149   2158     1  0.0000000  1.0460000  1
   2141   2140   2149   2158     1  0.0000000  0.0000000  3
   2141   2140   2149   2150     1  0.0000000  0.6508444  3
   2141   2140   2149   2151     1  0.0000000  0.6508444  3
   2142   2140   2149   2158     1  0.0000000  1.0460000  1
   2142   2140   2149   2158     1  0.0000000  0.0000000  3
   2142   2140   2149   2150     1  0.0000000  0.6508444  3
   2142   2140   2149   2151     1  0.0000000  0.6508444  3
   2143   2131   2130   2159     1  0.0000000  0.6508444  3
   2144   2143   2155   4378     1  0.0000000  1.0460000  1
   2144   2143   2155   4378     1  0.0000000  0.0000000  3
   2144   2143   2155   2156     1  0.0000000  0.6508444  3
   2144   2143   2155   2157     1  0.0000000  0.6508444  3
   2145   2143   2155   4378     1  0.0000000  1.0460000  1
   2145   2143   2155   4378     1  0.0000000  0.0000000  3
   2145   2143   2155   2156     1  0.0000000  0.6508444  3
   2145   2143   2155   2157     1  0.0000000  0.6508444  3
   2146   2134   2130   2159     1  0.0000000  0.6508444  3
   2147   2146   2152   4348     1  0.0000000  1.0460000  1
   2147   2146   2152   4348     1  0.0000000  0.0000000  3
   2147   2146   2152   2153     1  0.0000000  0.6508444  3
   2147   2146   2152   2154     1  0.0000000  0.6508444  3
   2148   2146   2152   4348     1  0.0000000  1.0460000  1
   2148   2146   2152   4348     1  0.0000000  0.0000000  3
   2148   2146   2152   2153     1  0.0000000  0.6508444  3
   2148   2146   2152   2154     1  0.0000000  0.6508444  3
   2152   4348   4339   4340     1  0.0000000  1.6038667  3
   2152   4348   4339   4341     1  0.0000000  1.6038667  3
   2153   2152   4348   4339     1  0.0000000  1.6038667  3
   2154   2152   4348   4339     1  0.0000000  1.6038667  3
   2155   4378   4369   4370     1  0.0000000  1.6038667  3
   2155   4378   4369   4371     1  0.0000000  1.6038667  3
   2156   2155   4378   4369     1  0.0000000  1.6038667  3
   2157   2155   4378   4369     1  0.0000000  1.6038667  3
   2160   2161   2173   2174     1  0.0000000  0.6508444  3
   2160   2161   2173   2175     1  0.0000000  0.6508444  3
   2160   2164   2176   2177     1  0.0000000  0.6508444  3
   2160   2164   2176   2178     1  0.0000000  0.6508444  3
   2160   2167   2170   2171     1  0.0000000  0.6508444  3
   2160   2167   2170   2172     1  0.0000000  0.6508444  3
   2161   2160   2164   2165     1  0.0000000  0.6508444  3
   2161   2160   2164   2166     1  0.0000000  0.6508444  3
   2161   2160   2167   2168     1  0.0000000  0.6508444  3
   2161   2160   2167   2169     1  0.0000000  0.6508444  3
   2161   2173   2185   2186     1  0.0000000  0.6508444  3
   2161   2173   2185   2187     1  0.0000000  0.6508444  3
   2162   2161   2160   2164     1  0.0000000  0.6508444  3
   2162   2161   2160   2167     1  0.0000000  0.6508444  3
   2162   2161   2160   2189     1  0.0000000  0.6508444  3
   2162   2161   2173   2185     1  0.0000000  0.6508444  3
   2162   2161   2173   2174     1  0.0000000  0.6508444  3
   2162   2161   2173   2175     1  0.0000000  0.6508444  3
   2163   2161   2160   2164     1  0.0000000  0.6508444  3
   2163   2161   2160   2167     1  0.0000000  0.6508444  3
   2163   2161   2160   2189     1  0.0000000  0.6508444  3
   2163   2161   2173   2185     1  0.0000000  0.6508444  3
   2163   2161   2173   2174     1  0.0000000  0.6508444  3
   2163   2161   2173   2175     1  0.0000000  0.6508444  3
   2164   2160   2167   2168     1  0.0000000  0.6508444  3
   2164   2160   2167   2169     1  0.0000000  0.6508444  3
   2164   2176   2182   2183     1  0.0000000  0.6508444  3
   2164   2176   2182   2184     1  0.0000000  0.6508444  3
   2165   2164   2160   2167     1  0.0000000  0.6508444  3
   2165   2164   2160   2189     1  0.0000000  0.6508444  3
   2165   2164   2176   2182     1  0.0000000  0.6508444  3
   2165   2164   2176   2177     1  0.0000000  0.6508444  3
   2165   2164   2176   2178     1  0.0000000  0.6508444  3
   2166   2164   2160   2167     1  0.0000000  0.6508444  3
   2166   2164   2160   2189     1  0.0000000  0.6508444  3
   2166   2164   2176   2182     1  0.0000000  0.6508444  3
   2166   2164   2176   2177     1  0.0000000  0.6508444  3
   2166   2164   2176   2178     1  0.0000000  0.6508444  3
   2167   2170   2179   2180     1  0.0000000  0.6508444  3
   2167   2170   2179   2181     1  0.0000000  0.6508444  3
   2168   2167   2160   2189     1  0.0000000  0.6508444  3
   2168   2167   2170   2179     1  0.0000000  0.6508444  3
   2168   2167   2170   2171     1  0.0000000  0.6508444  3
   2168   2167   2170   2172     1  0.0000000  0.6508444  3
   2169   2167   2160   2189     1  0.0000000  0.6508444  3
   2169   2167   2170   2179     1  0.0000000  0.6508444  3
   2169   2167   2170   2171     1  0.0000000  0.6508444  3
   2169   2167   2170   2172     1  0.0000000  0.6508444  3
   2170   2167   2160   2189     1  0.0000000  0.6508444  3
   2171   2170   2179   2188     1  0.0000000  1.0460000  1
   2171   2170   2179   2188     1  0.0000000  0.0000000  3
   2171   2170   2179   2180     1  0.0000000  0.6508444  3
   2171   2170   2179   2181     1  0.0000000  0.6508444  3
   2172   2170   2179   2188     1  0.0000000  1.0460000  1
   2172   2170   2179   2188     1  0.0000000  0.0000000  3
   2172   2170   2179   2180     1  0.0000000  0.6508444  3
   2172   2170   2179   2181     1  0.0000000  0.6508444  3
   2173   2161   2160   2189     1  0.0000000  0.6508444  3
   2174   2173   2185   4438     1  0.0000000  1.0460000  1
   2174   2173   2185   4438     1  0.0000000  0.0000000  3
   2174   2173   2185   2186     1  0.0000000  0.6508444  3
   2174   2173   2185   2187     1  0.0000000  0.6508444  3
   2175   2173   2185   4438     1  0.0000000  1.0460000  1
   2175   2173   2185   4438     1  0.0000000  0.0000000  3
   2175   2173   2185   2186     1  0.0000000  0.6508444  3
   2175   2173   2185   2187     1  0.0000000  0.6508444  3
   2176   2164   2160   2189     1  0.0000000  0.6508444  3
   2177   2176   2182   4408     1  0.0000000  1.0460000  1
   2177   2176   2182   4408     1  0.0000000  0.0000000  3
   2177   2176   2182   2183     1  0.0000000  0.6508444  3
   2177   2176   2182   2184     1  0.0000000  0.6508444  3
   2178   2176   2182   4408     1  0.0000000  1.0460000  1
   2178   2176   2182   4408     1  0.0000000  0.0000000  3
   2178   2176   2182   2183     1  0.0000000  0.6508444  3
   2178   2176   2182   2184     1  0.0000000  0.6508444  3
   2182   4408   4399   4400     1  0.0000000  1.6038667  3
   2182   4408   4399   4401     1  0.0000000  1.6038667  3
   2183   2182   4408   4399     1  0.0000000  1.6038667  3
   2184   2182   4408   4399     1  0.0000000  1.6038667  3
   2185   4438   4429   4430     1  0.0000000  1.6038667  3
   2185   4438   4429   4431     1  0.0000000  1.6038667  3
   2186   2185   4438   4429     1  0.0000000  1.6038667  3
   2187   2185   4438   4429     1  0.0000000  1.6038667  3
   2190   2191   2203   2204     1  0.0000000  0.6508444  3
   2190   2191   2203   2205     1  0.0000000  0.6508444  3
   2190   2194   2206   2207     1  0.0000000  0.6508444  3
   2190   2194   2206   2208     1  0.0000000  0.6508444  3
   2190   2197   2200   2201     1  0.0000000  0.6508444  3
   2190   2197   2200   2202     1  0.0000000  0.6508444  3
   2191   2190   2194   2195     1  0.0000000  0.6508444  3
   2191   2190   2194   2196     1  0.0000000  0.6508444  3
   2191   2190   2197   2198     1  0.0000000  0.6508444  3
   2191   2190   2197   2199     1  0.0000000  0.6508444  3
   2191   2203   2215   2216     1  0.0000000  0.6508444  3
   2191   2203   2215   2217     1  0.0000000  0.6508444  3
   2192   2191   2190   2194     1  0.0000000  0.6508444  3
   2192   2191   2190   2197     1  0.0000000  0.6508444  3
   2192   2191   2190   2219     1  0.0000000  0.6508444  3
   2192   2191   2203   2215     1  0.0000000  0.6508444  3
   2192   2191   2203   2204     1  0.0000000  0.6508444  3
   2192   2191   2203   2205     1  0.0000000  0.6508444  3
   2193   2191   2190   2194     1  0.0000000  0.6508444  3
   2193   2191   2190   2197     1  0.0000000  0.6508444  3
   2193   2191   2190   2219     1  0.0000000  0.6508444  3
   2193   2191   2203   2215     1  0.0000000  0.6508444  3
   2193   2191   2203   2204     1  0.0000000  0.6508444  3
   2193   2191   2203   2205     1  0.0000000  0.6508444  3
   2194   2190   2197   2198     1  0.0000000  0.6508444  3
   2194   2190   2197   2199     1  0.0000000  0.6508444  3
   2194   2206   2212   2213     1  0.0000000  0.6508444  3
   2194   2206   2212   2214     1  0.0000000  0.6508444  3
   2195   2194   2190   2197     1  0.0000000  0.6508444  3
   2195   2194   2190   2219     1  0.0000000  0.6508444  3
   2195   2194   2206   2212     1  0.0000000  0.6508444  3
   2195   2194   2206   2207     1  0.0000000  0.6508444  3
   2195   2194   2206   2208     1  0.0000000  0.6508444  3
   2196   2194   2190   2197     1  0.0000000  0.6508444  3
   2196   2194   2190   2219     1  0.0000000  0.6508444  3
   2196   2194   2206   2212     1  0.0000000  0.6508444  3
   2196   2194   2206   2207     1  0.0000000  0.6508444  3
   2196   2194   2206   2208     1  0.0000000  0.6508444  3
   2197   2200   2209   2210     1  0.0000000  0.6508444  3
   2197   2200   2209   2211     1  0.0000000  0.6508444  3
   2198   2197   2190   2219     1  0.0000000  0.6508444  3
   2198   2197   2200   2209     1  0.0000000  0.6508444  3
   2198   2197   2200   2201     1  0.0000000  0.6508444  3
   2198   2197   2200   2202     1  0.0000000  0.6508444  3
   2199   2197   2190   2219     1  0.0000000  0.6508444  3
   2199   2197   2200   2209     1  0.0000000  0.6508444  3
   2199   2197   2200   2201     1  0.0000000  0.6508444  3
   2199   2197   2200   2202     1  0.0000000  0.6508444  3
   2200   2197   2190   2219     1  0.0000000  0.6508444  3
   2201   2200   2209   2218     1  0.0000000  1.0460000  1
   2201   2200   2209   2218     1  0.0000000  0.0000000  3
   2201   2200   2209   2210     1  0.0000000  0.6508444  3
   2201   2200   2209   2211     1  0.0000000  0.6508444  3
   2202   2200   2209   2218     1  0.0000000  1.0460000  1
   2202   2200   2209   2218     1  0.0000000  0.0000000  3
   2202   2200   2209   2210     1  0.0000000  0.6508444  3
   2202   2200   2209   2211     1  0.0000000  0.6508444  3
   2203   2191   2190   2219     1  0.0000000  0.6508444  3
   2204   2203   2215   4498     1  0.0000000  1.0460000  1
   2204   2203   2215   4498     1  0.0000000  0.0000000  3
   2204   2203   2215   2216     1  0.0000000  0.6508444  3
   2204   2203   2215   2217     1  0.0000000  0.6508444  3
   2205   2203   2215   4498     1  0.0000000  1.0460000  1
   2205   2203   2215   4498     1  0.0000000  0.0000000  3
   2205   2203   2215   2216     1  0.0000000  0.6508444  3
   2205   2203   2215   2217     1  0.0000000  0.6508444  3
   2206   2194   2190   2219     1  0.0000000  0.6508444  3
   2207   2206   2212   4468     1  0.0000000  1.0460000  1
   2207   2206   2212   4468     1  0.0000000  0.0000000  3
   2207   2206   2212   2213     1  0.0000000  0.6508444  3
   2207   2206   2212   2214     1  0.0000000  0.6508444  3
   2208   2206   2212   4468     1  0.0000000  1.0460000  1
   2208   2206   2212   4468     1  0.0000000  0.0000000  3
   2208   2206   2212   2213     1  0.0000000  0.6508444  3
   2208   2206   2212   2214     1  0.0000000  0.6508444  3
   2212   4468   4459   4460     1  0.0000000  1.6038667  3
   2212   4468   4459   4461     1  0.0000000  1.6038667  3
   2213   2212   4468   4459     1  0.0000000  1.6038667  3
   2214   2212   4468   4459     1  0.0000000  1.6038667  3
   2215   4498   4489   4490     1  0.0000000  1.6038667  3
   2215   4498   4489   4491     1  0.0000000  1.6038667  3
   2216   2215   4498   4489     1  0.0000000  1.6038667  3
   2217   2215   4498   4489     1  0.0000000  1.6038667  3
   2220   2221   2233   2234     1  0.0000000  0.6508444  3
   2220   2221   2233   2235     1  0.0000000  0.6508444  3
   2220   2224   2236   2237     1  0.0000000  0.6508444  3
   2220   2224   2236   2238     1  0.0000000  0.6508444  3
   2220   2227   2230   2231     1  0.0000000  0.6508444  3
   2220   2227   2230   2232     1  0.0000000  0.6508444  3
   2221   2220   2224   2225     1  0.0000000  0.6508444  3
   2221   2220   2224   2226     1  0.0000000  0.6508444  3
   2221   2220   2227   2228     1  0.0000000  0.6508444  3
   2221   2220   2227   2229     1  0.0000000  0.6508444  3
   2221   2233   2245   2246     1  0.0000000  0.6508444  3
   2221   2233   2245   2247     1  0.0000000  0.6508444  3
   2222   2221   2220   2224     1  0.0000000  0.6508444  3
   2222   2221   2220   2227     1  0.0000000  0.6508444  3
   2222   2221   2220   2249     1  0.0000000  0.6508444  3
   2222   2221   2233   2245     1  0.0000000  0.6508444  3
   2222   2221   2233   2234     1  0.0000000  0.6508444  3
   2222   2221   2233   2235     1  0.0000000  0.6508444  3
   2223   2221   2220   2224     1  0.0000000  0.6508444  3
   2223   2221   2220   2227     1  0.0000000  0.6508444  3
   2223   2221   2220   2249     1  0.0000000  0.6508444  3
   2223   2221   2233   2245     1  0.0000000  0.6508444  3
   2223   2221   2233   2234     1  0.0000000  0.6508444  3
   2223   2221   2233   2235     1  0.0000000  0.6508444  3
   2224   2220   2227   2228     1  0.0000000  0.6508444  3
   2224   2220   2227   2229     1  0.0000000  0.6508444  3
   2224   2236   2242   2243     1  0.0000000  0.6508444  3
   2224   2236   2242   2244     1  0.0000000  0.6508444  3
   2225   2224   2220   2227     1  0.0000000  0.6508444  3
   2225   2224   2220   2249     1  0.0000000  0.6508444  3
   2225   2224   2236   2242     1  0.0000000  0.6508444  3
   2225   2224   2236   2237     1  0.0000000  0.6508444  3
   2225   2224   2236   2238     1  0.0000000  0.6508444  3
   2226   2224   2220   2227     1  0.0000000  0.6508444  3
   2226   2224   2220   2249     1  0.0000000  0.6508444  3
   2226   2224   2236   2242     1  0.0000000  0.6508444  3
   2226   2224   2236   2237     1  0.0000000  0.6508444  3
   2226   2224   2236   2238     1  0.0000000  0.6508444  3
   2227   2230   2239   2240     1  0.0000000  0.6508444  3
   2227   2230   2239   2241     1  0.0000000  0.6508444  3
   2228   2227   2220   2249     1  0.0000000  0.6508444  3
   2228   2227   2230   2239     1  0.0000000  0.6508444  3
   2228   2227   2230   2231     1  0.0000000  0.6508444  3
   2228   2227   2230   2232     1  0.0000000  0.6508444  3
   2229   2227   2220   2249     1  0.0000000  0.6508444  3
   2229   2227   2230   2239     1  0.0000000  0.6508444  3
   2229   2227   2230   2231     1  0.0000000  0.6508444  3
   2229   2227   2230   2232     1  0.0000000  0.6508444  3
   2230   2227   2220   2249     1  0.0000000  0.6508444  3
   2231   2230   2239   2248     1  0.0000000  1.0460000  1
   2231   2230   2239   2248     1  0.0000000  0.0000000  3
   2231   2230   2239   2240     1  0.0000000  0.6508444  3
   2231   2230   2239   2241     1  0.0000000  0.6508444  3
   2232   2230   2239   2248     1  0.0000000  1.0460000  1
   2232   2230   2239   2248     1  0.0000000  0.0000000  3
   2232   2230   2239   2240     1  0.0000000  0.6508444  3
   2232   2230   2239   2241     1  0.0000000  0.6508444  3
   2233   2221   2220   2249     1  0.0000000  0.6508444  3
   2234   2233   2245   4558     1  0.0000000  1.0460000  1
   2234   2233   2245   4558     1  0.0000000  0.0000000  3
   2234   2233   2245   2246     1  0.0000000  0.6508444  3
   2234   2233   2245   2247     1  0.0000000  0.6508444  3
   2235   2233   2245   4558     1  0.0000000  1.0460000  1
   2235   2233   2245   4558     1  0.0000000  0.0000000  3
   2235   2233   2245   2246     1  0.0000000  0.6508444  3
   2235   2233   2245   2247     1  0.0000000  0.6508444  3
   2236   2224   2220   2249     1  0.0000000  0.6508444  3
   2237   2236   2242   4528     1  0.0000000  1.0460000  1
   2237   2236   2242   4528     1  0.0000000  0.0000000  3
   2237   2236   2242   2243     1  0.0000000  0.6508444  3
   2237   2236   2242   2244     1  0.0000000  0.6508444  3
   2238   2236   2242   4528     1  0.0000000  1.0460000  1
   2238   2236   2242   4528     1  0.0000000  0.0000000  3
   2238   2236   2242   2243     1  0.0000000  0.6508444  3
   2238   2236   2242   2244     1  0.0000000  0.6508444  3
   2242   4528   4519   4520     1  0.0000000  1.6038667  3
   2242   4528   4519   4521     1  0.0000000  1.6038667  3
   2243   2242   4528   4519     1  0.0000000  1.6038667  3
   2244   2242   4528   4519     1  0.0000000  1.6038667  3
   2245   4558   4549   4550     1  0.0000000  1.6038667  3
   2245   4558   4549   4551     1  0.0000000  1.6038667  3
   2246   2245   4558   4549     1  0.0000000  1.6038667  3
   2247   2245   4558   4549     1  0.0000000  1.6038667  3
   2250   2251   2263   2264     1  0.0000000  0.6508444  3
   2250   2251   2263   2265     1  0.0000000  0.6508444  3
   2250   2254   2266   2267     1  0.0000000  0.6508444  3
   2250   2254   2266   2268     1  0.0000000  0.6508444  3
   2250   2257   2260   2261     1  0.0000000  0.6508444  3
   2250   2257   2260   2262     1  0.0000000  0.6508444  3
   2251   2250   2254   2255     1  0.0000000  0.6508444  3
   2251   2250   2254   2256     1  0.0000000  0.6508444  3
   2251   2250   2257   2258     1  0.0000000  0.6508444  3
   2251   2250   2257   2259     1  0.0000000  0.6508444  3
   2251   2263   2275   2276     1  0.0000000  0.6508444  3
   2251   2263   2275   2277     1  0.0000000  0.6508444  3
   2252   2251   2250   2254     1  0.0000000  0.6508444  3
   2252   2251   2250   2257     1  0.0000000  0.6508444  3
   2252   2251   2250   2279     1  0.0000000  0.6508444  3
   2252   2251   2263   2275     1  0.0000000  0.6508444  3
   2252   2251   2263   2264     1  0.0000000  0.6508444  3
   2252   2251   2263   2265     1  0.0000000  0.6508444  3
   2253   2251   2250   2254     1  0.0000000  0.6508444  3
   2253   2251   2250   2257     1  0.0000000  0.6508444  3
   2253   2251   2250   2279     1  0.0000000  0.6508444  3
   2253   2251   2263   2275     1  0.0000000  0.6508444  3
   2253   2251   2263   2264     1  0.0000000  0.6508444  3
   2253   2251   2263   2265     1  0.0000000  0.6508444  3
   2254   2250   2257   2258     1  0.0000000  0.6508444  3
   2254   2250   2257   2259     1  0.0000000  0.6508444  3
   2254   2266   2272   2273     1  0.0000000  0.6508444  3
   2254   2266   2272   2274     1  0.0000000  0.6508444  3
   2255   2254   2250   2257     1  0.0000000  0.6508444  3
   2255   2254   2250   2279     1  0.0000000  0.6508444  3
   2255   2254   2266   2272     1  0.0000000  0.6508444  3
   2255   2254   2266   2267     1  0.0000000  0.6508444  3
   2255   2254   2266   2268     1  0.0000000  0.6508444  3
   2256   2254   2250   2257     1  0.0000000  0.6508444  3
   2256   2254   2250   2279     1  0.0000000  0.6508444  3
   2256   2254   2266   2272     1  0.0000000  0.6508444  3
   2256   2254   2266   2267     1  0.0000000  0.6508444  3
   2256   2254   2266   2268     1  0.0000000  0.6508444  3
   2257   2260   2269   2270     1  0.0000000  0.6508444  3
   2257   2260   2269   2271     1  0.0000000  0.6508444  3
   2258   2257   2250   2279     1  0.0000000  0.6508444  3
   2258   2257   2260   2269     1  0.0000000  0.6508444  3
   2258   2257   2260   2261     1  0.0000000  0.6508444  3
   2258   2257   2260   2262     1  0.0000000  0.6508444  3
   2259   2257   2250   2279     1  0.0000000  0.6508444  3
   2259   2257   2260   2269     1  0.0000000  0.6508444  3
   2259   2257   2260   2261     1  0.0000000  0.6508444  3
   2259   2257   2260   2262     1  0.0000000  0.6508444  3
   2260   2257   2250   2279     1  0.0000000  0.6508444  3
   2261   2260   2269   2278     1  0.0000000  1.0460000  1
   2261   2260   2269   2278     1  0.0000000  0.0000000  3
   2261   2260   2269   2270     1  0.0000000  0.6508444  3
   2261   2260   2269   2271     1  0.0000000  0.6508444  3
   2262   2260   2269   2278     1  0.0000000  1.0460000  1
   2262   2260   2269   2278     1  0.0000000  0.0000000  3
   2262   2260   2269   2270     1  0.0000000  0.6508444  3
   2262   2260   2269   2271     1  0.0000000  0.6508444  3
   2263   2251   2250   2279     1  0.0000000  0.6508444  3
   2264   2263   2275   4618     1  0.0000000  1.0460000  1
   2264   2263   2275   4618     1  0.0000000  0.0000000  3
   2264   2263   2275   2276     1  0.0000000  0.6508444  3
   2264   2263   2275   2277     1  0.0000000  0.6508444  3
   2265   2263   2275   4618     1  0.0000000  1.0460000  1
   2265   2263   2275   4618     1  0.0000000  0.0000000  3
   2265   2263   2275   2276     1  0.0000000  0.6508444  3
   2265   2263   2275   2277     1  0.0000000  0.6508444  3
   2266   2254   2250   2279     1  0.0000000  0.6508444  3
   2267   2266   2272   4588     1  0.0000000  1.0460000  1
   2267   2266   2272   4588     1  0.0000000  0.0000000  3
   2267   2266   2272   2273     1  0.0000000  0.6508444  3
   2267   2266   2272   2274     1  0.0000000  0.6508444  3
   2268   2266   2272   4588     1  0.0000000  1.0460000  1
   2268   2266   2272   4588     1  0.0000000  0.0000000  3
   2268   2266   2272   2273     1  0.0000000  0.6508444  3
   2268   2266   2272   2274     1  0.0000000  0.6508444  3
   2272   4588   4579   4580     1  0.0000000  1.6038667  3
   2272   4588   4579   4581     1  0.0000000  1.6038667  3
   2273   2272   4588   4579     1  0.0000000  1.6038667  3
   2274   2272   4588   4579     1  0.0000000  1.6038667  3
   2275   4618   4609   4610     1  0.0000000  1.6038667  3
   2275   4618   4609   4611     1  0.0000000  1.6038667  3
   2276   2275   4618   4609     1  0.0000000  1.6038667  3
   2277   2275   4618   4609     1  0.0000000  1.6038667  3
   2280   2281   2293   2294     1  0.0000000  0.6508444  3
   2280   2281   2293   2295     1  0.0000000  0.6508444  3
   2280   2284   2296   2297     1  0.0000000  0.6508444  3
   2280   2284   2296   2298     1  0.0000000  0.6508444  3
   2280   2287   2290   2291     1  0.0000000  0.6508444  3
   2280   2287   2290   2292     1  0.0000000  0.6508444  3
   2281   2280   2284   2285     1  0.0000000  0.6508444  3
   2281   2280   2284   2286     1  0.0000000  0.6508444  3
   2281   2280   2287   2288     1  0.0000000  0.6508444  3
   2281   2280   2287   2289     1  0.0000000  0.6508444  3
   2281   2293   2305   2306     1  0.0000000  0.6508444  3
   2281   2293   2305   2307     1  0.0000000  0.6508444  3
   2282   2281   2280   2284     1  0.0000000  0.6508444  3
   2282   2281   2280   2287     1  0.0000000  0.6508444  3
   2282   2281   2280   2309     1  0.0000000  0.6508444  3
   2282   2281   2293   2305     1  0.0000000  0.6508444  3
   2282   2281   2293   2294     1  0.0000000  0.6508444  3
   2282   2281   2293   2295     1  0.0000000  0.6508444  3
   2283   2281   2280   2284     1  0.0000000  0.6508444  3
   2283   2281   2280   2287     1  0.0000000  0.6508444  3
   2283   2281   2280   2309     1  0.0000000  0.6508444  3
   2283   2281   2293   2305     1  0.0000000  0.6508444  3
   2283   2281   2293   2294     1  0.0000000  0.6508444  3
   2283   2281   2293   2295     1  0.0000000  0.6508444  3
   2284   2280   2287   2288     1  0.0000000  0.6508444  3
   2284   2280   2287   2289     1  0.0000000  0.6508444  3
   2284   2296   2302   2303     1  0.0000000  0.6508444  3
   2284   2296   2302   2304     1  0.0000000  0.6508444  3
   2285   2284   2280   2287     1  0.0000000  0.6508444  3
   2285   2284   2280   2309     1  0.0000000  0.6508444  3
   2285   2284   2296   2302     1  0.0000000  0.6508444  3
   2285   2284   2296   2297     1  0.0000000  0.6508444  3
   2285   2284   2296   2298     1  0.0000000  0.6508444  3
   2286   2284   2280   2287     1  0.0000000  0.6508444  3
   2286   2284   2280   2309     1  0.0000000  0.6508444  3
   2286   2284   2296   2302     1  0.0000000  0.6508444  3
   2286   2284   2296   2297     1  0.0000000  0.6508444  3
   2286   2284   2296   2298     1  0.0000000  0.6508444  3
   2287   2290   2299   2300     1  0.0000000  0.6508444  3
   2287   2290   2299   2301     1  0.0000000  0.6508444  3
   2288   2287   2280   2309     1  0.0000000  0.6508444  3
   2288   2287   2290   2299     1  0.0000000  0.6508444  3
   2288   2287   2290   2291     1  0.0000000  0.6508444  3
   2288   2287   2290   2292     1  0.0000000  0.6508444  3
   2289   2287   2280   2309     1  0.0000000  0.6508444  3
   2289   2287   2290   2299     1  0.0000000  0.6508444  3
   2289   2287   2290   2291     1  0.0000000  0.6508444  3
   2289   2287   2290   2292     1  0.0000000  0.6508444  3
   2290   2287   2280   2309     1  0.0000000  0.6508444  3
   2291   2290   2299   2308     1  0.0000000  1.0460000  1
   2291   2290   2299   2308     1  0.0000000  0.0000000  3
   2291   2290   2299   2300     1  0.0000000  0.6508444  3
   2291   2290   2299   2301     1  0.0000000  0.6508444  3
   2292   2290   2299   2308     1  0.0000000  1.0460000  1
   2292   2290   2299   2308     1  0.0000000  0.0000000  3
   2292   2290   2299   2300     1  0.0000000  0.6508444  3
   2292   2290   2299   2301     1  0.0000000  0.6508444  3
   2293   2281   2280   2309     1  0.0000000  0.6508444  3
   2294   2293   2305   4678     1  0.0000000  1.0460000  1
   2294   2293   2305   4678     1  0.0000000  0.0000000  3
   2294   2293   2305   2306     1  0.0000000  0.6508444  3
   2294   2293   2305   2307     1  0.0000000  0.6508444  3
   2295   2293   2305   4678     1  0.0000000  1.0460000  1
   2295   2293   2305   4678     1  0.0000000  0.0000000  3
   2295   2293   2305   2306     1  0.0000000  0.6508444  3
   2295   2293   2305   2307     1  0.0000000  0.6508444  3
   2296   2284   2280   2309     1  0.0000000  0.6508444  3
   2297   2296   2302   4648     1  0.0000000  1.0460000  1
   2297   2296   2302   4648     1  0.0000000  0.0000000  3
   2297   2296   2302   2303     1  0.0000000  0.6508444  3
   2297   2296   2302   2304     1  0.0000000  0.6508444  3
   2298   2296   2302   4648     1  0.0000000  1.0460000  1
   2298   2296   2302   4648     1  0.0000000  0.0000000  3
   2298   2296   2302   2303     1  0.0000000  0.6508444  3
   2298   2296   2302   2304     1  0.0000000  0.6508444  3
   2302   4648   4639   4640     1  0.0000000  1.6038667  3
   2302   4648   4639   4641     1  0.0000000  1.6038667  3
   2303   2302   4648   4639     1  0.0000000  1.6038667  3
   2304   2302   4648   4639     1  0.0000000  1.6038667  3
   2305   4678   4669   4670     1  0.0000000  1.6038667  3
   2305   4678   4669   4671     1  0.0000000  1.6038667  3
   2306   2305   4678   4669     1  0.0000000  1.6038667  3
   2307   2305   4678   4669     1  0.0000000  1.6038667  3
   2310   2311   2323   2324     1  0.0000000  0.6508444  3
   2310   2311   2323   2325     1  0.0000000  0.6508444  3
   2310   2314   2326   2327     1  0.0000000  0.6508444  3
   2310   2314   2326   2328     1  0.0000000  0.6508444  3
   2310   2317   2320   2321     1  0.0000000  0.6508444  3
   2310   2317   2320   2322     1  0.0000000  0.6508444  3
   2311   2310   2314   2315     1  0.0000000  0.6508444  3
   2311   2310   2314   2316     1  0.0000000  0.6508444  3
   2311   2310   2317   2318     1  0.0000000  0.6508444  3
   2311   2310   2317   2319     1  0.0000000  0.6508444  3
   2311   2323   2335   2336     1  0.0000000  0.6508444  3
   2311   2323   2335   2337     1  0.0000000  0.6508444  3
   2312   2311   2310   2314     1  0.0000000  0.6508444  3
   2312   2311   2310   2317     1  0.0000000  0.6508444  3
   2312   2311   2310   2339     1  0.0000000  0.6508444  3
   2312   2311   2323   2335     1  0.0000000  0.6508444  3
   2312   2311   2323   2324     1  0.0000000  0.6508444  3
   2312   2311   2323   2325     1  0.0000000  0.6508444  3
   2313   2311   2310   2314     1  0.0000000  0.6508444  3
   2313   2311   2310   2317     1  0.0000000  0.6508444  3
   2313   2311   2310   2339     1  0.0000000  0.6508444  3
   2313   2311   2323   2335     1  0.0000000  0.6508444  3
   2313   2311   2323   2324     1  0.0000000  0.6508444  3
   2313   2311   2323   2325     1  0.0000000  0.6508444  3
   2314   2310   2317   2318     1  0.0000000  0.6508444  3
   2314   2310   2317   2319     1  0.0000000  0.6508444  3
   2314   2326   2332   2333     1  0.0000000  0.6508444  3
   2314   2326   2332   2334     1  0.0000000  0.6508444  3
   2315   2314   2310   2317     1  0.0000000  0.6508444  3
   2315   2314   2310   2339     1  0.0000000  0.6508444  3
   2315   2314   2326   2332     1  0.0000000  0.6508444  3
   2315   2314   2326   2327     1  0.0000000  0.6508444  3
   2315   2314   2326   2328     1  0.0000000  0.6508444  3
   2316   2314   2310   2317     1  0.0000000  0.6508444  3
   2316   2314   2310   2339     1  0.0000000  0.6508444  3
   2316   2314   2326   2332     1  0.0000000  0.6508444  3
   2316   2314   2326   2327     1  0.0000000  0.6508444  3
   2316   2314   2326   2328     1  0.0000000  0.6508444  3
   2317   2320   2329   2330     1  0.0000000  0.6508444  3
   2317   2320   2329   2331     1  0.0000000  0.6508444  3
   2318   2317   2310   2339     1  0.0000000  0.6508444  3
   2318   2317   2320   2329     1  0.0000000  0.6508444  3
   2318   2317   2320   2321     1  0.0000000  0.6508444  3
   2318   2317   2320   2322     1  0.0000000  0.6508444  3
   2319   2317   2310   2339     1  0.0000000  0.6508444  3
   2319   2317   2320   2329     1  0.0000000  0.6508444  3
   2319   2317   2320   2321     1  0.0000000  0.6508444  3
   2319   2317   2320   2322     1  0.0000000  0.6508444  3
   2320   2317   2310   2339     1  0.0000000  0.6508444  3
   2321   2320   2329   2338     1  0.0000000  1.0460000  1
   2321   2320   2329   2338     1  0.0000000  0.0000000  3
   2321   2320   2329   2330     1  0.0000000  0.6508444  3
   2321   2320   2329   2331     1  0.0000000  0.6508444  3
   2322   2320   2329   2338     1  0.0000000  1.0460000  1
   2322   2320   2329   2338     1  0.0000000  0.0000000  3
   2322   2320   2329   2330     1  0.0000000  0.6508444  3
   2322   2320   2329   2331     1  0.0000000  0.6508444  3
   2323   2311   2310   2339     1  0.0000000  0.6508444  3
   2324   2323   2335   4738     1  0.0000000  1.0460000  1
   2324   2323   2335   4738     1  0.0000000  0.0000000  3
   2324   2323   2335   2336     1  0.0000000  0.6508444  3
   2324   2323   2335   2337     1  0.0000000  0.6508444  3
   2325   2323   2335   4738     1  0.0000000  1.0460000  1
   2325   2323   2335   4738     1  0.0000000  0.0000000  3
   2325   2323   2335   2336     1  0.0000000  0.6508444  3
   2325   2323   2335   2337     1  0.0000000  0.6508444  3
   2326   2314   2310   2339     1  0.0000000  0.6508444  3
   2327   2326   2332   4708     1  0.0000000  1.0460000  1
   2327   2326   2332   4708     1  0.0000000  0.0000000  3
   2327   2326   2332   2333     1  0.0000000  0.6508444  3
   2327   2326   2332   2334     1  0.0000000  0.6508444  3
   2328   2326   2332   4708     1  0.0000000  1.0460000  1
   2328   2326   2332   4708     1  0.0000000  0.0000000  3
   2328   2326   2332   2333     1  0.0000000  0.6508444  3
   2328   2326   2332   2334     1  0.0000000  0.6508444  3
   2332   4708   4699   4700     1  0.0000000  1.6038667  3
   2332   4708   4699   4701     1  0.0000000  1.6038667  3
   2333   2332   4708   4699     1  0.0000000  1.6038667  3
   2334   2332   4708   4699     1  0.0000000  1.6038667  3
   2335   4738   4729   4730     1  0.0000000  1.6038667  3
   2335   4738   4729   4731     1  0.0000000  1.6038667  3
   2336   2335   4738   4729     1  0.0000000  1.6038667  3
   2337   2335   4738   4729     1  0.0000000  1.6038667  3
   2340   2341   2353   2354     1  0.0000000  0.6508444  3
   2340   2341   2353   2355     1  0.0000000  0.6508444  3
   2340   2344   2356   2357     1  0.0000000  0.6508444  3
   2340   2344   2356   2358     1  0.0000000  0.6508444  3
   2340   2347   2350   2351     1  0.0000000  0.6508444  3
   2340   2347   2350   2352     1  0.0000000  0.6508444  3
   2341   2340   2344   2345     1  0.0000000  0.6508444  3
   2341   2340   2344   2346     1  0.0000000  0.6508444  3
   2341   2340   2347   2348     1  0.0000000  0.6508444  3
   2341   2340   2347   2349     1  0.0000000  0.6508444  3
   2341   2353   2365   2366     1  0.0000000  0.6508444  3
   2341   2353   2365   2367     1  0.0000000  0.6508444  3
   2342   2341   2340   2344     1  0.0000000  0.6508444  3
   2342   2341   2340   2347     1  0.0000000  0.6508444  3
   2342   2341   2340   2369     1  0.0000000  0.6508444  3
   2342   2341   2353   2365     1  0.0000000  0.6508444  3
   2342   2341   2353   2354     1  0.0000000  0.6508444  3
   2342   2341   2353   2355     1  0.0000000  0.6508444  3
   2343   2341   2340   2344     1  0.0000000  0.6508444  3
   2343   2341   2340   2347     1  0.0000000  0.6508444  3
   2343   2341   2340   2369     1  0.0000000  0.6508444  3
   2343   2341   2353   2365     1  0.0000000  0.6508444  3
   2343   2341   2353   2354     1  0.0000000  0.6508444  3
   2343   2341   2353   2355     1  0.0000000  0.6508444  3
   2344   2340   2347   2348     1  0.0000000  0.6508444  3
   2344   2340   2347   2349     1  0.0000000  0.6508444  3
   2344   2356   2362   2363     1  0.0000000  0.6508444  3
   2344   2356   2362   2364     1  0.0000000  0.6508444  3
   2345   2344   2340   2347     1  0.0000000  0.6508444  3
   2345   2344   2340   2369     1  0.0000000  0.6508444  3
   2345   2344   2356   2362     1  0.0000000  0.6508444  3
   2345   2344   2356   2357     1  0.0000000  0.6508444  3
   2345   2344   2356   2358     1  0.0000000  0.6508444  3
   2346   2344   2340   2347     1  0.0000000  0.6508444  3
   2346   2344   2340   2369     1  0.0000000  0.6508444  3
   2346   2344   2356   2362     1  0.0000000  0.6508444  3
   2346   2344   2356   2357     1  0.0000000  0.6508444  3
   2346   2344   2356   2358     1  0.0000000  0.6508444  3
   2347   2350   2359   2360     1  0.0000000  0.6508444  3
   2347   2350   2359   2361     1  0.0000000  0.6508444  3
   2348   2347   2340   2369     1  0.0000000  0.6508444  3
   2348   2347   2350   2359     1  0.0000000  0.6508444  3
   2348   2347   2350   2351     1  0.0000000  0.6508444  3
   2348   2347   2350   2352     1  0.0000000  0.6508444  3
   2349   2347   2340   2369     1  0.0000000  0.6508444  3
   2349   2347   2350   2359     1  0.0000000  0.6508444  3
   2349   2347   2350   2351     1  0.0000000  0.6508444  3
   2349   2347   2350   2352     1  0.0000000  0.6508444  3
   2350   2347   2340   2369     1  0.0000000  0.6508444  3
   2351   2350   2359   2368     1  0.0000000  1.0460000  1
   2351   2350   2359   2368     1  0.0000000  0.0000000  3
   2351   2350   2359   2360     1  0.0000000  0.6508444  3
   2351   2350   2359   2361     1  0.0000000  0.6508444  3
   2352   2350   2359   2368     1  0.0000000  1.0460000  1
   2352   2350   2359   2368     1  0.0000000  0.0000000  3
   2352   2350   2359   2360     1  0.0000000  0.6508444  3
   2352   2350   2359   2361     1  0.0000000  0.6508444  3
   2353   2341   2340   2369     1  0.0000000  0.6508444  3
   2354   2353   2365   4798     1  0.0000000  1.0460000  1
   2354   2353   2365   4798     1  0.0000000  0.0000000  3
   2354   2353   2365   2366     1  0.0000000  0.6508444  3
   2354   2353   2365   2367     1  0.0000000  0.6508444  3
   2355   2353   2365   4798     1  0.0000000  1.0460000  1
   2355   2353   2365   4798     1  0.0000000  0.0000000  3
   2355   2353   2365   2366     1  0.0000000  0.6508444  3
   2355   2353   2365   2367     1  0.0000000  0.6508444  3
   2356   2344   2340   2369     1  0.0000000  0.6508444  3
   2357   2356   2362   4768     1  0.0000000  1.0460000  1
   2357   2356   2362   4768     1  0.0000000  0.0000000  3
   2357   2356   2362   2363     1  0.0000000  0.6508444  3
   2357   2356   2362   2364     1  0.0000000  0.6508444  3
   2358   2356   2362   4768     1  0.0000000  1.0460000  1
   2358   2356   2362   4768     1  0.0000000  0.0000000  3
   2358   2356   2362   2363     1  0.0000000  0.6508444  3
   2358   2356   2362   2364     1  0.0000000  0.6508444  3
   2362   4768   4759   4760     1  0.0000000  1.6038667  3
   2362   4768   4759   4761     1  0.0000000  1.6038667  3
   2363   2362   4768   4759     1  0.0000000  1.6038667  3
   2364   2362   4768   4759     1  0.0000000  1.6038667  3
   2365   4798   4789   4790     1  0.0000000  1.6038667  3
   2365   4798   4789   4791     1  0.0000000  1.6038667  3
   2366   2365   4798   4789     1  0.0000000  1.6038667  3
   2367   2365   4798   4789     1  0.0000000  1.6038667  3
   2370   2371   2383   2384     1  0.0000000  0.6508444  3
   2370   2371   2383   2385     1  0.0000000  0.6508444  3
   2370   2374   2386   2387     1  0.0000000  0.6508444  3
   2370   2374   2386   2388     1  0.0000000  0.6508444  3
   2370   2377   2380   2381     1  0.0000000  0.6508444  3
   2370   2377   2380   2382     1  0.0000000  0.6508444  3
   2371   2370   2374   2375     1  0.0000000  0.6508444  3
   2371   2370   2374   2376     1  0.0000000  0.6508444  3
   2371   2370   2377   2378     1  0.0000000  0.6508444  3
   2371   2370   2377   2379     1  0.0000000  0.6508444  3
   2371   2383   2395   2396     1  0.0000000  0.6508444  3
   2371   2383   2395   2397     1  0.0000000  0.6508444  3
   2372   2371   2370   2374     1  0.0000000  0.6508444  3
   2372   2371   2370   2377     1  0.0000000  0.6508444  3
   2372   2371   2370   2399     1  0.0000000  0.6508444  3
   2372   2371   2383   2395     1  0.0000000  0.6508444  3
   2372   2371   2383   2384     1  0.0000000  0.6508444  3
   2372   2371   2383   2385     1  0.0000000  0.6508444  3
   2373   2371   2370   2374     1  0.0000000  0.6508444  3
   2373   2371   2370   2377     1  0.0000000  0.6508444  3
   2373   2371   2370   2399     1  0.0000000  0.6508444  3
   2373   2371   2383   2395     1  0.0000000  0.6508444  3
   2373   2371   2383   2384     1  0.0000000  0.6508444  3
   2373   2371   2383   2385     1  0.0000000  0.6508444  3
   2374   2370   2377   2378     1  0.0000000  0.6508444  3
   2374   2370   2377   2379     1  0.0000000  0.6508444  3
   2374   2386   2392   2393     1  0.0000000  0.6508444  3
   2374   2386   2392   2394     1  0.0000000  0.6508444  3
   2375   2374   2370   2377     1  0.0000000  0.6508444  3
   2375   2374   2370   2399     1  0.0000000  0.6508444  3
   2375   2374   2386   2392     1  0.0000000  0.6508444  3
   2375   2374   2386   2387     1  0.0000000  0.6508444  3
   2375   2374   2386   2388     1  0.0000000  0.6508444  3
   2376   2374   2370   2377     1  0.0000000  0.6508444  3
   2376   2374   2370   2399     1  0.0000000  0.6508444  3
   2376   2374   2386   2392     1  0.0000000  0.6508444  3
   2376   2374   2386   2387     1  0.0000000  0.6508444  3
   2376   2374   2386   2388     1  0.0000000  0.6508444  3
   2377   2380   2389   2390     1  0.0000000  0.6508444  3
   2377   2380   2389   2391     1  0.0000000  0.6508444  3
   2378   2377   2370   2399     1  0.0000000  0.6508444  3
   2378   2377   2380   2389     1  0.0000000  0.6508444  3
   2378   2377   2380   2381     1  0.0000000  0.6508444  3
   2378   2377   2380   2382     1  0.0000000  0.6508444  3
   2379   2377   2370   2399     1  0.0000000  0.6508444  3
   2379   2377   2380   2389     1  0.0000000  0.6508444  3
   2379   2377   2380   2381     1  0.0000000  0.6508444  3
   2379   2377   2380   2382     1  0.0000000  0.6508444  3
   2380   2377   2370   2399     1  0.0000000  0.6508444  3
   2381   2380   2389   2398     1  0.0000000  1.0460000  1
   2381   2380   2389   2398     1  0.0000000  0.0000000  3
   2381   2380   2389   2390     1  0.0000000  0.6508444  3
   2381   2380   2389   2391     1  0.0000000  0.6508444  3
   2382   2380   2389   2398     1  0.0000000  1.0460000  1
   2382   2380   2389   2398     1  0.0000000  0.0000000  3
   2382   2380   2389   2390     1  0.0000000  0.6508444  3
   2382   2380   2389   2391     1  0.0000000  0.6508444  3
   2383   2371   2370   2399     1  0.0000000  0.6508444  3
   2384   2383   2395   4858     1  0.0000000  1.0460000  1
   2384   2383   2395   4858     1  0.0000000  0.0000000  3
   2384   2383   2395   2396     1  0.0000000  0.6508444  3
   2384   2383   2395   2397     1  0.0000000  0.6508444  3
   2385   2383   2395   4858     1  0.0000000  1.0460000  1
   2385   2383   2395   4858     1  0.0000000  0.0000000  3
   2385   2383   2395   2396     1  0.0000000  0.6508444  3
   2385   2383   2395   2397     1  0.0000000  0.6508444  3
   2386   2374   2370   2399     1  0.0000000  0.6508444  3
   2387   2386   2392   4828     1  0.0000000  1.0460000  1
   2387   2386   2392   4828     1  0.0000000  0.0000000  3
   2387   2386   2392   2393     1  0.0000000  0.6508444  3
   2387   2386   2392   2394     1  0.0000000  0.6508444  3
   2388   2386   2392   4828     1  0.0000000  1.0460000  1
   2388   2386   2392   4828     1  0.0000000  0.0000000  3
   2388   2386   2392   2393     1  0.0000000  0.6508444  3
   2388   2386   2392   2394     1  0.0000000  0.6508444  3
   2392   4828   4819   4820     1  0.0000000  1.6038667  3
   2392   4828   4819   4821     1  0.0000000  1.6038667  3
   2393   2392   4828   4819     1  0.0000000  1.6038667  3
   2394   2392   4828   4819     1  0.0000000  1.6038667  3
   2395   4858   4849   4850     1  0.0000000  1.6038667  3
   2395   4858   4849   4851     1  0.0000000  1.6038667  3
   2396   2395   4858   4849     1  0.0000000  1.6038667  3
   2397   2395   4858   4849     1  0.0000000  1.6038667  3
   2400   2401   2413   2414     1  0.0000000  0.6508444  3
   2400   2401   2413   2415     1  0.0000000  0.6508444  3
   2400   2404   2416   2417     1  0.0000000  0.6508444  3
   2400   2404   2416   2418     1  0.0000000  0.6508444  3
   2400   2407   2410   2411     1  0.0000000  0.6508444  3
   2400   2407   2410   2412     1  0.0000000  0.6508444  3
   2401   2400   2404   2405     1  0.0000000  0.6508444  3
   2401   2400   2404   2406     1  0.0000000  0.6508444  3
   2401   2400   2407   2408     1  0.0000000  0.6508444  3
   2401   2400   2407   2409     1  0.0000000  0.6508444  3
   2401   2413   2425   2426     1  0.0000000  0.6508444  3
   2401   2413   2425   2427     1  0.0000000  0.6508444  3
   2402   2401   2400   2404     1  0.0000000  0.6508444  3
   2402   2401   2400   2407     1  0.0000000  0.6508444  3
   2402   2401   2400   2429     1  0.0000000  0.6508444  3
   2402   2401   2413   2425     1  0.0000000  0.6508444  3
   2402   2401   2413   2414     1  0.0000000  0.6508444  3
   2402   2401   2413   2415     1  0.0000000  0.6508444  3
   2403   2401   2400   2404     1  0.0000000  0.6508444  3
   2403   2401   2400   2407     1  0.0000000  0.6508444  3
   2403   2401   2400   2429     1  0.0000000  0.6508444  3
   2403   2401   2413   2425     1  0.0000000  0.6508444  3
   2403   2401   2413   2414     1  0.0000000  0.6508444  3
   2403   2401   2413   2415     1  0.0000000  0.6508444  3
   2404   2400   2407   2408     1  0.0000000  0.6508444  3
   2404   2400   2407   2409     1  0.0000000  0.6508444  3
   2404   2416   2422   2423     1  0.0000000  0.6508444  3
   2404   2416   2422   2424     1  0.0000000  0.6508444  3
   2405   2404   2400   2407     1  0.0000000  0.6508444  3
   2405   2404   2400   2429     1  0.0000000  0.6508444  3
   2405   2404   2416   2422     1  0.0000000  0.6508444  3
   2405   2404   2416   2417     1  0.0000000  0.6508444  3
   2405   2404   2416   2418     1  0.0000000  0.6508444  3
   2406   2404   2400   2407     1  0.0000000  0.6508444  3
   2406   2404   2400   2429     1  0.0000000  0.6508444  3
   2406   2404   2416   2422     1  0.0000000  0.6508444  3
   2406   2404   2416   2417     1  0.0000000  0.6508444  3
   2406   2404   2416   2418     1  0.0000000  0.6508444  3
   2407   2410   2419   2420     1  0.0000000  0.6508444  3
   2407   2410   2419   2421     1  0.0000000  0.6508444  3
   2408   2407   2400   2429     1  0.0000000  0.6508444  3
   2408   2407   2410   2419     1  0.0000000  0.6508444  3
   2408   2407   2410   2411     1  0.0000000  0.6508444  3
   2408   2407   2410   2412     1  0.0000000  0.6508444  3
   2409   2407   2400   2429     1  0.0000000  0.6508444  3
   2409   2407   2410   2419     1  0.0000000  0.6508444  3
   2409   2407   2410   2411     1  0.0000000  0.6508444  3
   2409   2407   2410   2412     1  0.0000000  0.6508444  3
   2410   2407   2400   2429     1  0.0000000  0.6508444  3
   2411   2410   2419   2428     1  0.0000000  1.0460000  1
   2411   2410   2419   2428     1  0.0000000  0.0000000  3
   2411   2410   2419   2420     1  0.0000000  0.6508444  3
   2411   2410   2419   2421     1  0.0000000  0.6508444  3
   2412   2410   2419   2428     1  0.0000000  1.0460000  1
   2412   2410   2419   2428     1  0.0000000  0.0000000  3
   2412   2410   2419   2420     1  0.0000000  0.6508444  3
   2412   2410   2419   2421     1  0.0000000  0.6508444  3
   2413   2401   2400   2429     1  0.0000000  0.6508444  3
   2414   2413   2425   4918     1  0.0000000  1.0460000  1
   2414   2413   2425   4918     1  0.0000000  0.0000000  3
   2414   2413   2425   2426     1  0.0000000  0.6508444  3
   2414   2413   2425   2427     1  0.0000000  0.6508444  3
   2415   2413   2425   4918     1  0.0000000  1.0460000  1
   2415   2413   2425   4918     1  0.0000000  0.0000000  3
   2415   2413   2425   2426     1  0.0000000  0.6508444  3
   2415   2413   2425   2427     1  0.0000000  0.6508444  3
   2416   2404   2400   2429     1  0.0000000  0.6508444  3
   2417   2416   2422   4888     1  0.0000000  1.0460000  1
   2417   2416   2422   4888     1  0.0000000  0.0000000  3
   2417   2416   2422   2423     1  0.0000000  0.6508444  3
   2417   2416   2422   2424     1  0.0000000  0.6508444  3
   2418   2416   2422   4888     1  0.0000000  1.0460000  1
   2418   2416   2422   4888     1  0.0000000  0.0000000  3
   2418   2416   2422   2423     1  0.0000000  0.6508444  3
   2418   2416   2422   2424     1  0.0000000  0.6508444  3
   2422   4888   4879   4880     1  0.0000000  1.6038667  3
   2422   4888   4879   4881     1  0.0000000  1.6038667  3
   2423   2422   4888   4879     1  0.0000000  1.6038667  3
   2424   2422   4888   4879     1  0.0000000  1.6038667  3
   2425   4918   4909   4910     1  0.0000000  1.6038667  3
   2425   4918   4909   4911     1  0.0000000  1.6038667  3
   2426   2425   4918   4909     1  0.0000000  1.6038667  3
   2427   2425   4918   4909     1  0.0000000  1.6038667  3
   2430   2431   2443   2444     1  0.0000000  0.6508444  3
   2430   2431   2443   2445     1  0.0000000  0.6508444  3
   2430   2434   2446   2447     1  0.0000000  0.6508444  3
   2430   2434   2446   2448     1  0.0000000  0.6508444  3
   2430   2437   2440   2441     1  0.0000000  0.6508444  3
   2430   2437   2440   2442     1  0.0000000  0.6508444  3
   2431   2430   2434   2435     1  0.0000000  0.6508444  3
   2431   2430   2434   2436     1  0.0000000  0.6508444  3
   2431   2430   2437   2438     1  0.0000000  0.6508444  3
   2431   2430   2437   2439     1  0.0000000  0.6508444  3
   2431   2443   2455   2456     1  0.0000000  0.6508444  3
   2431   2443   2455   2457     1  0.0000000  0.6508444  3
   2432   2431   2430   2434     1  0.0000000  0.6508444  3
   2432   2431   2430   2437     1  0.0000000  0.6508444  3
   2432   2431   2430   2459     1  0.0000000  0.6508444  3
   2432   2431   2443   2455     1  0.0000000  0.6508444  3
   2432   2431   2443   2444     1  0.0000000  0.6508444  3
   2432   2431   2443   2445     1  0.0000000  0.6508444  3
   2433   2431   2430   2434     1  0.0000000  0.6508444  3
   2433   2431   2430   2437     1  0.0000000  0.6508444  3
   2433   2431   2430   2459     1  0.0000000  0.6508444  3
   2433   2431   2443   2455     1  0.0000000  0.6508444  3
   2433   2431   2443   2444     1  0.0000000  0.6508444  3
   2433   2431   2443   2445     1  0.0000000  0.6508444  3
   2434   2430   2437   2438     1  0.0000000  0.6508444  3
   2434   2430   2437   2439     1  0.0000000  0.6508444  3
   2434   2446   2452   2453     1  0.0000000  0.6508444  3
   2434   2446   2452   2454     1  0.0000000  0.6508444  3
   2435   2434   2430   2437     1  0.0000000  0.6508444  3
   2435   2434   2430   2459     1  0.0000000  0.6508444  3
   2435   2434   2446   2452     1  0.0000000  0.6508444  3
   2435   2434   2446   2447     1  0.0000000  0.6508444  3
   2435   2434   2446   2448     1  0.0000000  0.6508444  3
   2436   2434   2430   2437     1  0.0000000  0.6508444  3
   2436   2434   2430   2459     1  0.0000000  0.6508444  3
   2436   2434   2446   2452     1  0.0000000  0.6508444  3
   2436   2434   2446   2447     1  0.0000000  0.6508444  3
   2436   2434   2446   2448     1  0.0000000  0.6508444  3
   2437   2440   2449   2450     1  0.0000000  0.6508444  3
   2437   2440   2449   2451     1  0.0000000  0.6508444  3
   2438   2437   2430   2459     1  0.0000000  0.6508444  3
   2438   2437   2440   2449     1  0.0000000  0.6508444  3
   2438   2437   2440   2441     1  0.0000000  0.6508444  3
   2438   2437   2440   2442     1  0.0000000  0.6508444  3
   2439   2437   2430   2459     1  0.0000000  0.6508444  3
   2439   2437   2440   2449     1  0.0000000  0.6508444  3
   2439   2437   2440   2441     1  0.0000000  0.6508444  3
   2439   2437   2440   2442     1  0.0000000  0.6508444  3
   2440   2437   2430   2459     1  0.0000000  0.6508444  3
   2441   2440   2449   2458     1  0.0000000  1.0460000  1
   2441   2440   2449   2458     1  0.0000000  0.0000000  3
   2441   2440   2449   2450     1  0.0000000  0.6508444  3
   2441   2440   2449   2451     1  0.0000000  0.6508444  3
   2442   2440   2449   2458     1  0.0000000  1.0460000  1
   2442   2440   2449   2458     1  0.0000000  0.0000000  3
   2442   2440   2449   2450     1  0.0000000  0.6508444  3
   2442   2440   2449   2451     1  0.0000000  0.6508444  3
   2443   2431   2430   2459     1  0.0000000  0.6508444  3
   2444   2443   2455   4978     1  0.0000000  1.0460000  1
   2444   2443   2455   4978     1  0.0000000  0.0000000  3
   2444   2443   2455   2456     1  0.0000000  0.6508444  3
   2444   2443   2455   2457     1  0.0000000  0.6508444  3
   2445   2443   2455   4978     1  0.0000000  1.0460000  1
   2445   2443   2455   4978     1  0.0000000  0.0000000  3
   2445   2443   2455   2456     1  0.0000000  0.6508444  3
   2445   2443   2455   2457     1  0.0000000  0.6508444  3
   2446   2434   2430   2459     1  0.0000000  0.6508444  3
   2447   2446   2452   4948     1  0.0000000  1.0460000  1
   2447   2446   2452   4948     1  0.0000000  0.0000000  3
   2447   2446   2452   2453     1  0.0000000  0.6508444  3
   2447   2446   2452   2454     1  0.0000000  0.6508444  3
   2448   2446   2452   4948     1  0.0000000  1.0460000  1
   2448   2446   2452   4948     1  0.0000000  0.0000000  3
   2448   2446   2452   2453     1  0.0000000  0.6508444  3
   2448   2446   2452   2454     1  0.0000000  0.6508444  3
   2452   4948   4939   4940     1  0.0000000  1.6038667  3
   2452   4948   4939   4941     1  0.0000000  1.6038667  3
   2453   2452   4948   4939     1  0.0000000  1.6038667  3
   2454   2452   4948   4939     1  0.0000000  1.6038667  3
   2455   4978   4969   4970     1  0.0000000  1.6038667  3
   2455   4978   4969   4971     1  0.0000000  1.6038667  3
   2456   2455   4978   4969     1  0.0000000  1.6038667  3
   2457   2455   4978   4969     1  0.0000000  1.6038667  3
   2460   2461   2473   2474     1  0.0000000  0.6508444  3
   2460   2461   2473   2475     1  0.0000000  0.6508444  3
   2460   2464   2476   2477     1  0.0000000  0.6508444  3
   2460   2464   2476   2478     1  0.0000000  0.6508444  3
   2460   2467   2470   2471     1  0.0000000  0.6508444  3
   2460   2467   2470   2472     1  0.0000000  0.6508444  3
   2461   2460   2464   2465     1  0.0000000  0.6508444  3
   2461   2460   2464   2466     1  0.0000000  0.6508444  3
   2461   2460   2467   2468     1  0.0000000  0.6508444  3
   2461   2460   2467   2469     1  0.0000000  0.6508444  3
   2461   2473   2485   2486     1  0.0000000  0.6508444  3
   2461   2473   2485   2487     1  0.0000000  0.6508444  3
   2462   2461   2460   2464     1  0.0000000  0.6508444  3
   2462   2461   2460   2467     1  0.0000000  0.6508444  3
   2462   2461   2460   2489     1  0.0000000  0.6508444  3
   2462   2461   2473   2485     1  0.0000000  0.6508444  3
   2462   2461   2473   2474     1  0.0000000  0.6508444  3
   2462   2461   2473   2475     1  0.0000000  0.6508444  3
   2463   2461   2460   2464     1  0.0000000  0.6508444  3
   2463   2461   2460   2467     1  0.0000000  0.6508444  3
   2463   2461   2460   2489     1  0.0000000  0.6508444  3
   2463   2461   2473   2485     1  0.0000000  0.6508444  3
   2463   2461   2473   2474     1  0.0000000  0.6508444  3
   2463   2461   2473   2475     1  0.0000000  0.6508444  3
   2464   2460   2467   2468     1  0.0000000  0.6508444  3
   2464   2460   2467   2469     1  0.0000000  0.6508444  3
   2464   2476   2482   2483     1  0.0000000  0.6508444  3
   2464   2476   2482   2484     1  0.0000000  0.6508444  3
   2465   2464   2460   2467     1  0.0000000  0.6508444  3
   2465   2464   2460   2489     1  0.0000000  0.6508444  3
   2465   2464   2476   2482     1  0.0000000  0.6508444  3
   2465   2464   2476   2477     1  0.0000000  0.6508444  3
   2465   2464   2476   2478     1  0.0000000  0.6508444  3
   2466   2464   2460   2467     1  0.0000000  0.6508444  3
   2466   2464   2460   2489     1  0.0000000  0.6508444  3
   2466   2464   2476   2482     1  0.0000000  0.6508444  3
   2466   2464   2476   2477     1  0.0000000  0.6508444  3
   2466   2464   2476   2478     1  0.0000000  0.6508444  3
   2467   2470   2479   2480     1  0.0000000  0.6508444  3
   2467   2470   2479   2481     1  0.0000000  0.6508444  3
   2468   2467   2460   2489     1  0.0000000  0.6508444  3
   2468   2467   2470   2479     1  0.0000000  0.6508444  3
   2468   2467   2470   2471     1  0.0000000  0.6508444  3
   2468   2467   2470   2472     1  0.0000000  0.6508444  3
   2469   2467   2460   2489     1  0.0000000  0.6508444  3
   2469   2467   2470   2479     1  0.0000000  0.6508444  3
   2469   2467   2470   2471     1  0.0000000  0.6508444  3
   2469   2467   2470   2472     1  0.0000000  0.6508444  3
   2470   2467   2460   2489     1  0.0000000  0.6508444  3
   2471   2470   2479   2488     1  0.0000000  1.0460000  1
   2471   2470   2479   2488     1  0.0000000  0.0000000  3
   2471   2470   2479   2480     1  0.0000000  0.6508444  3
   2471   2470   2479   2481     1  0.0000000  0.6508444  3
   2472   2470   2479   2488     1  0.0000000  1.0460000  1
   2472   2470   2479   2488     1  0.0000000  0.0000000  3
   2472   2470   2479   2480     1  0.0000000  0.6508444  3
   2472   2470   2479   2481     1  0.0000000  0.6508444  3
   2473   2461   2460   2489     1  0.0000000  0.6508444  3
   2474   2473   2485   5038     1  0.0000000  1.0460000  1
   2474   2473   2485   5038     1  0.0000000  0.0000000  3
   2474   2473   2485   2486     1  0.0000000  0.6508444  3
   2474   2473   2485   2487     1  0.0000000  0.6508444  3
   2475   2473   2485   5038     1  0.0000000  1.0460000  1
   2475   2473   2485   5038     1  0.0000000  0.0000000  3
   2475   2473   2485   2486     1  0.0000000  0.6508444  3
   2475   2473   2485   2487     1  0.0000000  0.6508444  3
   2476   2464   2460   2489     1  0.0000000  0.6508444  3
   2477   2476   2482   5008     1  0.0000000  1.0460000  1
   2477   2476   2482   5008     1  0.0000000  0.0000000  3
   2477   2476   2482   2483     1  0.0000000  0.6508444  3
   2477   2476   2482   2484     1  0.0000000  0.6508444  3
   2478   2476   2482   5008     1  0.0000000  1.0460000  1
   2478   2476   2482   5008     1  0.0000000  0.0000000  3
   2478   2476   2482   2483     1  0.0000000  0.6508444  3
   2478   2476   2482   2484     1  0.0000000  0.6508444  3
   2482   5008   4999   5000     1  0.0000000  1.6038667  3
   2482   5008   4999   5001     1  0.0000000  1.6038667  3
   2483   2482   5008   4999     1  0.0000000  1.6038667  3
   2484   2482   5008   4999     1  0.0000000  1.6038667  3
   2485   5038   5029   5030     1  0.0000000  1.6038667  3
   2485   5038   5029   5031     1  0.0000000  1.6038667  3
   2486   2485   5038   5029     1  0.0000000  1.6038667  3
   2487   2485   5038   5029     1  0.0000000  1.6038667  3
   2490   2491   2503   2504     1  0.0000000  0.6508444  3
   2490   2491   2503   2505     1  0.0000000  0.6508444  3
   2490   2494   2506   2507     1  0.0000000  0.6508444  3
   2490   2494   2506   2508     1  0.0000000  0.6508444  3
   2490   2497   2500   2501     1  0.0000000  0.6508444  3
   2490   2497   2500   2502     1  0.0000000  0.6508444  3
   2491   2490   2494   2495     1  0.0000000  0.6508444  3
   2491   2490   2494   2496     1  0.0000000  0.6508444  3
   2491   2490   2497   2498     1  0.0000000  0.6508444  3
   2491   2490   2497   2499     1  0.0000000  0.6508444  3
   2491   2503   2515   2516     1  0.0000000  0.6508444  3
   2491   2503   2515   2517     1  0.0000000  0.6508444  3
   2492   2491   2490   2494     1  0.0000000  0.6508444  3
   2492   2491   2490   2497     1  0.0000000  0.6508444  3
   2492   2491   2490   2519     1  0.0000000  0.6508444  3
   2492   2491   2503   2515     1  0.0000000  0.6508444  3
   2492   2491   2503   2504     1  0.0000000  0.6508444  3
   2492   2491   2503   2505     1  0.0000000  0.6508444  3
   2493   2491   2490   2494     1  0.0000000  0.6508444  3
   2493   2491   2490   2497     1  0.0000000  0.6508444  3
   2493   2491   2490   2519     1  0.0000000  0.6508444  3
   2493   2491   2503   2515     1  0.0000000  0.6508444  3
   2493   2491   2503   2504     1  0.0000000  0.6508444  3
   2493   2491   2503   2505     1  0.0000000  0.6508444  3
   2494   2490   2497   2498     1  0.0000000  0.6508444  3
   2494   2490   2497   2499     1  0.0000000  0.6508444  3
   2494   2506   2512   2513     1  0.0000000  0.6508444  3
   2494   2506   2512   2514     1  0.0000000  0.6508444  3
   2495   2494   2490   2497     1  0.0000000  0.6508444  3
   2495   2494   2490   2519     1  0.0000000  0.6508444  3
   2495   2494   2506   2512     1  0.0000000  0.6508444  3
   2495   2494   2506   2507     1  0.0000000  0.6508444  3
   2495   2494   2506   2508     1  0.0000000  0.6508444  3
   2496   2494   2490   2497     1  0.0000000  0.6508444  3
   2496   2494   2490   2519     1  0.0000000  0.6508444  3
   2496   2494   2506   2512     1  0.0000000  0.6508444  3
   2496   2494   2506   2507     1  0.0000000  0.6508444  3
   2496   2494   2506   2508     1  0.0000000  0.6508444  3
   2497   2500   2509   2510     1  0.0000000  0.6508444  3
   2497   2500   2509   2511     1  0.0000000  0.6508444  3
   2498   2497   2490   2519     1  0.0000000  0.6508444  3
   2498   2497   2500   2509     1  0.0000000  0.6508444  3
   2498   2497   2500   2501     1  0.0000000  0.6508444  3
   2498   2497   2500   2502     1  0.0000000  0.6508444  3
   2499   2497   2490   2519     1  0.0000000  0.6508444  3
   2499   2497   2500   2509     1  0.0000000  0.6508444  3
   2499   2497   2500   2501     1  0.0000000  0.6508444  3
   2499   2497   2500   2502     1  0.0000000  0.6508444  3
   2500   2497   2490   2519     1  0.0000000  0.6508444  3
   2501   2500   2509   2518     1  0.0000000  1.0460000  1
   2501   2500   2509   2518     1  0.0000000  0.0000000  3
   2501   2500   2509   2510     1  0.0000000  0.6508444  3
   2501   2500   2509   2511     1  0.0000000  0.6508444  3
   2502   2500   2509   2518     1  0.0000000  1.0460000  1
   2502   2500   2509   2518     1  0.0000000  0.0000000  3
   2502   2500   2509   2510     1  0.0000000  0.6508444  3
   2502   2500   2509   2511     1  0.0000000  0.6508444  3
   2503   2491   2490   2519     1  0.0000000  0.6508444  3
   2504   2503   2515   5098     1  0.0000000  1.0460000  1
   2504   2503   2515   5098     1  0.0000000  0.0000000  3
   2504   2503   2515   2516     1  0.0000000  0.6508444  3
   2504   2503   2515   2517     1  0.0000000  0.6508444  3
   2505   2503   2515   5098     1  0.0000000  1.0460000  1
   2505   2503   2515   5098     1  0.0000000  0.0000000  3
   2505   2503   2515   2516     1  0.0000000  0.6508444  3
   2505   2503   2515   2517     1  0.0000000  0.6508444  3
   2506   2494   2490   2519     1  0.0000000  0.6508444  3
   2507   2506   2512   5068     1  0.0000000  1.0460000  1
   2507   2506   2512   5068     1  0.0000000  0.0000000  3
   2507   2506   2512   2513     1  0.0000000  0.6508444  3
   2507   2506   2512   2514     1  0.0000000  0.6508444  3
   2508   2506   2512   5068     1  0.0000000  1.0460000  1
   2508   2506   2512   5068     1  0.0000000  0.0000000  3
   2508   2506   2512   2513     1  0.0000000  0.6508444  3
   2508   2506   2512   2514     1  0.0000000  0.6508444  3
   2512   5068   5059   5060     1  0.0000000  1.6038667  3
   2512   5068   5059   5061     1  0.0000000  1.6038667  3
   2513   2512   5068   5059     1  0.0000000  1.6038667  3
   2514   2512   5068   5059     1  0.0000000  1.6038667  3
   2515   5098   5089   5090     1  0.0000000  1.6038667  3
   2515   5098   5089   5091     1  0.0000000  1.6038667  3
   2516   2515   5098   5089     1  0.0000000  1.6038667  3
   2517   2515   5098   5089     1  0.0000000  1.6038667  3
   2520   2521   2533   2534     1  0.0000000  0.6508444  3
   2520   2521   2533   2535     1  0.0000000  0.6508444  3
   2520   2524   2536   2537     1  0.0000000  0.6508444  3
   2520   2524   2536   2538     1  0.0000000  0.6508444  3
   2520   2527   2530   2531     1  0.0000000  0.6508444  3
   2520   2527   2530   2532     1  0.0000000  0.6508444  3
   2521   2520   2524   2525     1  0.0000000  0.6508444  3
   2521   2520   2524   2526     1  0.0000000  0.6508444  3
   2521   2520   2527   2528     1  0.0000000  0.6508444  3
   2521   2520   2527   2529     1  0.0000000  0.6508444  3
   2521   2533   2545   2546     1  0.0000000  0.6508444  3
   2521   2533   2545   2547     1  0.0000000  0.6508444  3
   2522   2521   2520   2524     1  0.0000000  0.6508444  3
   2522   2521   2520   2527     1  0.0000000  0.6508444  3
   2522   2521   2520   2549     1  0.0000000  0.6508444  3
   2522   2521   2533   2545     1  0.0000000  0.6508444  3
   2522   2521   2533   2534     1  0.0000000  0.6508444  3
   2522   2521   2533   2535     1  0.0000000  0.6508444  3
   2523   2521   2520   2524     1  0.0000000  0.6508444  3
   2523   2521   2520   2527     1  0.0000000  0.6508444  3
   2523   2521   2520   2549     1  0.0000000  0.6508444  3
   2523   2521   2533   2545     1  0.0000000  0.6508444  3
   2523   2521   2533   2534     1  0.0000000  0.6508444  3
   2523   2521   2533   2535     1  0.0000000  0.6508444  3
   2524   2520   2527   2528     1  0.0000000  0.6508444  3
   2524   2520   2527   2529     1  0.0000000  0.6508444  3
   2524   2536   2542   2543     1  0.0000000  0.6508444  3
   2524   2536   2542   2544     1  0.0000000  0.6508444  3
   2525   2524   2520   2527     1  0.0000000  0.6508444  3
   2525   2524   2520   2549     1  0.0000000  0.6508444  3
   2525   2524   2536   2542     1  0.0000000  0.6508444  3
   2525   2524   2536   2537     1  0.0000000  0.6508444  3
   2525   2524   2536   2538     1  0.0000000  0.6508444  3
   2526   2524   2520   2527     1  0.0000000  0.6508444  3
   2526   2524   2520   2549     1  0.0000000  0.6508444  3
   2526   2524   2536   2542     1  0.0000000  0.6508444  3
   2526   2524   2536   2537     1  0.0000000  0.6508444  3
   2526   2524   2536   2538     1  0.0000000  0.6508444  3
   2527   2530   2539   2540     1  0.0000000  0.6508444  3
   2527   2530   2539   2541     1  0.0000000  0.6508444  3
   2528   2527   2520   2549     1  0.0000000  0.6508444  3
   2528   2527   2530   2539     1  0.0000000  0.6508444  3
   2528   2527   2530   2531     1  0.0000000  0.6508444  3
   2528   2527   2530   2532     1  0.0000000  0.6508444  3
   2529   2527   2520   2549     1  0.0000000  0.6508444  3
   2529   2527   2530   2539     1  0.0000000  0.6508444  3
   2529   2527   2530   2531     1  0.0000000  0.6508444  3
   2529   2527   2530   2532     1  0.0000000  0.6508444  3
   2530   2527   2520   2549     1  0.0000000  0.6508444  3
   2531   2530   2539   2548     1  0.0000000  1.0460000  1
   2531   2530   2539   2548     1  0.0000000  0.0000000  3
   2531   2530   2539   2540     1  0.0000000  0.6508444  3
   2531   2530   2539   2541     1  0.0000000  0.6508444  3
   2532   2530   2539   2548     1  0.0000000  1.0460000  1
   2532   2530   2539   2548     1  0.0000000  0.0000000  3
   2532   2530   2539   2540     1  0.0000000  0.6508444  3
   2532   2530   2539   2541     1  0.0000000  0.6508444  3
   2533   2521   2520   2549     1  0.0000000  0.6508444  3
   2534   2533   2545   5158     1  0.0000000  1.0460000  1
   2534   2533   2545   5158     1  0.0000000  0.0000000  3
   2534   2533   2545   2546     1  0.0000000  0.6508444  3
   2534   2533   2545   2547     1  0.0000000  0.6508444  3
   2535   2533   2545   5158     1  0.0000000  1.0460000  1
   2535   2533   2545   5158     1  0.0000000  0.0000000  3
   2535   2533   2545   2546     1  0.0000000  0.6508444  3
   2535   2533   2545   2547     1  0.0000000  0.6508444  3
   2536   2524   2520   2549     1  0.0000000  0.6508444  3
   2537   2536   2542   5128     1  0.0000000  1.0460000  1
   2537   2536   2542   5128     1  0.0000000  0.0000000  3
   2537   2536   2542   2543     1  0.0000000  0.6508444  3
   2537   2536   2542   2544     1  0.0000000  0.6508444  3
   2538   2536   2542   5128     1  0.0000000  1.0460000  1
   2538   2536   2542   5128     1  0.0000000  0.0000000  3
   2538   2536   2542   2543     1  0.0000000  0.6508444  3
   2538   2536   2542   2544     1  0.0000000  0.6508444  3
   2542   5128   5119   5120     1  0.0000000  1.6038667  3
   2542   5128   5119   5121     1  0.0000000  1.6038667  3
   2543   2542   5128   5119     1  0.0000000  1.6038667  3
   2544   2542   5128   5119     1  0.0000000  1.6038667  3
   2545   5158   5149   5150     1  0.0000000  1.6038667  3
   2545   5158   5149   5151     1  0.0000000  1.6038667  3
   2546   2545   5158   5149     1  0.0000000  1.6038667  3
   2547   2545   5158   5149     1  0.0000000  1.6038667  3
   2550   2551   2563   2564     1  0.0000000  0.6508444  3
   2550   2551   2563   2565     1  0.0000000  0.6508444  3
   2550   2554   2566   2567     1  0.0000000  0.6508444  3
   2550   2554   2566   2568     1  0.0000000  0.6508444  3
   2550   2557   2560   2561     1  0.0000000  0.6508444  3
   2550   2557   2560   2562     1  0.0000000  0.6508444  3
   2551   2550   2554   2555     1  0.0000000  0.6508444  3
   2551   2550   2554   2556     1  0.0000000  0.6508444  3
   2551   2550   2557   2558     1  0.0000000  0.6508444  3
   2551   2550   2557   2559     1  0.0000000  0.6508444  3
   2551   2563   2575   2576     1  0.0000000  0.6508444  3
   2551   2563   2575   2577     1  0.0000000  0.6508444  3
   2552   2551   2550   2554     1  0.0000000  0.6508444  3
   2552   2551   2550   2557     1  0.0000000  0.6508444  3
   2552   2551   2550   2579     1  0.0000000  0.6508444  3
   2552   2551   2563   2575     1  0.0000000  0.6508444  3
   2552   2551   2563   2564     1  0.0000000  0.6508444  3
   2552   2551   2563   2565     1  0.0000000  0.6508444  3
   2553   2551   2550   2554     1  0.0000000  0.6508444  3
   2553   2551   2550   2557     1  0.0000000  0.6508444  3
   2553   2551   2550   2579     1  0.0000000  0.6508444  3
   2553   2551   2563   2575     1  0.0000000  0.6508444  3
   2553   2551   2563   2564     1  0.0000000  0.6508444  3
   2553   2551   2563   2565     1  0.0000000  0.6508444  3
   2554   2550   2557   2558     1  0.0000000  0.6508444  3
   2554   2550   2557   2559     1  0.0000000  0.6508444  3
   2554   2566   2572   2573     1  0.0000000  0.6508444  3
   2554   2566   2572   2574     1  0.0000000  0.6508444  3
   2555   2554   2550   2557     1  0.0000000  0.6508444  3
   2555   2554   2550   2579     1  0.0000000  0.6508444  3
   2555   2554   2566   2572     1  0.0000000  0.6508444  3
   2555   2554   2566   2567     1  0.0000000  0.6508444  3
   2555   2554   2566   2568     1  0.0000000  0.6508444  3
   2556   2554   2550   2557     1  0.0000000  0.6508444  3
   2556   2554   2550   2579     1  0.0000000  0.6508444  3
   2556   2554   2566   2572     1  0.0000000  0.6508444  3
   2556   2554   2566   2567     1  0.0000000  0.6508444  3
   2556   2554   2566   2568     1  0.0000000  0.6508444  3
   2557   2560   2569   2570     1  0.0000000  0.6508444  3
   2557   2560   2569   2571     1  0.0000000  0.6508444  3
   2558   2557   2550   2579     1  0.0000000  0.6508444  3
   2558   2557   2560   2569     1  0.0000000  0.6508444  3
   2558   2557   2560   2561     1  0.0000000  0.6508444  3
   2558   2557   2560   2562     1  0.0000000  0.6508444  3
   2559   2557   2550   2579     1  0.0000000  0.6508444  3
   2559   2557   2560   2569     1  0.0000000  0.6508444  3
   2559   2557   2560   2561     1  0.0000000  0.6508444  3
   2559   2557   2560   2562     1  0.0000000  0.6508444  3
   2560   2557   2550   2579     1  0.0000000  0.6508444  3
   2561   2560   2569   2578     1  0.0000000  1.0460000  1
   2561   2560   2569   2578     1  0.0000000  0.0000000  3
   2561   2560   2569   2570     1  0.0000000  0.6508444  3
   2561   2560   2569   2571     1  0.0000000  0.6508444  3
   2562   2560   2569   2578     1  0.0000000  1.0460000  1
   2562   2560   2569   2578     1  0.0000000  0.0000000  3
   2562   2560   2569   2570     1  0.0000000  0.6508444  3
   2562   2560   2569   2571     1  0.0000000  0.6508444  3
   2563   2551   2550   2579     1  0.0000000  0.6508444  3
   2564   2563   2575   5218     1  0.0000000  1.0460000  1
   2564   2563   2575   5218     1  0.0000000  0.0000000  3
   2564   2563   2575   2576     1  0.0000000  0.6508444  3
   2564   2563   2575   2577     1  0.0000000  0.6508444  3
   2565   2563   2575   5218     1  0.0000000  1.0460000  1
   2565   2563   2575   5218     1  0.0000000  0.0000000  3
   2565   2563   2575   2576     1  0.0000000  0.6508444  3
   2565   2563   2575   2577     1  0.0000000  0.6508444  3
   2566   2554   2550   2579     1  0.0000000  0.6508444  3
   2567   2566   2572   5188     1  0.0000000  1.0460000  1
   2567   2566   2572   5188     1  0.0000000  0.0000000  3
   2567   2566   2572   2573     1  0.0000000  0.6508444  3
   2567   2566   2572   2574     1  0.0000000  0.6508444  3
   2568   2566   2572   5188     1  0.0000000  1.0460000  1
   2568   2566   2572   5188     1  0.0000000  0.0000000  3
   2568   2566   2572   2573     1  0.0000000  0.6508444  3
   2568   2566   2572   2574     1  0.0000000  0.6508444  3
   2572   5188   5179   5180     1  0.0000000  1.6038667  3
   2572   5188   5179   5181     1  0.0000000  1.6038667  3
   2573   2572   5188   5179     1  0.0000000  1.6038667  3
   2574   2572   5188   5179     1  0.0000000  1.6038667  3
   2575   5218   5209   5210     1  0.0000000  1.6038667  3
   2575   5218   5209   5211     1  0.0000000  1.6038667  3
   2576   2575   5218   5209     1  0.0000000  1.6038667  3
   2577   2575   5218   5209     1  0.0000000  1.6038667  3
   2580   2581   2593   2594     1  0.0000000  0.6508444  3
   2580   2581   2593   2595     1  0.0000000  0.6508444  3
   2580   2584   2596   2597     1  0.0000000  0.6508444  3
   2580   2584   2596   2598     1  0.0000000  0.6508444  3
   2580   2587   2590   2591     1  0.0000000  0.6508444  3
   2580   2587   2590   2592     1  0.0000000  0.6508444  3
   2581   2580   2584   2585     1  0.0000000  0.6508444  3
   2581   2580   2584   2586     1  0.0000000  0.6508444  3
   2581   2580   2587   2588     1  0.0000000  0.6508444  3
   2581   2580   2587   2589     1  0.0000000  0.6508444  3
   2581   2593   2605   2606     1  0.0000000  0.6508444  3
   2581   2593   2605   2607     1  0.0000000  0.6508444  3
   2582   2581   2580   2584     1  0.0000000  0.6508444  3
   2582   2581   2580   2587     1  0.0000000  0.6508444  3
   2582   2581   2580   2609     1  0.0000000  0.6508444  3
   2582   2581   2593   2605     1  0.0000000  0.6508444  3
   2582   2581   2593   2594     1  0.0000000  0.6508444  3
   2582   2581   2593   2595     1  0.0000000  0.6508444  3
   2583   2581   2580   2584     1  0.0000000  0.6508444  3
   2583   2581   2580   2587     1  0.0000000  0.6508444  3
   2583   2581   2580   2609     1  0.0000000  0.6508444  3
   2583   2581   2593   2605     1  0.0000000  0.6508444  3
   2583   2581   2593   2594     1  0.0000000  0.6508444  3
   2583   2581   2593   2595     1  0.0000000  0.6508444  3
   2584   2580   2587   2588     1  0.0000000  0.6508444  3
   2584   2580   2587   2589     1  0.0000000  0.6508444  3
   2584   2596   2602   2603     1  0.0000000  0.6508444  3
   2584   2596   2602   2604     1  0.0000000  0.6508444  3
   2585   2584   2580   2587     1  0.0000000  0.6508444  3
   2585   2584   2580   2609     1  0.0000000  0.6508444  3
   2585   2584   2596   2602     1  0.0000000  0.6508444  3
   2585   2584   2596   2597     1  0.0000000  0.6508444  3
   2585   2584   2596   2598     1  0.0000000  0.6508444  3
   2586   2584   2580   2587     1  0.0000000  0.6508444  3
   2586   2584   2580   2609     1  0.0000000  0.6508444  3
   2586   2584   2596   2602     1  0.0000000  0.6508444  3
   2586   2584   2596   2597     1  0.0000000  0.6508444  3
   2586   2584   2596   2598     1  0.0000000  0.6508444  3
   2587   2590   2599   2600     1  0.0000000  0.6508444  3
   2587   2590   2599   2601     1  0.0000000  0.6508444  3
   2588   2587   2580   2609     1  0.0000000  0.6508444  3
   2588   2587   2590   2599     1  0.0000000  0.6508444  3
   2588   2587   2590   2591     1  0.0000000  0.6508444  3
   2588   2587   2590   2592     1  0.0000000  0.6508444  3
   2589   2587   2580   2609     1  0.0000000  0.6508444  3
   2589   2587   2590   2599     1  0.0000000  0.6508444  3
   2589   2587   2590   2591     1  0.0000000  0.6508444  3
   2589   2587   2590   2592     1  0.0000000  0.6508444  3
   2590   2587   2580   2609     1  0.0000000  0.6508444  3
   2591   2590   2599   2608     1  0.0000000  1.0460000  1
   2591   2590   2599   2608     1  0.0000000  0.0000000  3
   2591   2590   2599   2600     1  0.0000000  0.6508444  3
   2591   2590   2599   2601     1  0.0000000  0.6508444  3
   2592   2590   2599   2608     1  0.0000000  1.0460000  1
   2592   2590   2599   2608     1  0.0000000  0.0000000  3
   2592   2590   2599   2600     1  0.0000000  0.6508444  3
   2592   2590   2599   2601     1  0.0000000  0.6508444  3
   2593   2581   2580   2609     1  0.0000000  0.6508444  3
   2594   2593   2605   5278     1  0.0000000  1.0460000  1
   2594   2593   2605   5278     1  0.0000000  0.0000000  3
   2594   2593   2605   2606     1  0.0000000  0.6508444  3
   2594   2593   2605   2607     1  0.0000000  0.6508444  3
   2595   2593   2605   5278     1  0.0000000  1.0460000  1
   2595   2593   2605   5278     1  0.0000000  0.0000000  3
   2595   2593   2605   2606     1  0.0000000  0.6508444  3
   2595   2593   2605   2607     1  0.0000000  0.6508444  3
   2596   2584   2580   2609     1  0.0000000  0.6508444  3
   2597   2596   2602   5248     1  0.0000000  1.0460000  1
   2597   2596   2602   5248     1  0.0000000  0.0000000  3
   2597   2596   2602   2603     1  0.0000000  0.6508444  3
   2597   2596   2602   2604     1  0.0000000  0.6508444  3
   2598   2596   2602   5248     1  0.0000000  1.0460000  1
   2598   2596   2602   5248     1  0.0000000  0.0000000  3
   2598   2596   2602   2603     1  0.0000000  0.6508444  3
   2598   2596   2602   2604     1  0.0000000  0.6508444  3
   2602   5248   5239   5240     1  0.0000000  1.6038667  3
   2602   5248   5239   5241     1  0.0000000  1.6038667  3
   2603   2602   5248   5239     1  0.0000000  1.6038667  3
   2604   2602   5248   5239     1  0.0000000  1.6038667  3
   2605   5278   5269   5270     1  0.0000000  1.6038667  3
   2605   5278   5269   5271     1  0.0000000  1.6038667  3
   2606   2605   5278   5269     1  0.0000000  1.6038667  3
   2607   2605   5278   5269     1  0.0000000  1.6038667  3
   2610   2611   2623   2624     1  0.0000000  0.6508444  3
   2610   2611   2623   2625     1  0.0000000  0.6508444  3
   2610   2614   2626   2627     1  0.0000000  0.6508444  3
   2610   2614   2626   2628     1  0.0000000  0.6508444  3
   2610   2617   2620   2621     1  0.0000000  0.6508444  3
   2610   2617   2620   2622     1  0.0000000  0.6508444  3
   2611   2610   2614   2615     1  0.0000000  0.6508444  3
   2611   2610   2614   2616     1  0.0000000  0.6508444  3
   2611   2610   2617   2618     1  0.0000000  0.6508444  3
   2611   2610   2617   2619     1  0.0000000  0.6508444  3
   2611   2623   2635   2636     1  0.0000000  0.6508444  3
   2611   2623   2635   2637     1  0.0000000  0.6508444  3
   2612   2611   2610   2614     1  0.0000000  0.6508444  3
   2612   2611   2610   2617     1  0.0000000  0.6508444  3
   2612   2611   2610   2639     1  0.0000000  0.6508444  3
   2612   2611   2623   2635     1  0.0000000  0.6508444  3
   2612   2611   2623   2624     1  0.0000000  0.6508444  3
   2612   2611   2623   2625     1  0.0000000  0.6508444  3
   2613   2611   2610   2614     1  0.0000000  0.6508444  3
   2613   2611   2610   2617     1  0.0000000  0.6508444  3
   2613   2611   2610   2639     1  0.0000000  0.6508444  3
   2613   2611   2623   2635     1  0.0000000  0.6508444  3
   2613   2611   2623   2624     1  0.0000000  0.6508444  3
   2613   2611   2623   2625     1  0.0000000  0.6508444  3
   2614   2610   2617   2618     1  0.0000000  0.6508444  3
   2614   2610   2617   2619     1  0.0000000  0.6508444  3
   2614   2626   2632   2633     1  0.0000000  0.6508444  3
   2614   2626   2632   2634     1  0.0000000  0.6508444  3
   2615   2614   2610   2617     1  0.0000000  0.6508444  3
   2615   2614   2610   2639     1  0.0000000  0.6508444  3
   2615   2614   2626   2632     1  0.0000000  0.6508444  3
   2615   2614   2626   2627     1  0.0000000  0.6508444  3
   2615   2614   2626   2628     1  0.0000000  0.6508444  3
   2616   2614   2610   2617     1  0.0000000  0.6508444  3
   2616   2614   2610   2639     1  0.0000000  0.6508444  3
   2616   2614   2626   2632     1  0.0000000  0.6508444  3
   2616   2614   2626   2627     1  0.0000000  0.6508444  3
   2616   2614   2626   2628     1  0.0000000  0.6508444  3
   2617   2620   2629   2630     1  0.0000000  0.6508444  3
   2617   2620   2629   2631     1  0.0000000  0.6508444  3
   2618   2617   2610   2639     1  0.0000000  0.6508444  3
   2618   2617   2620   2629     1  0.0000000  0.6508444  3
   2618   2617   2620   2621     1  0.0000000  0.6508444  3
   2618   2617   2620   2622     1  0.0000000  0.6508444  3
   2619   2617   2610   2639     1  0.0000000  0.6508444  3
   2619   2617   2620   2629     1  0.0000000  0.6508444  3
   2619   2617   2620   2621     1  0.0000000  0.6508444  3
   2619   2617   2620   2622     1  0.0000000  0.6508444  3
   2620   2617   2610   2639     1  0.0000000  0.6508444  3
   2621   2620   2629   2638     1  0.0000000  1.0460000  1
   2621   2620   2629   2638     1  0.0000000  0.0000000  3
   2621   2620   2629   2630     1  0.0000000  0.6508444  3
   2621   2620   2629   2631     1  0.0000000  0.6508444  3
   2622   2620   2629   2638     1  0.0000000  1.0460000  1
   2622   2620   2629   2638     1  0.0000000  0.0000000  3
   2622   2620   2629   2630     1  0.0000000  0.6508444  3
   2622   2620   2629   2631     1  0.0000000  0.6508444  3
   2623   2611   2610   2639     1  0.0000000  0.6508444  3
   2624   2623   2635   5338     1  0.0000000  1.0460000  1
   2624   2623   2635   5338     1  0.0000000  0.0000000  3
   2624   2623   2635   2636     1  0.0000000  0.6508444  3
   2624   2623   2635   2637     1  0.0000000  0.6508444  3
   2625   2623   2635   5338     1  0.0000000  1.0460000  1
   2625   2623   2635   5338     1  0.0000000  0.0000000  3
   2625   2623   2635   2636     1  0.0000000  0.6508444  3
   2625   2623   2635   2637     1  0.0000000  0.6508444  3
   2626   2614   2610   2639     1  0.0000000  0.6508444  3
   2627   2626   2632   5308     1  0.0000000  1.0460000  1
   2627   2626   2632   5308     1  0.0000000  0.0000000  3
   2627   2626   2632   2633     1  0.0000000  0.6508444  3
   2627   2626   2632   2634     1  0.0000000  0.6508444  3
   2628   2626   2632   5308     1  0.0000000  1.0460000  1
   2628   2626   2632   5308     1  0.0000000  0.0000000  3
   2628   2626   2632   2633     1  0.0000000  0.6508444  3
   2628   2626   2632   2634     1  0.0000000  0.6508444  3
   2632   5308   5299   5300     1  0.0000000  1.6038667  3
   2632   5308   5299   5301     1  0.0000000  1.6038667  3
   2633   2632   5308   5299     1  0.0000000  1.6038667  3
   2634   2632   5308   5299     1  0.0000000  1.6038667  3
   2635   5338   5329   5330     1  0.0000000  1.6038667  3
   2635   5338   5329   5331     1  0.0000000  1.6038667  3
   2636   2635   5338   5329     1  0.0000000  1.6038667  3
   2637   2635   5338   5329     1  0.0000000  1.6038667  3
   2640   2641   2653   2654     1  0.0000000  0.6508444  3
   2640   2641   2653   2655     1  0.0000000  0.6508444  3
   2640   2644   2656   2657     1  0.0000000  0.6508444  3
   2640   2644   2656   2658     1  0.0000000  0.6508444  3
   2640   2647   2650   2651     1  0.0000000  0.6508444  3
   2640   2647   2650   2652     1  0.0000000  0.6508444  3
   2641   2640   2644   2645     1  0.0000000  0.6508444  3
   2641   2640   2644   2646     1  0.0000000  0.6508444  3
   2641   2640   2647   2648     1  0.0000000  0.6508444  3
   2641   2640   2647   2649     1  0.0000000  0.6508444  3
   2641   2653   2665   2666     1  0.0000000  0.6508444  3
   2641   2653   2665   2667     1  0.0000000  0.6508444  3
   2642   2641   2640   2644     1  0.0000000  0.6508444  3
   2642   2641   2640   2647     1  0.0000000  0.6508444  3
   2642   2641   2640   2669     1  0.0000000  0.6508444  3
   2642   2641   2653   2665     1  0.0000000  0.6508444  3
   2642   2641   2653   2654     1  0.0000000  0.6508444  3
   2642   2641   2653   2655     1  0.0000000  0.6508444  3
   2643   2641   2640   2644     1  0.0000000  0.6508444  3
   2643   2641   2640   2647     1  0.0000000  0.6508444  3
   2643   2641   2640   2669     1  0.0000000  0.6508444  3
   2643   2641   2653   2665     1  0.0000000  0.6508444  3
   2643   2641   2653   2654     1  0.0000000  0.6508444  3
   2643   2641   2653   2655     1  0.0000000  0.6508444  3
   2644   2640   2647   2648     1  0.0000000  0.6508444  3
   2644   2640   2647   2649     1  0.0000000  0.6508444  3
   2644   2656   2662   2663     1  0.0000000  0.6508444  3
   2644   2656   2662   2664     1  0.0000000  0.6508444  3
   2645   2644   2640   2647     1  0.0000000  0.6508444  3
   2645   2644   2640   2669     1  0.0000000  0.6508444  3
   2645   2644   2656   2662     1  0.0000000  0.6508444  3
   2645   2644   2656   2657     1  0.0000000  0.6508444  3
   2645   2644   2656   2658     1  0.0000000  0.6508444  3
   2646   2644   2640   2647     1  0.0000000  0.6508444  3
   2646   2644   2640   2669     1  0.0000000  0.6508444  3
   2646   2644   2656   2662     1  0.0000000  0.6508444  3
   2646   2644   2656   2657     1  0.0000000  0.6508444  3
   2646   2644   2656   2658     1  0.0000000  0.6508444  3
   2647   2650   2659   2660     1  0.0000000  0.6508444  3
   2647   2650   2659   2661     1  0.0000000  0.6508444  3
   2648   2647   2640   2669     1  0.0000000  0.6508444  3
   2648   2647   2650   2659     1  0.0000000  0.6508444  3
   2648   2647   2650   2651     1  0.0000000  0.6508444  3
   2648   2647   2650   2652     1  0.0000000  0.6508444  3
   2649   2647   2640   2669     1  0.0000000  0.6508444  3
   2649   2647   2650   2659     1  0.0000000  0.6508444  3
   2649   2647   2650   2651     1  0.0000000  0.6508444  3
   2649   2647   2650   2652     1  0.0000000  0.6508444  3
   2650   2647   2640   2669     1  0.0000000  0.6508444  3
   2651   2650   2659   2668     1  0.0000000  1.0460000  1
   2651   2650   2659   2668     1  0.0000000  0.0000000  3
   2651   2650   2659   2660     1  0.0000000  0.6508444  3
   2651   2650   2659   2661     1  0.0000000  0.6508444  3
   2652   2650   2659   2668     1  0.0000000  1.0460000  1
   2652   2650   2659   2668     1  0.0000000  0.0000000  3
   2652   2650   2659   2660     1  0.0000000  0.6508444  3
   2652   2650   2659   2661     1  0.0000000  0.6508444  3
   2653   2641   2640   2669     1  0.0000000  0.6508444  3
   2654   2653   2665   5398     1  0.0000000  1.0460000  1
   2654   2653   2665   5398     1  0.0000000  0.0000000  3
   2654   2653   2665   2666     1  0.0000000  0.6508444  3
   2654   2653   2665   2667     1  0.0000000  0.6508444  3
   2655   2653   2665   5398     1  0.0000000  1.0460000  1
   2655   2653   2665   5398     1  0.0000000  0.0000000  3
   2655   2653   2665   2666     1  0.0000000  0.6508444  3
   2655   2653   2665   2667     1  0.0000000  0.6508444  3
   2656   2644   2640   2669     1  0.0000000  0.6508444  3
   2657   2656   2662   5368     1  0.0000000  1.0460000  1
   2657   2656   2662   5368     1  0.0000000  0.0000000  3
   2657   2656   2662   2663     1  0.0000000  0.6508444  3
   2657   2656   2662   2664     1  0.0000000  0.6508444  3
   2658   2656   2662   5368     1  0.0000000  1.0460000  1
   2658   2656   2662   5368     1  0.0000000  0.0000000  3
   2658   2656   2662   2663     1  0.0000000  0.6508444  3
   2658   2656   2662   2664     1  0.0000000  0.6508444  3
   2662   5368   5359   5360     1  0.0000000  1.6038667  3
   2662   5368   5359   5361     1  0.0000000  1.6038667  3
   2663   2662   5368   5359     1  0.0000000  1.6038667  3
   2664   2662   5368   5359     1  0.0000000  1.6038667  3
   2665   5398   5389   5390     1  0.0000000  1.6038667  3
   2665   5398   5389   5391     1  0.0000000  1.6038667  3
   2666   2665   5398   5389     1  0.0000000  1.6038667  3
   2667   2665   5398   5389     1  0.0000000  1.6038667  3
   2670   2671   2683   2684     1  0.0000000  0.6508444  3
   2670   2671   2683   2685     1  0.0000000  0.6508444  3
   2670   2674   2686   2687     1  0.0000000  0.6508444  3
   2670   2674   2686   2688     1  0.0000000  0.6508444  3
   2670   2677   2680   2681     1  0.0000000  0.6508444  3
   2670   2677   2680   2682     1  0.0000000  0.6508444  3
   2671   2670   2674   2675     1  0.0000000  0.6508444  3
   2671   2670   2674   2676     1  0.0000000  0.6508444  3
   2671   2670   2677   2678     1  0.0000000  0.6508444  3
   2671   2670   2677   2679     1  0.0000000  0.6508444  3
   2671   2683   2695   2696     1  0.0000000  0.6508444  3
   2671   2683   2695   2697     1  0.0000000  0.6508444  3
   2672   2671   2670   2674     1  0.0000000  0.6508444  3
   2672   2671   2670   2677     1  0.0000000  0.6508444  3
   2672   2671   2670   2699     1  0.0000000  0.6508444  3
   2672   2671   2683   2695     1  0.0000000  0.6508444  3
   2672   2671   2683   2684     1  0.0000000  0.6508444  3
   2672   2671   2683   2685     1  0.0000000  0.6508444  3
   2673   2671   2670   2674     1  0.0000000  0.6508444  3
   2673   2671   2670   2677     1  0.0000000  0.6508444  3
   2673   2671   2670   2699     1  0.0000000  0.6508444  3
   2673   2671   2683   2695     1  0.0000000  0.6508444  3
   2673   2671   2683   2684     1  0.0000000  0.6508444  3
   2673   2671   2683   2685     1  0.0000000  0.6508444  3
   2674   2670   2677   2678     1  0.0000000  0.6508444  3
   2674   2670   2677   2679     1  0.0000000  0.6508444  3
   2674   2686   2692   2693     1  0.0000000  0.6508444  3
   2674   2686   2692   2694     1  0.0000000  0.6508444  3
   2675   2674   2670   2677     1  0.0000000  0.6508444  3
   2675   2674   2670   2699     1  0.0000000  0.6508444  3
   2675   2674   2686   2692     1  0.0000000  0.6508444  3
   2675   2674   2686   2687     1  0.0000000  0.6508444  3
   2675   2674   2686   2688     1  0.0000000  0.6508444  3
   2676   2674   2670   2677     1  0.0000000  0.6508444  3
   2676   2674   2670   2699     1  0.0000000  0.6508444  3
   2676   2674   2686   2692     1  0.0000000  0.6508444  3
   2676   2674   2686   2687     1  0.0000000  0.6508444  3
   2676   2674   2686   2688     1  0.0000000  0.6508444  3
   2677   2680   2689   2690     1  0.0000000  0.6508444  3
   2677   2680   2689   2691     1  0.0000000  0.6508444  3
   2678   2677   2670   2699     1  0.0000000  0.6508444  3
   2678   2677   2680   2689     1  0.0000000  0.6508444  3
   2678   2677   2680   2681     1  0.0000000  0.6508444  3
   2678   2677   2680   2682     1  0.0000000  0.6508444  3
   2679   2677   2670   2699     1  0.0000000  0.6508444  3
   2679   2677   2680   2689     1  0.0000000  0.6508444  3
   2679   2677   2680   2681     1  0.0000000  0.6508444  3
   2679   2677   2680   2682     1  0.0000000  0.6508444  3
   2680   2677   2670   2699     1  0.0000000  0.6508444  3
   2681   2680   2689   2698     1  0.0000000  1.0460000  1
   2681   2680   2689   2698     1  0.0000000  0.0000000  3
   2681   2680   2689   2690     1  0.0000000  0.6508444  3
   2681   2680   2689   2691     1  0.0000000  0.6508444  3
   2682   2680   2689   2698     1  0.0000000  1.0460000  1
   2682   2680   2689   2698     1  0.0000000  0.0000000  3
   2682   2680   2689   2690     1  0.0000000  0.6508444  3
   2682   2680   2689   2691     1  0.0000000  0.6508444  3
   2683   2671   2670   2699     1  0.0000000  0.6508444  3
   2684   2683   2695   5458     1  0.0000000  1.0460000  1
   2684   2683   2695   5458     1  0.0000000  0.0000000  3
   2684   2683   2695   2696     1  0.0000000  0.6508444  3
   2684   2683   2695   2697     1  0.0000000  0.6508444  3
   2685   2683   2695   5458     1  0.0000000  1.0460000  1
   2685   2683   2695   5458     1  0.0000000  0.0000000  3
   2685   2683   2695   2696     1  0.0000000  0.6508444  3
   2685   2683   2695   2697     1  0.0000000  0.6508444  3
   2686   2674   2670   2699     1  0.0000000  0.6508444  3
   2687   2686   2692   5428     1  0.0000000  1.0460000  1
   2687   2686   2692   5428     1  0.0000000  0.0000000  3
   2687   2686   2692   2693     1  0.0000000  0.6508444  3
   2687   2686   2692   2694     1  0.0000000  0.6508444  3
   2688   2686   2692   5428     1  0.0000000  1.0460000  1
   2688   2686   2692   5428     1  0.0000000  0.0000000  3
   2688   2686   2692   2693     1  0.0000000  0.6508444  3
   2688   2686   2692   2694     1  0.0000000  0.6508444  3
   2692   5428   5419   5420     1  0.0000000  1.6038667  3
   2692   5428   5419   5421     1  0.0000000  1.6038667  3
   2693   2692   5428   5419     1  0.0000000  1.6038667  3
   2694   2692   5428   5419     1  0.0000000  1.6038667  3
   2695   5458   5449   5450     1  0.0000000  1.6038667  3
   2695   5458   5449   5451     1  0.0000000  1.6038667  3
   2696   2695   5458   5449     1  0.0000000  1.6038667  3
   2697   2695   5458   5449     1  0.0000000  1.6038667  3
   2700   2701   2713   2714     1  0.0000000  0.6508444  3
   2700   2701   2713   2715     1  0.0000000  0.6508444  3
   2700   2704   2716   2717     1  0.0000000  0.6508444  3
   2700   2704   2716   2718     1  0.0000000  0.6508444  3
   2700   2707   2710   2711     1  0.0000000  0.6508444  3
   2700   2707   2710   2712     1  0.0000000  0.6508444  3
   2701   2700   2704   2705     1  0.0000000  0.6508444  3
   2701   2700   2704   2706     1  0.0000000  0.6508444  3
   2701   2700   2707   2708     1  0.0000000  0.6508444  3
   2701   2700   2707   2709     1  0.0000000  0.6508444  3
   2701   2713   2725   2726     1  0.0000000  0.6508444  3
   2701   2713   2725   2727     1  0.0000000  0.6508444  3
   2702   2701   2700   2704     1  0.0000000  0.6508444  3
   2702   2701   2700   2707     1  0.0000000  0.6508444  3
   2702   2701   2700   2729     1  0.0000000  0.6508444  3
   2702   2701   2713   2725     1  0.0000000  0.6508444  3
   2702   2701   2713   2714     1  0.0000000  0.6508444  3
   2702   2701   2713   2715     1  0.0000000  0.6508444  3
   2703   2701   2700   2704     1  0.0000000  0.6508444  3
   2703   2701   2700   2707     1  0.0000000  0.6508444  3
   2703   2701   2700   2729     1  0.0000000  0.6508444  3
   2703   2701   2713   2725     1  0.0000000  0.6508444  3
   2703   2701   2713   2714     1  0.0000000  0.6508444  3
   2703   2701   2713   2715     1  0.0000000  0.6508444  3
   2704   2700   2707   2708     1  0.0000000  0.6508444  3
   2704   2700   2707   2709     1  0.0000000  0.6508444  3
   2704   2716   2722   2723     1  0.0000000  0.6508444  3
   2704   2716   2722   2724     1  0.0000000  0.6508444  3
   2705   2704   2700   2707     1  0.0000000  0.6508444  3
   2705   2704   2700   2729     1  0.0000000  0.6508444  3
   2705   2704   2716   2722     1  0.0000000  0.6508444  3
   2705   2704   2716   2717     1  0.0000000  0.6508444  3
   2705   2704   2716   2718     1  0.0000000  0.6508444  3
   2706   2704   2700   2707     1  0.0000000  0.6508444  3
   2706   2704   2700   2729     1  0.0000000  0.6508444  3
   2706   2704   2716   2722     1  0.0000000  0.6508444  3
   2706   2704   2716   2717     1  0.0000000  0.6508444  3
   2706   2704   2716   2718     1  0.0000000  0.6508444  3
   2707   2710   2719   2720     1  0.0000000  0.6508444  3
   2707   2710   2719   2721     1  0.0000000  0.6508444  3
   2708   2707   2700   2729     1  0.0000000  0.6508444  3
   2708   2707   2710   2719     1  0.0000000  0.6508444  3
   2708   2707   2710   2711     1  0.0000000  0.6508444  3
   2708   2707   2710   2712     1  0.0000000  0.6508444  3
   2709   2707   2700   2729     1  0.0000000  0.6508444  3
   2709   2707   2710   2719     1  0.0000000  0.6508444  3
   2709   2707   2710   2711     1  0.0000000  0.6508444  3
   2709   2707   2710   2712     1  0.0000000  0.6508444  3
   2710   2707   2700   2729     1  0.0000000  0.6508444  3
   2711   2710   2719   2728     1  0.0000000  1.0460000  1
   2711   2710   2719   2728     1  0.0000000  0.0000000  3
   2711   2710   2719   2720     1  0.0000000  0.6508444  3
   2711   2710   2719   2721     1  0.0000000  0.6508444  3
   2712   2710   2719   2728     1  0.0000000  1.0460000  1
   2712   2710   2719   2728     1  0.0000000  0.0000000  3
   2712   2710   2719   2720     1  0.0000000  0.6508444  3
   2712   2710   2719   2721     1  0.0000000  0.6508444  3
   2713   2701   2700   2729     1  0.0000000  0.6508444  3
   2714   2713   2725   5518     1  0.0000000  1.0460000  1
   2714   2713   2725   5518     1  0.0000000  0.0000000  3
   2714   2713   2725   2726     1  0.0000000  0.6508444  3
   2714   2713   2725   2727     1  0.0000000  0.6508444  3
   2715   2713   2725   5518     1  0.0000000  1.0460000  1
   2715   2713   2725   5518     1  0.0000000  0.0000000  3
   2715   2713   2725   2726     1  0.0000000  0.6508444  3
   2715   2713   2725   2727     1  0.0000000  0.6508444  3
   2716   2704   2700   2729     1  0.0000000  0.6508444  3
   2717   2716   2722   5488     1  0.0000000  1.0460000  1
   2717   2716   2722   5488     1  0.0000000  0.0000000  3
   2717   2716   2722   2723     1  0.0000000  0.6508444  3
   2717   2716   2722   2724     1  0.0000000  0.6508444  3
   2718   2716   2722   5488     1  0.0000000  1.0460000  1
   2718   2716   2722   5488     1  0.0000000  0.0000000  3
   2718   2716   2722   2723     1  0.0000000  0.6508444  3
   2718   2716   2722   2724     1  0.0000000  0.6508444  3
   2722   5488   5479   5480     1  0.0000000  1.6038667  3
   2722   5488   5479   5481     1  0.0000000  1.6038667  3
   2723   2722   5488   5479     1  0.0000000  1.6038667  3
   2724   2722   5488   5479     1  0.0000000  1.6038667  3
   2725   5518   5509   5510     1  0.0000000  1.6038667  3
   2725   5518   5509   5511     1  0.0000000  1.6038667  3
   2726   2725   5518   5509     1  0.0000000  1.6038667  3
   2727   2725   5518   5509     1  0.0000000  1.6038667  3
   2730   2731   2743   2744     1  0.0000000  0.6508444  3
   2730   2731   2743   2745     1  0.0000000  0.6508444  3
   2730   2734   2746   2747     1  0.0000000  0.6508444  3
   2730   2734   2746   2748     1  0.0000000  0.6508444  3
   2730   2737   2740   2741     1  0.0000000  0.6508444  3
   2730   2737   2740   2742     1  0.0000000  0.6508444  3
   2731   2730   2734   2735     1  0.0000000  0.6508444  3
   2731   2730   2734   2736     1  0.0000000  0.6508444  3
   2731   2730   2737   2738     1  0.0000000  0.6508444  3
   2731   2730   2737   2739     1  0.0000000  0.6508444  3
   2731   2743   2755   2756     1  0.0000000  0.6508444  3
   2731   2743   2755   2757     1  0.0000000  0.6508444  3
   2732   2731   2730   2734     1  0.0000000  0.6508444  3
   2732   2731   2730   2737     1  0.0000000  0.6508444  3
   2732   2731   2730   2759     1  0.0000000  0.6508444  3
   2732   2731   2743   2755     1  0.0000000  0.6508444  3
   2732   2731   2743   2744     1  0.0000000  0.6508444  3
   2732   2731   2743   2745     1  0.0000000  0.6508444  3
   2733   2731   2730   2734     1  0.0000000  0.6508444  3
   2733   2731   2730   2737     1  0.0000000  0.6508444  3
   2733   2731   2730   2759     1  0.0000000  0.6508444  3
   2733   2731   2743   2755     1  0.0000000  0.6508444  3
   2733   2731   2743   2744     1  0.0000000  0.6508444  3
   2733   2731   2743   2745     1  0.0000000  0.6508444  3
   2734   2730   2737   2738     1  0.0000000  0.6508444  3
   2734   2730   2737   2739     1  0.0000000  0.6508444  3
   2734   2746   2752   2753     1  0.0000000  0.6508444  3
   2734   2746   2752   2754     1  0.0000000  0.6508444  3
   2735   2734   2730   2737     1  0.0000000  0.6508444  3
   2735   2734   2730   2759     1  0.0000000  0.6508444  3
   2735   2734   2746   2752     1  0.0000000  0.6508444  3
   2735   2734   2746   2747     1  0.0000000  0.6508444  3
   2735   2734   2746   2748     1  0.0000000  0.6508444  3
   2736   2734   2730   2737     1  0.0000000  0.6508444  3
   2736   2734   2730   2759     1  0.0000000  0.6508444  3
   2736   2734   2746   2752     1  0.0000000  0.6508444  3
   2736   2734   2746   2747     1  0.0000000  0.6508444  3
   2736   2734   2746   2748     1  0.0000000  0.6508444  3
   2737   2740   2749   2750     1  0.0000000  0.6508444  3
   2737   2740   2749   2751     1  0.0000000  0.6508444  3
   2738   2737   2730   2759     1  0.0000000  0.6508444  3
   2738   2737   2740   2749     1  0.0000000  0.6508444  3
   2738   2737   2740   2741     1  0.0000000  0.6508444  3
   2738   2737   2740   2742     1  0.0000000  0.6508444  3
   2739   2737   2730   2759     1  0.0000000  0.6508444  3
   2739   2737   2740   2749     1  0.0000000  0.6508444  3
   2739   2737   2740   2741     1  0.0000000  0.6508444  3
   2739   2737   2740   2742     1  0.0000000  0.6508444  3
   2740   2737   2730   2759     1  0.0000000  0.6508444  3
   2741   2740   2749   2758     1  0.0000000  1.0460000  1
   2741   2740   2749   2758     1  0.0000000  0.0000000  3
   2741   2740   2749   2750     1  0.0000000  0.6508444  3
   2741   2740   2749   2751     1  0.0000000  0.6508444  3
   2742   2740   2749   2758     1  0.0000000  1.0460000  1
   2742   2740   2749   2758     1  0.0000000  0.0000000  3
   2742   2740   2749   2750     1  0.0000000  0.6508444  3
   2742   2740   2749   2751     1  0.0000000  0.6508444  3
   2743   2731   2730   2759     1  0.0000000  0.6508444  3
   2744   2743   2755   5578     1  0.0000000  1.0460000  1
   2744   2743   2755   5578     1  0.0000000  0.0000000  3
   2744   2743   2755   2756     1  0.0000000  0.6508444  3
   2744   2743   2755   2757     1  0.0000000  0.6508444  3
   2745   2743   2755   5578     1  0.0000000  1.0460000  1
   2745   2743   2755   5578     1  0.0000000  0.0000000  3
   2745   2743   2755   2756     1  0.0000000  0.6508444  3
   2745   2743   2755   2757     1  0.0000000  0.6508444  3
   2746   2734   2730   2759     1  0.0000000  0.6508444  3
   2747   2746   2752   5548     1  0.0000000  1.0460000  1
   2747   2746   2752   5548     1  0.0000000  0.0000000  3
   2747   2746   2752   2753     1  0.0000000  0.6508444  3
   2747   2746   2752   2754     1  0.0000000  0.6508444  3
   2748   2746   2752   5548     1  0.0000000  1.0460000  1
   2748   2746   2752   5548     1  0.0000000  0.0000000  3
   2748   2746   2752   2753     1  0.0000000  0.6508444  3
   2748   2746   2752   2754     1  0.0000000  0.6508444  3
   2752   5548   5539   5540     1  0.0000000  1.6038667  3
   2752   5548   5539   5541     1  0.0000000  1.6038667  3
   2753   2752   5548   5539     1  0.0000000  1.6038667  3
   2754   2752   5548   5539     1  0.0000000  1.6038667  3
   2755   5578   5569   5570     1  0.0000000  1.6038667  3
   2755   5578   5569   5571     1  0.0000000  1.6038667  3
   2756   2755   5578   5569     1  0.0000000  1.6038667  3
   2757   2755   5578   5569     1  0.0000000  1.6038667  3
   2760   2761   2773   2774     1  0.0000000  0.6508444  3
   2760   2761   2773   2775     1  0.0000000  0.6508444  3
   2760   2764   2776   2777     1  0.0000000  0.6508444  3
   2760   2764   2776   2778     1  0.0000000  0.6508444  3
   2760   2767   2770   2771     1  0.0000000  0.6508444  3
   2760   2767   2770   2772     1  0.0000000  0.6508444  3
   2761   2760   2764   2765     1  0.0000000  0.6508444  3
   2761   2760   2764   2766     1  0.0000000  0.6508444  3
   2761   2760   2767   2768     1  0.0000000  0.6508444  3
   2761   2760   2767   2769     1  0.0000000  0.6508444  3
   2761   2773   2785   2786     1  0.0000000  0.6508444  3
   2761   2773   2785   2787     1  0.0000000  0.6508444  3
   2762   2761   2760   2764     1  0.0000000  0.6508444  3
   2762   2761   2760   2767     1  0.0000000  0.6508444  3
   2762   2761   2760   2789     1  0.0000000  0.6508444  3
   2762   2761   2773   2785     1  0.0000000  0.6508444  3
   2762   2761   2773   2774     1  0.0000000  0.6508444  3
   2762   2761   2773   2775     1  0.0000000  0.6508444  3
   2763   2761   2760   2764     1  0.0000000  0.6508444  3
   2763   2761   2760   2767     1  0.0000000  0.6508444  3
   2763   2761   2760   2789     1  0.0000000  0.6508444  3
   2763   2761   2773   2785     1  0.0000000  0.6508444  3
   2763   2761   2773   2774     1  0.0000000  0.6508444  3
   2763   2761   2773   2775     1  0.0000000  0.6508444  3
   2764   2760   2767   2768     1  0.0000000  0.6508444  3
   2764   2760   2767   2769     1  0.0000000  0.6508444  3
   2764   2776   2782   2783     1  0.0000000  0.6508444  3
   2764   2776   2782   2784     1  0.0000000  0.6508444  3
   2765   2764   2760   2767     1  0.0000000  0.6508444  3
   2765   2764   2760   2789     1  0.0000000  0.6508444  3
   2765   2764   2776   2782     1  0.0000000  0.6508444  3
   2765   2764   2776   2777     1  0.0000000  0.6508444  3
   2765   2764   2776   2778     1  0.0000000  0.6508444  3
   2766   2764   2760   2767     1  0.0000000  0.6508444  3
   2766   2764   2760   2789     1  0.0000000  0.6508444  3
   2766   2764   2776   2782     1  0.0000000  0.6508444  3
   2766   2764   2776   2777     1  0.0000000  0.6508444  3
   2766   2764   2776   2778     1  0.0000000  0.6508444  3
   2767   2770   2779   2780     1  0.0000000  0.6508444  3
   2767   2770   2779   2781     1  0.0000000  0.6508444  3
   2768   2767   2760   2789     1  0.0000000  0.6508444  3
   2768   2767   2770   2779     1  0.0000000  0.6508444  3
   2768   2767   2770   2771     1  0.0000000  0.6508444  3
   2768   2767   2770   2772     1  0.0000000  0.6508444  3
   2769   2767   2760   2789     1  0.0000000  0.6508444  3
   2769   2767   2770   2779     1  0.0000000  0.6508444  3
   2769   2767   2770   2771     1  0.0000000  0.6508444  3
   2769   2767   2770   2772     1  0.0000000  0.6508444  3
   2770   2767   2760   2789     1  0.0000000  0.6508444  3
   2771   2770   2779   2788     1  0.0000000  1.0460000  1
   2771   2770   2779   2788     1  0.0000000  0.0000000  3
   2771   2770   2779   2780     1  0.0000000  0.6508444  3
   2771   2770   2779   2781     1  0.0000000  0.6508444  3
   2772   2770   2779   2788     1  0.0000000  1.0460000  1
   2772   2770   2779   2788     1  0.0000000  0.0000000  3
   2772   2770   2779   2780     1  0.0000000  0.6508444  3
   2772   2770   2779   2781     1  0.0000000  0.6508444  3
   2773   2761   2760   2789     1  0.0000000  0.6508444  3
   2774   2773   2785   5638     1  0.0000000  1.0460000  1
   2774   2773   2785   5638     1  0.0000000  0.0000000  3
   2774   2773   2785   2786     1  0.0000000  0.6508444  3
   2774   2773   2785   2787     1  0.0000000  0.6508444  3
   2775   2773   2785   5638     1  0.0000000  1.0460000  1
   2775   2773   2785   5638     1  0.0000000  0.0000000  3
   2775   2773   2785   2786     1  0.0000000  0.6508444  3
   2775   2773   2785   2787     1  0.0000000  0.6508444  3
   2776   2764   2760   2789     1  0.0000000  0.6508444  3
   2777   2776   2782   5608     1  0.0000000  1.0460000  1
   2777   2776   2782   5608     1  0.0000000  0.0000000  3
   2777   2776   2782   2783     1  0.0000000  0.6508444  3
   2777   2776   2782   2784     1  0.0000000  0.6508444  3
   2778   2776   2782   5608     1  0.0000000  1.0460000  1
   2778   2776   2782   5608     1  0.0000000  0.0000000  3
   2778   2776   2782   2783     1  0.0000000  0.6508444  3
   2778   2776   2782   2784     1  0.0000000  0.6508444  3
   2782   5608   5599   5600     1  0.0000000  1.6038667  3
   2782   5608   5599   5601     1  0.0000000  1.6038667  3
   2783   2782   5608   5599     1  0.0000000  1.6038667  3
   2784   2782   5608   5599     1  0.0000000  1.6038667  3
   2785   5638   5629   5630     1  0.0000000  1.6038667  3
   2785   5638   5629   5631     1  0.0000000  1.6038667  3
   2786   2785   5638   5629     1  0.0000000  1.6038667  3
   2787   2785   5638   5629     1  0.0000000  1.6038667  3
   2790   2791   2803   2804     1  0.0000000  0.6508444  3
   2790   2791   2803   2805     1  0.0000000  0.6508444  3
   2790   2794   2806   2807     1  0.0000000  0.6508444  3
   2790   2794   2806   2808     1  0.0000000  0.6508444  3
   2790   2797   2800   2801     1  0.0000000  0.6508444  3
   2790   2797   2800   2802     1  0.0000000  0.6508444  3
   2791   2790   2794   2795     1  0.0000000  0.6508444  3
   2791   2790   2794   2796     1  0.0000000  0.6508444  3
   2791   2790   2797   2798     1  0.0000000  0.6508444  3
   2791   2790   2797   2799     1  0.0000000  0.6508444  3
   2791   2803   2815   2816     1  0.0000000  0.6508444  3
   2791   2803   2815   2817     1  0.0000000  0.6508444  3
   2792   2791   2790   2794     1  0.0000000  0.6508444  3
   2792   2791   2790   2797     1  0.0000000  0.6508444  3
   2792   2791   2790   2819     1  0.0000000  0.6508444  3
   2792   2791   2803   2815     1  0.0000000  0.6508444  3
   2792   2791   2803   2804     1  0.0000000  0.6508444  3
   2792   2791   2803   2805     1  0.0000000  0.6508444  3
   2793   2791   2790   2794     1  0.0000000  0.6508444  3
   2793   2791   2790   2797     1  0.0000000  0.6508444  3
   2793   2791   2790   2819     1  0.0000000  0.6508444  3
   2793   2791   2803   2815     1  0.0000000  0.6508444  3
   2793   2791   2803   2804     1  0.0000000  0.6508444  3
   2793   2791   2803   2805     1  0.0000000  0.6508444  3
   2794   2790   2797   2798     1  0.0000000  0.6508444  3
   2794   2790   2797   2799     1  0.0000000  0.6508444  3
   2794   2806   2812   2813     1  0.0000000  0.6508444  3
   2794   2806   2812   2814     1  0.0000000  0.6508444  3
   2795   2794   2790   2797     1  0.0000000  0.6508444  3
   2795   2794   2790   2819     1  0.0000000  0.6508444  3
   2795   2794   2806   2812     1  0.0000000  0.6508444  3
   2795   2794   2806   2807     1  0.0000000  0.6508444  3
   2795   2794   2806   2808     1  0.0000000  0.6508444  3
   2796   2794   2790   2797     1  0.0000000  0.6508444  3
   2796   2794   2790   2819     1  0.0000000  0.6508444  3
   2796   2794   2806   2812     1  0.0000000  0.6508444  3
   2796   2794   2806   2807     1  0.0000000  0.6508444  3
   2796   2794   2806   2808     1  0.0000000  0.6508444  3
   2797   2800   2809   2810     1  0.0000000  0.6508444  3
   2797   2800   2809   2811     1  0.0000000  0.6508444  3
   2798   2797   2790   2819     1  0.0000000  0.6508444  3
   2798   2797   2800   2809     1  0.0000000  0.6508444  3
   2798   2797   2800   2801     1  0.0000000  0.6508444  3
   2798   2797   2800   2802     1  0.0000000  0.6508444  3
   2799   2797   2790   2819     1  0.0000000  0.6508444  3
   2799   2797   2800   2809     1  0.0000000  0.6508444  3
   2799   2797   2800   2801     1  0.0000000  0.6508444  3
   2799   2797   2800   2802     1  0.0000000  0.6508444  3
   2800   2797   2790   2819     1  0.0000000  0.6508444  3
   2801   2800   2809   2818     1  0.0000000  1.0460000  1
   2801   2800   2809   2818     1  0.0000000  0.0000000  3
   2801   2800   2809   2810     1  0.0000000  0.6508444  3
   2801   2800   2809   2811     1  0.0000000  0.6508444  3
   2802   2800   2809   2818     1  0.0000000  1.0460000  1
   2802   2800   2809   2818     1  0.0000000  0.0000000  3
   2802   2800   2809   2810     1  0.0000000  0.6508444  3
   2802   2800   2809   2811     1  0.0000000  0.6508444  3
   2803   2791   2790   2819     1  0.0000000  0.6508444  3
   2804   2803   2815   5698     1  0.0000000  1.0460000  1
   2804   2803   2815   5698     1  0.0000000  0.0000000  3
   2804   2803   2815   2816     1  0.0000000  0.6508444  3
   2804   2803   2815   2817     1  0.0000000  0.6508444  3
   2805   2803   2815   5698     1  0.0000000  1.0460000  1
   2805   2803   2815   5698     1  0.0000000  0.0000000  3
   2805   2803   2815   2816     1  0.0000000  0.6508444  3
   2805   2803   2815   2817     1  0.0000000  0.6508444  3
   2806   2794   2790   2819     1  0.0000000  0.6508444  3
   2807   2806   2812   5668     1  0.0000000  1.0460000  1
   2807   2806   2812   5668     1  0.0000000  0.0000000  3
   2807   2806   2812   2813     1  0.0000000  0.6508444  3
   2807   2806   2812   2814     1  0.0000000  0.6508444  3
   2808   2806   2812   5668     1  0.0000000  1.0460000  1
   2808   2806   2812   5668     1  0.0000000  0.0000000  3
   2808   2806   2812   2813     1  0.0000000  0.6508444  3
   2808   2806   2812   2814     1  0.0000000  0.6508444  3
   2812   5668   5659   5660     1  0.0000000  1.6038667  3
   2812   5668   5659   5661     1  0.0000000  1.6038667  3
   2813   2812   5668   5659     1  0.0000000  1.6038667  3
   2814   2812   5668   5659     1  0.0000000  1.6038667  3
   2815   5698   5689   5690     1  0.0000000  1.6038667  3
   2815   5698   5689   5691     1  0.0000000  1.6038667  3
   2816   2815   5698   5689     1  0.0000000  1.6038667  3
   2817   2815   5698   5689     1  0.0000000  1.6038667  3
   2820   2821   2833   2834     1  0.0000000  0.6508444  3
   2820   2821   2833   2835     1  0.0000000  0.6508444  3
   2820   2824   2836   2837     1  0.0000000  0.6508444  3
   2820   2824   2836   2838     1  0.0000000  0.6508444  3
   2820   2827   2830   2831     1  0.0000000  0.6508444  3
   2820   2827   2830   2832     1  0.0000000  0.6508444  3
   2821   2820   2824   2825     1  0.0000000  0.6508444  3
   2821   2820   2824   2826     1  0.0000000  0.6508444  3
   2821   2820   2827   2828     1  0.0000000  0.6508444  3
   2821   2820   2827   2829     1  0.0000000  0.6508444  3
   2821   2833   2845   2846     1  0.0000000  0.6508444  3
   2821   2833   2845   2847     1  0.0000000  0.6508444  3
   2822   2821   2820   2824     1  0.0000000  0.6508444  3
   2822   2821   2820   2827     1  0.0000000  0.6508444  3
   2822   2821   2820   2849     1  0.0000000  0.6508444  3
   2822   2821   2833   2845     1  0.0000000  0.6508444  3
   2822   2821   2833   2834     1  0.0000000  0.6508444  3
   2822   2821   2833   2835     1  0.0000000  0.6508444  3
   2823   2821   2820   2824     1  0.0000000  0.6508444  3
   2823   2821   2820   2827     1  0.0000000  0.6508444  3
   2823   2821   2820   2849     1  0.0000000  0.6508444  3
   2823   2821   2833   2845     1  0.0000000  0.6508444  3
   2823   2821   2833   2834     1  0.0000000  0.6508444  3
   2823   2821   2833   2835     1  0.0000000  0.6508444  3
   2824   2820   2827   2828     1  0.0000000  0.6508444  3
   2824   2820   2827   2829     1  0.0000000  0.6508444  3
   2824   2836   2842   2843     1  0.0000000  0.6508444  3
   2824   2836   2842   2844     1  0.0000000  0.6508444  3
   2825   2824   2820   2827     1  0.0000000  0.6508444  3
   2825   2824   2820   2849     1  0.0000000  0.6508444  3
   2825   2824   2836   2842     1  0.0000000  0.6508444  3
   2825   2824   2836   2837     1  0.0000000  0.6508444  3
   2825   2824   2836   2838     1  0.0000000  0.6508444  3
   2826   2824   2820   2827     1  0.0000000  0.6508444  3
   2826   2824   2820   2849     1  0.0000000  0.6508444  3
   2826   2824   2836   2842     1  0.0000000  0.6508444  3
   2826   2824   2836   2837     1  0.0000000  0.6508444  3
   2826   2824   2836   2838     1  0.0000000  0.6508444  3
   2827   2830   2839   2840     1  0.0000000  0.6508444  3
   2827   2830   2839   2841     1  0.0000000  0.6508444  3
   2828   2827   2820   2849     1  0.0000000  0.6508444  3
   2828   2827   2830   2839     1  0.0000000  0.6508444  3
   2828   2827   2830   2831     1  0.0000000  0.6508444  3
   2828   2827   2830   2832     1  0.0000000  0.6508444  3
   2829   2827   2820   2849     1  0.0000000  0.6508444  3
   2829   2827   2830   2839     1  0.0000000  0.6508444  3
   2829   2827   2830   2831     1  0.0000000  0.6508444  3
   2829   2827   2830   2832     1  0.0000000  0.6508444  3
   2830   2827   2820   2849     1  0.0000000  0.6508444  3
   2831   2830   2839   2848     1  0.0000000  1.0460000  1
   2831   2830   2839   2848     1  0.0000000  0.0000000  3
   2831   2830   2839   2840     1  0.0000000  0.6508444  3
   2831   2830   2839   2841     1  0.0000000  0.6508444  3
   2832   2830   2839   2848     1  0.0000000  1.0460000  1
   2832   2830   2839   2848     1  0.0000000  0.0000000  3
   2832   2830   2839   2840     1  0.0000000  0.6508444  3
   2832   2830   2839   2841     1  0.0000000  0.6508444  3
   2833   2821   2820   2849     1  0.0000000  0.6508444  3
   2834   2833   2845   5733     1  0.0000000  1.0460000  1
   2834   2833   2845   5733     1  0.0000000  0.0000000  3
   2834   2833   2845   2846     1  0.0000000  0.6508444  3
   2834   2833   2845   2847     1  0.0000000  0.6508444  3
   2835   2833   2845   5733     1  0.0000000  1.0460000  1
   2835   2833   2845   5733     1  0.0000000  0.0000000  3
   2835   2833   2845   2846     1  0.0000000  0.6508444  3
   2835   2833   2845   2847     1  0.0000000  0.6508444  3
   2836   2824   2820   2849     1  0.0000000  0.6508444  3
   2837   2836   2842   5710     1  0.0000000  1.0460000  1
   2837   2836   2842   5710     1  0.0000000  0.0000000  3
   2837   2836   2842   2843     1  0.0000000  0.6508444  3
   2837   2836   2842   2844     1  0.0000000  0.6508444  3
   2838   2836   2842   5710     1  0.0000000  1.0460000  1
   2838   2836   2842   5710     1  0.0000000  0.0000000  3
   2838   2836   2842   2843     1  0.0000000  0.6508444  3
   2838   2836   2842   2844     1  0.0000000  0.6508444  3
   2842   5710   5706   5709     1  0.0000000  1.6038667  3
   2843   2842   5710   5706     1  0.0000000  1.6038667  3
   2844   2842   5710   5706     1  0.0000000  1.6038667  3
   2845   5733   5729   5732     1  0.0000000  1.6038667  3
   2846   2845   5733   5729     1  0.0000000  1.6038667  3
   2847   2845   5733   5729     1  0.0000000  1.6038667  3
   2850   2851   2863   2864     1  0.0000000  0.6508444  3
   2850   2851   2863   2865     1  0.0000000  0.6508444  3
   2850   2854   2866   2867     1  0.0000000  0.6508444  3
   2850   2854   2866   2868     1  0.0000000  0.6508444  3
   2850   2857   2860   2861     1  0.0000000  0.6508444  3
   2850   2857   2860   2862     1  0.0000000  0.6508444  3
   2851   2850   2854   2855     1  0.0000000  0.6508444  3
   2851   2850   2854   2856     1  0.0000000  0.6508444  3
   2851   2850   2857   2858     1  0.0000000  0.6508444  3
   2851   2850   2857   2859     1  0.0000000  0.6508444  3
   2851   2863   2875   2876     1  0.0000000  0.6508444  3
   2851   2863   2875   2877     1  0.0000000  0.6508444  3
   2852   2851   2850   2854     1  0.0000000  0.6508444  3
   2852   2851   2850   2857     1  0.0000000  0.6508444  3
   2852   2851   2850   2879     1  0.0000000  0.6508444  3
   2852   2851   2863   2875     1  0.0000000  0.6508444  3
   2852   2851   2863   2864     1  0.0000000  0.6508444  3
   2852   2851   2863   2865     1  0.0000000  0.6508444  3
   2853   2851   2850   2854     1  0.0000000  0.6508444  3
   2853   2851   2850   2857     1  0.0000000  0.6508444  3
   2853   2851   2850   2879     1  0.0000000  0.6508444  3
   2853   2851   2863   2875     1  0.0000000  0.6508444  3
   2853   2851   2863   2864     1  0.0000000  0.6508444  3
   2853   2851   2863   2865     1  0.0000000  0.6508444  3
   2854   2850   2857   2858     1  0.0000000  0.6508444  3
   2854   2850   2857   2859     1  0.0000000  0.6508444  3
   2854   2866   2872   2873     1  0.0000000  0.6508444  3
   2854   2866   2872   2874     1  0.0000000  0.6508444  3
   2855   2854   2850   2857     1  0.0000000  0.6508444  3
   2855   2854   2850   2879     1  0.0000000  0.6508444  3
   2855   2854   2866   2872     1  0.0000000  0.6508444  3
   2855   2854   2866   2867     1  0.0000000  0.6508444  3
   2855   2854   2866   2868     1  0.0000000  0.6508444  3
   2856   2854   2850   2857     1  0.0000000  0.6508444  3
   2856   2854   2850   2879     1  0.0000000  0.6508444  3
   2856   2854   2866   2872     1  0.0000000  0.6508444  3
   2856   2854   2866   2867     1  0.0000000  0.6508444  3
   2856   2854   2866   2868     1  0.0000000  0.6508444  3
   2857   2860   2869   2870     1  0.0000000  0.6508444  3
   2857   2860   2869   2871     1  0.0000000  0.6508444  3
   2858   2857   2850   2879     1  0.0000000  0.6508444  3
   2858   2857   2860   2869     1  0.0000000  0.6508444  3
   2858   2857   2860   2861     1  0.0000000  0.6508444  3
   2858   2857   2860   2862     1  0.0000000  0.6508444  3
   2859   2857   2850   2879     1  0.0000000  0.6508444  3
   2859   2857   2860   2869     1  0.0000000  0.6508444  3
   2859   2857   2860   2861     1  0.0000000  0.6508444  3
   2859   2857   2860   2862     1  0.0000000  0.6508444  3
   2860   2857   2850   2879     1  0.0000000  0.6508444  3
   2861   2860   2869   2878     1  0.0000000  1.0460000  1
   2861   2860   2869   2878     1  0.0000000  0.0000000  3
   2861   2860   2869   2870     1  0.0000000  0.6508444  3
   2861   2860   2869   2871     1  0.0000000  0.6508444  3
   2862   2860   2869   2878     1  0.0000000  1.0460000  1
   2862   2860   2869   2878     1  0.0000000  0.0000000  3
   2862   2860   2869   2870     1  0.0000000  0.6508444  3
   2862   2860   2869   2871     1  0.0000000  0.6508444  3
   2863   2851   2850   2879     1  0.0000000  0.6508444  3
   2864   2863   2875   5779     1  0.0000000  1.0460000  1
   2864   2863   2875   5779     1  0.0000000  0.0000000  3
   2864   2863   2875   2876     1  0.0000000  0.6508444  3
   2864   2863   2875   2877     1  0.0000000  0.6508444  3
   2865   2863   2875   5779     1  0.0000000  1.0460000  1
   2865   2863   2875   5779     1  0.0000000  0.0000000  3
   2865   2863   2875   2876     1  0.0000000  0.6508444  3
   2865   2863   2875   2877     1  0.0000000  0.6508444  3
   2866   2854   2850   2879     1  0.0000000  0.6508444  3
   2867   2866   2872   5756     1  0.0000000  1.0460000  1
   2867   2866   2872   5756     1  0.0000000  0.0000000  3
   2867   2866   2872   2873     1  0.0000000  0.6508444  3
   2867   2866   2872   2874     1  0.0000000  0.6508444  3
   2868   2866   2872   5756     1  0.0000000  1.0460000  1
   2868   2866   2872   5756     1  0.0000000  0.0000000  3
   2868   2866   2872   2873     1  0.0000000  0.6508444  3
   2868   2866   2872   2874     1  0.0000000  0.6508444  3
   2872   5756   5752   5755     1  0.0000000  1.6038667  3
   2873   2872   5756   5752     1  0.0000000  1.6038667  3
   2874   2872   5756   5752     1  0.0000000  1.6038667  3
   2875   5779   5775   5778     1  0.0000000  1.6038667  3
   2876   2875   5779   5775     1  0.0000000  1.6038667  3
   2877   2875   5779   5775     1  0.0000000  1.6038667  3
   2880   2881   2893   2894     1  0.0000000  0.6508444  3
   2880   2881   2893   2895     1  0.0000000  0.6508444  3
   2880   2884   2896   2897     1  0.0000000  0.6508444  3
   2880   2884   2896   2898     1  0.0000000  0.6508444  3
   2880   2887   2890   2891     1  0.0000000  0.6508444  3
   2880   2887   2890   2892     1  0.0000000  0.6508444  3
   2881   2880   2884   2885     1  0.0000000  0.6508444  3
   2881   2880   2884   2886     1  0.0000000  0.6508444  3
   2881   2880   2887   2888     1  0.0000000  0.6508444  3
   2881   2880   2887   2889     1  0.0000000  0.6508444  3
   2881   2893   2905   2906     1  0.0000000  0.6508444  3
   2881   2893   2905   2907     1  0.0000000  0.6508444  3
   2882   2881   2880   2884     1  0.0000000  0.6508444  3
   2882   2881   2880   2887     1  0.0000000  0.6508444  3
   2882   2881   2880   2909     1  0.0000000  0.6508444  3
   2882   2881   2893   2905     1  0.0000000  0.6508444  3
   2882   2881   2893   2894     1  0.0000000  0.6508444  3
   2882   2881   2893   2895     1  0.0000000  0.6508444  3
   2883   2881   2880   2884     1  0.0000000  0.6508444  3
   2883   2881   2880   2887     1  0.0000000  0.6508444  3
   2883   2881   2880   2909     1  0.0000000  0.6508444  3
   2883   2881   2893   2905     1  0.0000000  0.6508444  3
   2883   2881   2893   2894     1  0.0000000  0.6508444  3
   2883   2881   2893   2895     1  0.0000000  0.6508444  3
   2884   2880   2887   2888     1  0.0000000  0.6508444  3
   2884   2880   2887   2889     1  0.0000000  0.6508444  3
   2884   2896   2902   2903     1  0.0000000  0.6508444  3
   2884   2896   2902   2904     1  0.0000000  0.6508444  3
   2885   2884   2880   2887     1  0.0000000  0.6508444  3
   2885   2884   2880   2909     1  0.0000000  0.6508444  3
   2885   2884   2896   2902     1  0.0000000  0.6508444  3
   2885   2884   2896   2897     1  0.0000000  0.6508444  3
   2885   2884   2896   2898     1  0.0000000  0.6508444  3
   2886   2884   2880   2887     1  0.0000000  0.6508444  3
   2886   2884   2880   2909     1  0.0000000  0.6508444  3
   2886   2884   2896   2902     1  0.0000000  0.6508444  3
   2886   2884   2896   2897     1  0.0000000  0.6508444  3
   2886   2884   2896   2898     1  0.0000000  0.6508444  3
   2887   2890   2899   2900     1  0.0000000  0.6508444  3
   2887   2890   2899   2901     1  0.0000000  0.6508444  3
   2888   2887   2880   2909     1  0.0000000  0.6508444  3
   2888   2887   2890   2899     1  0.0000000  0.6508444  3
   2888   2887   2890   2891     1  0.0000000  0.6508444  3
   2888   2887   2890   2892     1  0.0000000  0.6508444  3
   2889   2887   2880   2909     1  0.0000000  0.6508444  3
   2889   2887   2890   2899     1  0.0000000  0.6508444  3
   2889   2887   2890   2891     1  0.0000000  0.6508444  3
   2889   2887   2890   2892     1  0.0000000  0.6508444  3
   2890   2887   2880   2909     1  0.0000000  0.6508444  3
   2891   2890   2899   2908     1  0.0000000  1.0460000  1
   2891   2890   2899   2908     1  0.0000000  0.0000000  3
   2891   2890   2899   2900     1  0.0000000  0.6508444  3
   2891   2890   2899   2901     1  0.0000000  0.6508444  3
   2892   2890   2899   2908     1  0.0000000  1.0460000  1
   2892   2890   2899   2908     1  0.0000000  0.0000000  3
   2892   2890   2899   2900     1  0.0000000  0.6508444  3
   2892   2890   2899   2901     1  0.0000000  0.6508444  3
   2893   2881   2880   2909     1  0.0000000  0.6508444  3
   2894   2893   2905   5825     1  0.0000000  1.0460000  1
   2894   2893   2905   5825     1  0.0000000  0.0000000  3
   2894   2893   2905   2906     1  0.0000000  0.6508444  3
   2894   2893   2905   2907     1  0.0000000  0.6508444  3
   2895   2893   2905   5825     1  0.0000000  1.0460000  1
   2895   2893   2905   5825     1  0.0000000  0.0000000  3
   2895   2893   2905   2906     1  0.0000000  0.6508444  3
   2895   2893   2905   2907     1  0.0000000  0.6508444  3
   2896   2884   2880   2909     1  0.0000000  0.6508444  3
   2897   2896   2902   5802     1  0.0000000  1.0460000  1
   2897   2896   2902   5802     1  0.0000000  0.0000000  3
   2897   2896   2902   2903     1  0.0000000  0.6508444  3
   2897   2896   2902   2904     1  0.0000000  0.6508444  3
   2898   2896   2902   5802     1  0.0000000  1.0460000  1
   2898   2896   2902   5802     1  0.0000000  0.0000000  3
   2898   2896   2902   2903     1  0.0000000  0.6508444  3
   2898   2896   2902   2904     1  0.0000000  0.6508444  3
   2902   5802   5798   5801     1  0.0000000  1.6038667  3
   2903   2902   5802   5798     1  0.0000000  1.6038667  3
   2904   2902   5802   5798     1  0.0000000  1.6038667  3
   2905   5825   5821   5824     1  0.0000000  1.6038667  3
   2906   2905   5825   5821     1  0.0000000  1.6038667  3
   2907   2905   5825   5821     1  0.0000000  1.6038667  3
   2910   2911   2923   2924     1  0.0000000  0.6508444  3
   2910   2911   2923   2925     1  0.0000000  0.6508444  3
   2910   2914   2926   2927     1  0.0000000  0.6508444  3
   2910   2914   2926   2928     1  0.0000000  0.6508444  3
   2910   2917   2920   2921     1  0.0000000  0.6508444  3
   2910   2917   2920   2922     1  0.0000000  0.6508444  3
   2911   2910   2914   2915     1  0.0000000  0.6508444  3
   2911   2910   2914   2916     1  0.0000000  0.6508444  3
   2911   2910   2917   2918     1  0.0000000  0.6508444  3
   2911   2910   2917   2919     1  0.0000000  0.6508444  3
   2911   2923   2935   2936     1  0.0000000  0.6508444  3
   2911   2923   2935   2937     1  0.0000000  0.6508444  3
   2912   2911   2910   2914     1  0.0000000  0.6508444  3
   2912   2911   2910   2917     1  0.0000000  0.6508444  3
   2912   2911   2910   2939     1  0.0000000  0.6508444  3
   2912   2911   2923   2935     1  0.0000000  0.6508444  3
   2912   2911   2923   2924     1  0.0000000  0.6508444  3
   2912   2911   2923   2925     1  0.0000000  0.6508444  3
   2913   2911   2910   2914     1  0.0000000  0.6508444  3
   2913   2911   2910   2917     1  0.0000000  0.6508444  3
   2913   2911   2910   2939     1  0.0000000  0.6508444  3
   2913   2911   2923   2935     1  0.0000000  0.6508444  3
   2913   2911   2923   2924     1  0.0000000  0.6508444  3
   2913   2911   2923   2925     1  0.0000000  0.6508444  3
   2914   2910   2917   2918     1  0.0000000  0.6508444  3
   2914   2910   2917   2919     1  0.0000000  0.6508444  3
   2914   2926   2932   2933     1  0.0000000  0.6508444  3
   2914   2926   2932   2934     1  0.0000000  0.6508444  3
   2915   2914   2910   2917     1  0.0000000  0.6508444  3
   2915   2914   2910   2939     1  0.0000000  0.6508444  3
   2915   2914   2926   2932     1  0.0000000  0.6508444  3
   2915   2914   2926   2927     1  0.0000000  0.6508444  3
   2915   2914   2926   2928     1  0.0000000  0.6508444  3
   2916   2914   2910   2917     1  0.0000000  0.6508444  3
   2916   2914   2910   2939     1  0.0000000  0.6508444  3
   2916   2914   2926   2932     1  0.0000000  0.6508444  3
   2916   2914   2926   2927     1  0.0000000  0.6508444  3
   2916   2914   2926   2928     1  0.0000000  0.6508444  3
   2917   2920   2929   2930     1  0.0000000  0.6508444  3
   2917   2920   2929   2931     1  0.0000000  0.6508444  3
   2918   2917   2910   2939     1  0.0000000  0.6508444  3
   2918   2917   2920   2929     1  0.0000000  0.6508444  3
   2918   2917   2920   2921     1  0.0000000  0.6508444  3
   2918   2917   2920   2922     1  0.0000000  0.6508444  3
   2919   2917   2910   2939     1  0.0000000  0.6508444  3
   2919   2917   2920   2929     1  0.0000000  0.6508444  3
   2919   2917   2920   2921     1  0.0000000  0.6508444  3
   2919   2917   2920   2922     1  0.0000000  0.6508444  3
   2920   2917   2910   2939     1  0.0000000  0.6508444  3
   2921   2920   2929   2938     1  0.0000000  1.0460000  1
   2921   2920   2929   2938     1  0.0000000  0.0000000  3
   2921   2920   2929   2930     1  0.0000000  0.6508444  3
   2921   2920   2929   2931     1  0.0000000  0.6508444  3
   2922   2920   2929   2938     1  0.0000000  1.0460000  1
   2922   2920   2929   2938     1  0.0000000  0.0000000  3
   2922   2920   2929   2930     1  0.0000000  0.6508444  3
   2922   2920   2929   2931     1  0.0000000  0.6508444  3
   2923   2911   2910   2939     1  0.0000000  0.6508444  3
   2924   2923   2935   5871     1  0.0000000  1.0460000  1
   2924   2923   2935   5871     1  0.0000000  0.0000000  3
   2924   2923   2935   2936     1  0.0000000  0.6508444  3
   2924   2923   2935   2937     1  0.0000000  0.6508444  3
   2925   2923   2935   5871     1  0.0000000  1.0460000  1
   2925   2923   2935   5871     1  0.0000000  0.0000000  3
   2925   2923   2935   2936     1  0.0000000  0.6508444  3
   2925   2923   2935   2937     1  0.0000000  0.6508444  3
   2926   2914   2910   2939     1  0.0000000  0.6508444  3
   2927   2926   2932   5848     1  0.0000000  1.0460000  1
   2927   2926   2932   5848     1  0.0000000  0.0000000  3
   2927   2926   2932   2933     1  0.0000000  0.6508444  3
   2927   2926   2932   2934     1  0.0000000  0.6508444  3
   2928   2926   2932   5848     1  0.0000000  1.0460000  1
   2928   2926   2932   5848     1  0.0000000  0.0000000  3
   2928   2926   2932   2933     1  0.0000000  0.6508444  3
   2928   2926   2932   2934     1  0.0000000  0.6508444  3
   2932   5848   5844   5847     1  0.0000000  1.6038667  3
   2933   2932   5848   5844     1  0.0000000  1.6038667  3
   2934   2932   5848   5844     1  0.0000000  1.6038667  3
   2935   5871   5867   5870     1  0.0000000  1.6038667  3
   2936   2935   5871   5867     1  0.0000000  1.6038667  3
   2937   2935   5871   5867     1  0.0000000  1.6038667  3
   2940   2941   2953   2954     1  0.0000000  0.6508444  3
   2940   2941   2953   2955     1  0.0000000  0.6508444  3
   2940   2944   2956   2957     1  0.0000000  0.6508444  3
   2940   2944   2956   2958     1  0.0000000  0.6508444  3
   2940   2947   2950   2951     1  0.0000000  0.6508444  3
   2940   2947   2950   2952     1  0.0000000  0.6508444  3
   2941   2940   2944   2945     1  0.0000000  0.6508444  3
   2941   2940   2944   2946     1  0.0000000  0.6508444  3
   2941   2940   2947   2948     1  0.0000000  0.6508444  3
   2941   2940   2947   2949     1  0.0000000  0.6508444  3
   2941   2953   2965   2966     1  0.0000000  0.6508444  3
   2941   2953   2965   2967     1  0.0000000  0.6508444  3
   2942   2941   2940   2944     1  0.0000000  0.6508444  3
   2942   2941   2940   2947     1  0.0000000  0.6508444  3
   2942   2941   2940   2969     1  0.0000000  0.6508444  3
   2942   2941   2953   2965     1  0.0000000  0.6508444  3
   2942   2941   2953   2954     1  0.0000000  0.6508444  3
   2942   2941   2953   2955     1  0.0000000  0.6508444  3
   2943   2941   2940   2944     1  0.0000000  0.6508444  3
   2943   2941   2940   2947     1  0.0000000  0.6508444  3
   2943   2941   2940   2969     1  0.0000000  0.6508444  3
   2943   2941   2953   2965     1  0.0000000  0.6508444  3
   2943   2941   2953   2954     1  0.0000000  0.6508444  3
   2943   2941   2953   2955     1  0.0000000  0.6508444  3
   2944   2940   2947   2948     1  0.0000000  0.6508444  3
   2944   2940   2947   2949     1  0.0000000  0.6508444  3
   2944   2956   2962   2963     1  0.0000000  0.6508444  3
   2944   2956   2962   2964     1  0.0000000  0.6508444  3
   2945   2944   2940   2947     1  0.0000000  0.6508444  3
   2945   2944   2940   2969     1  0.0000000  0.6508444  3
   2945   2944   2956   2962     1  0.0000000  0.6508444  3
   2945   2944   2956   2957     1  0.0000000  0.6508444  3
   2945   2944   2956   2958     1  0.0000000  0.6508444  3
   2946   2944   2940   2947     1  0.0000000  0.6508444  3
   2946   2944   2940   2969     1  0.0000000  0.6508444  3
   2946   2944   2956   2962     1  0.0000000  0.6508444  3
   2946   2944   2956   2957     1  0.0000000  0.6508444  3
   2946   2944   2956   2958     1  0.0000000  0.6508444  3
   2947   2950   2959   2960     1  0.0000000  0.6508444  3
   2947   2950   2959   2961     1  0.0000000  0.6508444  3
   2948   2947   2940   2969     1  0.0000000  0.6508444  3
   2948   2947   2950   2959     1  0.0000000  0.6508444  3
   2948   2947   2950   2951     1  0.0000000  0.6508444  3
   2948   2947   2950   2952     1  0.0000000  0.6508444  3
   2949   2947   2940   2969     1  0.0000000  0.6508444  3
   2949   2947   2950   2959     1  0.0000000  0.6508444  3
   2949   2947   2950   2951     1  0.0000000  0.6508444  3
   2949   2947   2950   2952     1  0.0000000  0.6508444  3
   2950   2947   2940   2969     1  0.0000000  0.6508444  3
   2951   2950   2959   2968     1  0.0000000  1.0460000  1
   2951   2950   2959   2968     1  0.0000000  0.0000000  3
   2951   2950   2959   2960     1  0.0000000  0.6508444  3
   2951   2950   2959   2961     1  0.0000000  0.6508444  3
   2952   2950   2959   2968     1  0.0000000  1.0460000  1
   2952   2950   2959   2968     1  0.0000000  0.0000000  3
   2952   2950   2959   2960     1  0.0000000  0.6508444  3
   2952   2950   2959   2961     1  0.0000000  0.6508444  3
   2953   2941   2940   2969     1  0.0000000  0.6508444  3
   2954   2953   2965   5917     1  0.0000000  1.0460000  1
   2954   2953   2965   5917     1  0.0000000  0.0000000  3
   2954   2953   2965   2966     1  0.0000000  0.6508444  3
   2954   2953   2965   2967     1  0.0000000  0.6508444  3
   2955   2953   2965   5917     1  0.0000000  1.0460000  1
   2955   2953   2965   5917     1  0.0000000  0.0000000  3
   2955   2953   2965   2966     1  0.0000000  0.6508444  3
   2955   2953   2965   2967     1  0.0000000  0.6508444  3
   2956   2944   2940   2969     1  0.0000000  0.6508444  3
   2957   2956   2962   5894     1  0.0000000  1.0460000  1
   2957   2956   2962   5894     1  0.0000000  0.0000000  3
   2957   2956   2962   2963     1  0.0000000  0.6508444  3
   2957   2956   2962   2964     1  0.0000000  0.6508444  3
   2958   2956   2962   5894     1  0.0000000  1.0460000  1
   2958   2956   2962   5894     1  0.0000000  0.0000000  3
   2958   2956   2962   2963     1  0.0000000  0.6508444  3
   2958   2956   2962   2964     1  0.0000000  0.6508444  3
   2962   5894   5890   5893     1  0.0000000  1.6038667  3
   2963   2962   5894   5890     1  0.0000000  1.6038667  3
   2964   2962   5894   5890     1  0.0000000  1.6038667  3
   2965   5917   5913   5916     1  0.0000000  1.6038667  3
   2966   2965   5917   5913     1  0.0000000  1.6038667  3
   2967   2965   5917   5913     1  0.0000000  1.6038667  3
   2970   2971   2983   2984     1  0.0000000  0.6508444  3
   2970   2971   2983   2985     1  0.0000000  0.6508444  3
   2970   2974   2986   2987     1  0.0000000  0.6508444  3
   2970   2974   2986   2988     1  0.0000000  0.6508444  3
   2970   2977   2980   2981     1  0.0000000  0.6508444  3
   2970   2977   2980   2982     1  0.0000000  0.6508444  3
   2971   2970   2974   2975     1  0.0000000  0.6508444  3
   2971   2970   2974   2976     1  0.0000000  0.6508444  3
   2971   2970   2977   2978     1  0.0000000  0.6508444  3
   2971   2970   2977   2979     1  0.0000000  0.6508444  3
   2971   2983   2995   2996     1  0.0000000  0.6508444  3
   2971   2983   2995   2997     1  0.0000000  0.6508444  3
   2972   2971   2970   2974     1  0.0000000  0.6508444  3
   2972   2971   2970   2977     1  0.0000000  0.6508444  3
   2972   2971   2970   2999     1  0.0000000  0.6508444  3
   2972   2971   2983   2995     1  0.0000000  0.6508444  3
   2972   2971   2983   2984     1  0.0000000  0.6508444  3
   2972   2971   2983   2985     1  0.0000000  0.6508444  3
   2973   2971   2970   2974     1  0.0000000  0.6508444  3
   2973   2971   2970   2977     1  0.0000000  0.6508444  3
   2973   2971   2970   2999     1  0.0000000  0.6508444  3
   2973   2971   2983   2995     1  0.0000000  0.6508444  3
   2973   2971   2983   2984     1  0.0000000  0.6508444  3
   2973   2971   2983   2985     1  0.0000000  0.6508444  3
   2974   2970   2977   2978     1  0.0000000  0.6508444  3
   2974   2970   2977   2979     1  0.0000000  0.6508444  3
   2974   2986   2992   2993     1  0.0000000  0.6508444  3
   2974   2986   2992   2994     1  0.0000000  0.6508444  3
   2975   2974   2970   2977     1  0.0000000  0.6508444  3
   2975   2974   2970   2999     1  0.0000000  0.6508444  3
   2975   2974   2986   2992     1  0.0000000  0.6508444  3
   2975   2974   2986   2987     1  0.0000000  0.6508444  3
   2975   2974   2986   2988     1  0.0000000  0.6508444  3
   2976   2974   2970   2977     1  0.0000000  0.6508444  3
   2976   2974   2970   2999     1  0.0000000  0.6508444  3
   2976   2974   2986   2992     1  0.0000000  0.6508444  3
   2976   2974   2986   2987     1  0.0000000  0.6508444  3
   2976   2974   2986   2988     1  0.0000000  0.6508444  3
   2977   2980   2989   2990     1  0.0000000  0.6508444  3
   2977   2980   2989   2991     1  0.0000000  0.6508444  3
   2978   2977   2970   2999     1  0.0000000  0.6508444  3
   2978   2977   2980   2989     1  0.0000000  0.6508444  3
   2978   2977   2980   2981     1  0.0000000  0.6508444  3
   2978   2977   2980   2982     1  0.0000000  0.6508444  3
   2979   2977   2970   2999     1  0.0000000  0.6508444  3
   2979   2977   2980   2989     1  0.0000000  0.6508444  3
   2979   2977   2980   2981     1  0.0000000  0.6508444  3
   2979   2977   2980   2982     1  0.0000000  0.6508444  3
   2980   2977   2970   2999     1  0.0000000  0.6508444  3
   2981   2980   2989   2998     1  0.0000000  1.0460000  1
   2981   2980   2989   2998     1  0.0000000  0.0000000  3
   2981   2980   2989   2990     1  0.0000000  0.6508444  3
   2981   2980   2989   2991     1  0.0000000  0.6508444  3
   2982   2980   2989   2998     1  0.0000000  1.0460000  1
   2982   2980   2989   2998     1  0.0000000  0.0000000  3
   2982   2980   2989   2990     1  0.0000000  0.6508444  3
   2982   2980   2989   2991     1  0.0000000  0.6508444  3
   2983   2971   2970   2999     1  0.0000000  0.6508444  3
   2984   2983   2995   5963     1  0.0000000  1.0460000  1
   2984   2983   2995   5963     1  0.0000000  0.0000000  3
   2984   2983   2995   2996     1  0.0000000  0.6508444  3
   2984   2983   2995   2997     1  0.0000000  0.6508444  3
   2985   2983   2995   5963     1  0.0000000  1.0460000  1
   2985   2983   2995   5963     1  0.0000000  0.0000000  3
   2985   2983   2995   2996     1  0.0000000  0.6508444  3
   2985   2983   2995   2997     1  0.0000000  0.6508444  3
   2986   2974   2970   2999     1  0.0000000  0.6508444  3
   2987   2986   2992   5940     1  0.0000000  1.0460000  1
   2987   2986   2992   5940     1  0.0000000  0.0000000  3
   2987   2986   2992   2993     1  0.0000000  0.6508444  3
   2987   2986   2992   2994     1  0.0000000  0.6508444  3
   2988   2986   2992   5940     1  0.0000000  1.0460000  1
   2988   2986   2992   5940     1  0.0000000  0.0000000  3
   2988   2986   2992   2993     1  0.0000000  0.6508444  3
   2988   2986   2992   2994     1  0.0000000  0.6508444  3
   2992   5940   5936   5939     1  0.0000000  1.6038667  3
   2993   2992   5940   5936     1  0.0000000  1.6038667  3
   2994   2992   5940   5936     1  0.0000000  1.6038667  3
   2995   5963   5959   5962     1  0.0000000  1.6038667  3
   2996   2995   5963   5959     1  0.0000000  1.6038667  3
   2997   2995   5963   5959     1  0.0000000  1.6038667  3
   3000   3001   3013   3014     1  0.0000000  0.6508444  3
   3000   3001   3013   3015     1  0.0000000  0.6508444  3
   3000   3004   3016   3017     1  0.0000000  0.6508444  3
   3000   3004   3016   3018     1  0.0000000  0.6508444  3
   3000   3007   3010   3011     1  0.0000000  0.6508444  3
   3000   3007   3010   3012     1  0.0000000  0.6508444  3
   3001   3000   3004   3005     1  0.0000000  0.6508444  3
   3001   3000   3004   3006     1  0.0000000  0.6508444  3
   3001   3000   3007   3008     1  0.0000000  0.6508444  3
   3001   3000   3007   3009     1  0.0000000  0.6508444  3
   3001   3013   3025   3026     1  0.0000000  0.6508444  3
   3001   3013   3025   3027     1  0.0000000  0.6508444  3
   3002   3001   3000   3004     1  0.0000000  0.6508444  3
   3002   3001   3000   3007     1  0.0000000  0.6508444  3
   3002   3001   3000   3029     1  0.0000000  0.6508444  3
   3002   3001   3013   3025     1  0.0000000  0.6508444  3
   3002   3001   3013   3014     1  0.0000000  0.6508444  3
   3002   3001   3013   3015     1  0.0000000  0.6508444  3
   3003   3001   3000   3004     1  0.0000000  0.6508444  3
   3003   3001   3000   3007     1  0.0000000  0.6508444  3
   3003   3001   3000   3029     1  0.0000000  0.6508444  3
   3003   3001   3013   3025     1  0.0000000  0.6508444  3
   3003   3001   3013   3014     1  0.0000000  0.6508444  3
   3003   3001   3013   3015     1  0.0000000  0.6508444  3
   3004   3000   3007   3008     1  0.0000000  0.6508444  3
   3004   3000   3007   3009     1  0.0000000  0.6508444  3
   3004   3016   3022   3023     1  0.0000000  0.6508444  3
   3004   3016   3022   3024     1  0.0000000  0.6508444  3
   3005   3004   3000   3007     1  0.0000000  0.6508444  3
   3005   3004   3000   3029     1  0.0000000  0.6508444  3
   3005   3004   3016   3022     1  0.0000000  0.6508444  3
   3005   3004   3016   3017     1  0.0000000  0.6508444  3
   3005   3004   3016   3018     1  0.0000000  0.6508444  3
   3006   3004   3000   3007     1  0.0000000  0.6508444  3
   3006   3004   3000   3029     1  0.0000000  0.6508444  3
   3006   3004   3016   3022     1  0.0000000  0.6508444  3
   3006   3004   3016   3017     1  0.0000000  0.6508444  3
   3006   3004   3016   3018     1  0.0000000  0.6508444  3
   3007   3010   3019   3020     1  0.0000000  0.6508444  3
   3007   3010   3019   3021     1  0.0000000  0.6508444  3
   3008   3007   3000   3029     1  0.0000000  0.6508444  3
   3008   3007   3010   3019     1  0.0000000  0.6508444  3
   3008   3007   3010   3011     1  0.0000000  0.6508444  3
   3008   3007   3010   3012     1  0.0000000  0.6508444  3
   3009   3007   3000   3029     1  0.0000000  0.6508444  3
   3009   3007   3010   3019     1  0.0000000  0.6508444  3
   3009   3007   3010   3011     1  0.0000000  0.6508444  3
   3009   3007   3010   3012     1  0.0000000  0.6508444  3
   3010   3007   3000   3029     1  0.0000000  0.6508444  3
   3011   3010   3019   3028     1  0.0000000  1.0460000  1
   3011   3010   3019   3028     1  0.0000000  0.0000000  3
   3011   3010   3019   3020     1  0.0000000  0.6508444  3
   3011   3010   3019   3021     1  0.0000000  0.6508444  3
   3012   3010   3019   3028     1  0.0000000  1.0460000  1
   3012   3010   3019   3028     1  0.0000000  0.0000000  3
   3012   3010   3019   3020     1  0.0000000  0.6508444  3
   3012   3010   3019   3021     1  0.0000000  0.6508444  3
   3013   3001   3000   3029     1  0.0000000  0.6508444  3
   3014   3013   3025   6009     1  0.0000000  1.0460000  1
   3014   3013   3025   6009     1  0.0000000  0.0000000  3
   3014   3013   3025   3026     1  0.0000000  0.6508444  3
   3014   3013   3025   3027     1  0.0000000  0.6508444  3
   3015   3013   3025   6009     1  0.0000000  1.0460000  1
   3015   3013   3025   6009     1  0.0000000  0.0000000  3
   3015   3013   3025   3026     1  0.0000000  0.6508444  3
   3015   3013   3025   3027     1  0.0000000  0.6508444  3
   3016   3004   3000   3029     1  0.0000000  0.6508444  3
   3017   3016   3022   5986     1  0.0000000  1.0460000  1
   3017   3016   3022   5986     1  0.0000000  0.0000000  3
   3017   3016   3022   3023     1  0.0000000  0.6508444  3
   3017   3016   3022   3024     1  0.0000000  0.6508444  3
   3018   3016   3022   5986     1  0.0000000  1.0460000  1
   3018   3016   3022   5986     1  0.0000000  0.0000000  3
   3018   3016   3022   3023     1  0.0000000  0.6508444  3
   3018   3016   3022   3024     1  0.0000000  0.6508444  3
   3022   5986   5982   5985     1  0.0000000  1.6038667  3
   3023   3022   5986   5982     1  0.0000000  1.6038667  3
   3024   3022   5986   5982     1  0.0000000  1.6038667  3
   3025   6009   6005   6008     1  0.0000000  1.6038667  3
   3026   3025   6009   6005     1  0.0000000  1.6038667  3
   3027   3025   6009   6005     1  0.0000000  1.6038667  3
   3030   3031   3043   3044     1  0.0000000  0.6508444  3
   3030   3031   3043   3045     1  0.0000000  0.6508444  3
   3030   3034   3046   3047     1  0.0000000  0.6508444  3
   3030   3034   3046   3048     1  0.0000000  0.6508444  3
   3030   3037   3040   3041     1  0.0000000  0.6508444  3
   3030   3037   3040   3042     1  0.0000000  0.6508444  3
   3031   3030   3034   3035     1  0.0000000  0.6508444  3
   3031   3030   3034   3036     1  0.0000000  0.6508444  3
   3031   3030   3037   3038     1  0.0000000  0.6508444  3
   3031   3030   3037   3039     1  0.0000000  0.6508444  3
   3031   3043   3055   3056     1  0.0000000  0.6508444  3
   3031   3043   3055   3057     1  0.0000000  0.6508444  3
   3032   3031   3030   3034     1  0.0000000  0.6508444  3
   3032   3031   3030   3037     1  0.0000000  0.6508444  3
   3032   3031   3030   3059     1  0.0000000  0.6508444  3
   3032   3031   3043   3055     1  0.0000000  0.6508444  3
   3032   3031   3043   3044     1  0.0000000  0.6508444  3
   3032   3031   3043   3045     1  0.0000000  0.6508444  3
   3033   3031   3030   3034     1  0.0000000  0.6508444  3
   3033   3031   3030   3037     1  0.0000000  0.6508444  3
   3033   3031   3030   3059     1  0.0000000  0.6508444  3
   3033   3031   3043   3055     1  0.0000000  0.6508444  3
   3033   3031   3043   3044     1  0.0000000  0.6508444  3
   3033   3031   3043   3045     1  0.0000000  0.6508444  3
   3034   3030   3037   3038     1  0.0000000  0.6508444  3
   3034   3030   3037   3039     1  0.0000000  0.6508444  3
   3034   3046   3052   3053     1  0.0000000  0.6508444  3
   3034   3046   3052   3054     1  0.0000000  0.6508444  3
   3035   3034   3030   3037     1  0.0000000  0.6508444  3
   3035   3034   3030   3059     1  0.0000000  0.6508444  3
   3035   3034   3046   3052     1  0.0000000  0.6508444  3
   3035   3034   3046   3047     1  0.0000000  0.6508444  3
   3035   3034   3046   3048     1  0.0000000  0.6508444  3
   3036   3034   3030   3037     1  0.0000000  0.6508444  3
   3036   3034   3030   3059     1  0.0000000  0.6508444  3
   3036   3034   3046   3052     1  0.0000000  0.6508444  3
   3036   3034   3046   3047     1  0.0000000  0.6508444  3
   3036   3034   3046   3048     1  0.0000000  0.6508444  3
   3037   3040   3049   3050     1  0.0000000  0.6508444  3
   3037   3040   3049   3051     1  0.0000000  0.6508444  3
   3038   3037   3030   3059     1  0.0000000  0.6508444  3
   3038   3037   3040   3049     1  0.0000000  0.6508444  3
   3038   3037   3040   3041     1  0.0000000  0.6508444  3
   3038   3037   3040   3042     1  0.0000000  0.6508444  3
   3039   3037   3030   3059     1  0.0000000  0.6508444  3
   3039   3037   3040   3049     1  0.0000000  0.6508444  3
   3039   3037   3040   3041     1  0.0000000  0.6508444  3
   3039   3037   3040   3042     1  0.0000000  0.6508444  3
   3040   3037   3030   3059     1  0.0000000  0.6508444  3
   3041   3040   3049   3058     1  0.0000000  1.0460000  1
   3041   3040   3049   3058     1  0.0000000  0.0000000  3
   3041   3040   3049   3050     1  0.0000000  0.6508444  3
   3041   3040   3049   3051     1  0.0000000  0.6508444  3
   3042   3040   3049   3058     1  0.0000000  1.0460000  1
   3042   3040   3049   3058     1  0.0000000  0.0000000  3
   3042   3040   3049   3050     1  0.0000000  0.6508444  3
   3042   3040   3049   3051     1  0.0000000  0.6508444  3
   3043   3031   3030   3059     1  0.0000000  0.6508444  3
   3044   3043   3055   6055     1  0.0000000  1.0460000  1
   3044   3043   3055   6055     1  0.0000000  0.0000000  3
   3044   3043   3055   3056     1  0.0000000  0.6508444  3
   3044   3043   3055   3057     1  0.0000000  0.6508444  3
   3045   3043   3055   6055     1  0.0000000  1.0460000  1
   3045   3043   3055   6055     1  0.0000000  0.0000000  3
   3045   3043   3055   3056     1  0.0000000  0.6508444  3
   3045   3043   3055   3057     1  0.0000000  0.6508444  3
   3046   3034   3030   3059     1  0.0000000  0.6508444  3
   3047   3046   3052   6032     1  0.0000000  1.0460000  1
   3047   3046   3052   6032     1  0.0000000  0.0000000  3
   3047   3046   3052   3053     1  0.0000000  0.6508444  3
   3047   3046   3052   3054     1  0.0000000  0.6508444  3
   3048   3046   3052   6032     1  0.0000000  1.0460000  1
   3048   3046   3052   6032     1  0.0000000  0.0000000  3
   3048   3046   3052   3053     1  0.0000000  0.6508444  3
   3048   3046   3052   3054     1  0.0000000  0.6508444  3
   3052   6032   6028   6031     1  0.0000000  1.6038667  3
   3053   3052   6032   6028     1  0.0000000  1.6038667  3
   3054   3052   6032   6028     1  0.0000000  1.6038667  3
   3055   6055   6051   6054     1  0.0000000  1.6038667  3
   3056   3055   6055   6051     1  0.0000000  1.6038667  3
   3057   3055   6055   6051     1  0.0000000  1.6038667  3
   3060   3061   3073   3074     1  0.0000000  0.6508444  3
   3060   3061   3073   3075     1  0.0000000  0.6508444  3
   3060   3064   3076   3077     1  0.0000000  0.6508444  3
   3060   3064   3076   3078     1  0.0000000  0.6508444  3
   3060   3067   3070   3071     1  0.0000000  0.6508444  3
   3060   3067   3070   3072     1  0.0000000  0.6508444  3
   3061   3060   3064   3065     1  0.0000000  0.6508444  3
   3061   3060   3064   3066     1  0.0000000  0.6508444  3
   3061   3060   3067   3068     1  0.0000000  0.6508444  3
   3061   3060   3067   3069     1  0.0000000  0.6508444  3
   3061   3073   3085   3086     1  0.0000000  0.6508444  3
   3061   3073   3085   3087     1  0.0000000  0.6508444  3
   3062   3061   3060   3064     1  0.0000000  0.6508444  3
   3062   3061   3060   3067     1  0.0000000  0.6508444  3
   3062   3061   3060   3089     1  0.0000000  0.6508444  3
   3062   3061   3073   3085     1  0.0000000  0.6508444  3
   3062   3061   3073   3074     1  0.0000000  0.6508444  3
   3062   3061   3073   3075     1  0.0000000  0.6508444  3
   3063   3061   3060   3064     1  0.0000000  0.6508444  3
   3063   3061   3060   3067     1  0.0000000  0.6508444  3
   3063   3061   3060   3089     1  0.0000000  0.6508444  3
   3063   3061   3073   3085     1  0.0000000  0.6508444  3
   3063   3061   3073   3074     1  0.0000000  0.6508444  3
   3063   3061   3073   3075     1  0.0000000  0.6508444  3
   3064   3060   3067   3068     1  0.0000000  0.6508444  3
   3064   3060   3067   3069     1  0.0000000  0.6508444  3
   3064   3076   3082   3083     1  0.0000000  0.6508444  3
   3064   3076   3082   3084     1  0.0000000  0.6508444  3
   3065   3064   3060   3067     1  0.0000000  0.6508444  3
   3065   3064   3060   3089     1  0.0000000  0.6508444  3
   3065   3064   3076   3082     1  0.0000000  0.6508444  3
   3065   3064   3076   3077     1  0.0000000  0.6508444  3
   3065   3064   3076   3078     1  0.0000000  0.6508444  3
   3066   3064   3060   3067     1  0.0000000  0.6508444  3
   3066   3064   3060   3089     1  0.0000000  0.6508444  3
   3066   3064   3076   3082     1  0.0000000  0.6508444  3
   3066   3064   3076   3077     1  0.0000000  0.6508444  3
   3066   3064   3076   3078     1  0.0000000  0.6508444  3
   3067   3070   3079   3080     1  0.0000000  0.6508444  3
   3067   3070   3079   3081     1  0.0000000  0.6508444  3
   3068   3067   3060   3089     1  0.0000000  0.6508444  3
   3068   3067   3070   3079     1  0.0000000  0.6508444  3
   3068   3067   3070   3071     1  0.0000000  0.6508444  3
   3068   3067   3070   3072     1  0.0000000  0.6508444  3
   3069   3067   3060   3089     1  0.0000000  0.6508444  3
   3069   3067   3070   3079     1  0.0000000  0.6508444  3
   3069   3067   3070   3071     1  0.0000000  0.6508444  3
   3069   3067   3070   3072     1  0.0000000  0.6508444  3
   3070   3067   3060   3089     1  0.0000000  0.6508444  3
   3071   3070   3079   3088     1  0.0000000  1.0460000  1
   3071   3070   3079   3088     1  0.0000000  0.0000000  3
   3071   3070   3079   3080     1  0.0000000  0.6508444  3
   3071   3070   3079   3081     1  0.0000000  0.6508444  3
   3072   3070   3079   3088     1  0.0000000  1.0460000  1
   3072   3070   3079   3088     1  0.0000000  0.0000000  3
   3072   3070   3079   3080     1  0.0000000  0.6508444  3
   3072   3070   3079   3081     1  0.0000000  0.6508444  3
   3073   3061   3060   3089     1  0.0000000  0.6508444  3
   3074   3073   3085   6101     1  0.0000000  1.0460000  1
   3074   3073   3085   6101     1  0.0000000  0.0000000  3
   3074   3073   3085   3086     1  0.0000000  0.6508444  3
   3074   3073   3085   3087     1  0.0000000  0.6508444  3
   3075   3073   3085   6101     1  0.0000000  1.0460000  1
   3075   3073   3085   6101     1  0.0000000  0.0000000  3
   3075   3073   3085   3086     1  0.0000000  0.6508444  3
   3075   3073   3085   3087     1  0.0000000  0.6508444  3
   3076   3064   3060   3089     1  0.0000000  0.6508444  3
   3077   3076   3082   6078     1  0.0000000  1.0460000  1
   3077   3076   3082   6078     1  0.0000000  0.0000000  3
   3077   3076   3082   3083     1  0.0000000  0.6508444  3
   3077   3076   3082   3084     1  0.0000000  0.6508444  3
   3078   3076   3082   6078     1  0.0000000  1.0460000  1
   3078   3076   3082   6078     1  0.0000000  0.0000000  3
   3078   3076   3082   3083     1  0.0000000  0.6508444  3
   3078   3076   3082   3084     1  0.0000000  0.6508444  3
   3082   6078   6074   6077     1  0.0000000  1.6038667  3
   3083   3082   6078   6074     1  0.0000000  1.6038667  3
   3084   3082   6078   6074     1  0.0000000  1.6038667  3
   3085   6101   6097   6100     1  0.0000000  1.6038667  3
   3086   3085   6101   6097     1  0.0000000  1.6038667  3
   3087   3085   6101   6097     1  0.0000000  1.6038667  3
   3090   3091   3103   3104     1  0.0000000  0.6508444  3
   3090   3091   3103   3105     1  0.0000000  0.6508444  3
   3090   3094   3106   3107     1  0.0000000  0.6508444  3
   3090   3094   3106   3108     1  0.0000000  0.6508444  3
   3090   3097   3100   3101     1  0.0000000  0.6508444  3
   3090   3097   3100   3102     1  0.0000000  0.6508444  3
   3091   3090   3094   3095     1  0.0000000  0.6508444  3
   3091   3090   3094   3096     1  0.0000000  0.6508444  3
   3091   3090   3097   3098     1  0.0000000  0.6508444  3
   3091   3090   3097   3099     1  0.0000000  0.6508444  3
   3091   3103   3115   3116     1  0.0000000  0.6508444  3
   3091   3103   3115   3117     1  0.0000000  0.6508444  3
   3092   3091   3090   3094     1  0.0000000  0.6508444  3
   3092   3091   3090   3097     1  0.0000000  0.6508444  3
   3092   3091   3090   3119     1  0.0000000  0.6508444  3
   3092   3091   3103   3115     1  0.0000000  0.6508444  3
   3092   3091   3103   3104     1  0.0000000  0.6508444  3
   3092   3091   3103   3105     1  0.0000000  0.6508444  3
   3093   3091   3090   3094     1  0.0000000  0.6508444  3
   3093   3091   3090   3097     1  0.0000000  0.6508444  3
   3093   3091   3090   3119     1  0.0000000  0.6508444  3
   3093   3091   3103   3115     1  0.0000000  0.6508444  3
   3093   3091   3103   3104     1  0.0000000  0.6508444  3
   3093   3091   3103   3105     1  0.0000000  0.6508444  3
   3094   3090   3097   3098     1  0.0000000  0.6508444  3
   3094   3090   3097   3099     1  0.0000000  0.6508444  3
   3094   3106   3112   3113     1  0.0000000  0.6508444  3
   3094   3106   3112   3114     1  0.0000000  0.6508444  3
   3095   3094   3090   3097     1  0.0000000  0.6508444  3
   3095   3094   3090   3119     1  0.0000000  0.6508444  3
   3095   3094   3106   3112     1  0.0000000  0.6508444  3
   3095   3094   3106   3107     1  0.0000000  0.6508444  3
   3095   3094   3106   3108     1  0.0000000  0.6508444  3
   3096   3094   3090   3097     1  0.0000000  0.6508444  3
   3096   3094   3090   3119     1  0.0000000  0.6508444  3
   3096   3094   3106   3112     1  0.0000000  0.6508444  3
   3096   3094   3106   3107     1  0.0000000  0.6508444  3
   3096   3094   3106   3108     1  0.0000000  0.6508444  3
   3097   3100   3109   3110     1  0.0000000  0.6508444  3
   3097   3100   3109   3111     1  0.0000000  0.6508444  3
   3098   3097   3090   3119     1  0.0000000  0.6508444  3
   3098   3097   3100   3109     1  0.0000000  0.6508444  3
   3098   3097   3100   3101     1  0.0000000  0.6508444  3
   3098   3097   3100   3102     1  0.0000000  0.6508444  3
   3099   3097   3090   3119     1  0.0000000  0.6508444  3
   3099   3097   3100   3109     1  0.0000000  0.6508444  3
   3099   3097   3100   3101     1  0.0000000  0.6508444  3
   3099   3097   3100   3102     1  0.0000000  0.6508444  3
   3100   3097   3090   3119     1  0.0000000  0.6508444  3
   3101   3100   3109   3118     1  0.0000000  1.0460000  1
   3101   3100   3109   3118     1  0.0000000  0.0000000  3
   3101   3100   3109   3110     1  0.0000000  0.6508444  3
   3101   3100   3109   3111     1  0.0000000  0.6508444  3
   3102   3100   3109   3118     1  0.0000000  1.0460000  1
   3102   3100   3109   3118     1  0.0000000  0.0000000  3
   3102   3100   3109   3110     1  0.0000000  0.6508444  3
   3102   3100   3109   3111     1  0.0000000  0.6508444  3
   3103   3091   3090   3119     1  0.0000000  0.6508444  3
   3104   3103   3115   6147     1  0.0000000  1.0460000  1
   3104   3103   3115   6147     1  0.0000000  0.0000000  3
   3104   3103   3115   3116     1  0.0000000  0.6508444  3
   3104   3103   3115   3117     1  0.0000000  0.6508444  3
   3105   3103   3115   6147     1  0.0000000  1.0460000  1
   3105   3103   3115   6147     1  0.0000000  0.0000000  3
   3105   3103   3115   3116     1  0.0000000  0.6508444  3
   3105   3103   3115   3117     1  0.0000000  0.6508444  3
   3106   3094   3090   3119     1  0.0000000  0.6508444  3
   3107   3106   3112   6124     1  0.0000000  1.0460000  1
   3107   3106   3112   6124     1  0.0000000  0.0000000  3
   3107   3106   3112   3113     1  0.0000000  0.6508444  3
   3107   3106   3112   3114     1  0.0000000  0.6508444  3
   3108   3106   3112   6124     1  0.0000000  1.0460000  1
   3108   3106   3112   6124     1  0.0000000  0.0000000  3
   3108   3106   3112   3113     1  0.0000000  0.6508444  3
   3108   3106   3112   3114     1  0.0000000  0.6508444  3
   3112   6124   6120   6123     1  0.0000000  1.6038667  3
   3113   3112   6124   6120     1  0.0000000  1.6038667  3
   3114   3112   6124   6120     1  0.0000000  1.6038667  3
   3115   6147   6143   6146     1  0.0000000  1.6038667  3
   3116   3115   6147   6143     1  0.0000000  1.6038667  3
   3117   3115   6147   6143     1  0.0000000  1.6038667  3
   3120   3121   3133   3134     1  0.0000000  0.6508444  3
   3120   3121   3133   3135     1  0.0000000  0.6508444  3
   3120   3124   3136   3137     1  0.0000000  0.6508444  3
   3120   3124   3136   3138     1  0.0000000  0.6508444  3
   3120   3127   3130   3131     1  0.0000000  0.6508444  3
   3120   3127   3130   3132     1  0.0000000  0.6508444  3
   3121   3120   3124   3125     1  0.0000000  0.6508444  3
   3121   3120   3124   3126     1  0.0000000  0.6508444  3
   3121   3120   3127   3128     1  0.0000000  0.6508444  3
   3121   3120   3127   3129     1  0.0000000  0.6508444  3
   3121   3133   3145   3146     1  0.0000000  0.6508444  3
   3121   3133   3145   3147     1  0.0000000  0.6508444  3
   3122   3121   3120   3124     1  0.0000000  0.6508444  3
   3122   3121   3120   3127     1  0.0000000  0.6508444  3
   3122   3121   3120   3149     1  0.0000000  0.6508444  3
   3122   3121   3133   3145     1  0.0000000  0.6508444  3
   3122   3121   3133   3134     1  0.0000000  0.6508444  3
   3122   3121   3133   3135     1  0.0000000  0.6508444  3
   3123   3121   3120   3124     1  0.0000000  0.6508444  3
   3123   3121   3120   3127     1  0.0000000  0.6508444  3
   3123   3121   3120   3149     1  0.0000000  0.6508444  3
   3123   3121   3133   3145     1  0.0000000  0.6508444  3
   3123   3121   3133   3134     1  0.0000000  0.6508444  3
   3123   3121   3133   3135     1  0.0000000  0.6508444  3
   3124   3120   3127   3128     1  0.0000000  0.6508444  3
   3124   3120   3127   3129     1  0.0000000  0.6508444  3
   3124   3136   3142   3143     1  0.0000000  0.6508444  3
   3124   3136   3142   3144     1  0.0000000  0.6508444  3
   3125   3124   3120   3127     1  0.0000000  0.6508444  3
   3125   3124   3120   3149     1  0.0000000  0.6508444  3
   3125   3124   3136   3142     1  0.0000000  0.6508444  3
   3125   3124   3136   3137     1  0.0000000  0.6508444  3
   3125   3124   3136   3138     1  0.0000000  0.6508444  3
   3126   3124   3120   3127     1  0.0000000  0.6508444  3
   3126   3124   3120   3149     1  0.0000000  0.6508444  3
   3126   3124   3136   3142     1  0.0000000  0.6508444  3
   3126   3124   3136   3137     1  0.0000000  0.6508444  3
   3126   3124   3136   3138     1  0.0000000  0.6508444  3
   3127   3130   3139   3140     1  0.0000000  0.6508444  3
   3127   3130   3139   3141     1  0.0000000  0.6508444  3
   3128   3127   3120   3149     1  0.0000000  0.6508444  3
   3128   3127   3130   3139     1  0.0000000  0.6508444  3
   3128   3127   3130   3131     1  0.0000000  0.6508444  3
   3128   3127   3130   3132     1  0.0000000  0.6508444  3
   3129   3127   3120   3149     1  0.0000000  0.6508444  3
   3129   3127   3130   3139     1  0.0000000  0.6508444  3
   3129   3127   3130   3131     1  0.0000000  0.6508444  3
   3129   3127   3130   3132     1  0.0000000  0.6508444  3
   3130   3127   3120   3149     1  0.0000000  0.6508444  3
   3131   3130   3139   3148     1  0.0000000  1.0460000  1
   3131   3130   3139   3148     1  0.0000000  0.0000000  3
   3131   3130   3139   3140     1  0.0000000  0.6508444  3
   3131   3130   3139   3141     1  0.0000000  0.6508444  3
   3132   3130   3139   3148     1  0.0000000  1.0460000  1
   3132   3130   3139   3148     1  0.0000000  0.0000000  3
   3132   3130   3139   3140     1  0.0000000  0.6508444  3
   3132   3130   3139   3141     1  0.0000000  0.6508444  3
   3133   3121   3120   3149     1  0.0000000  0.6508444  3
   3134   3133   3145   6193     1  0.0000000  1.0460000  1
   3134   3133   3145   6193     1  0.0000000  0.0000000  3
   3134   3133   3145   3146     1  0.0000000  0.6508444  3
   3134   3133   3145   3147     1  0.0000000  0.6508444  3
   3135   3133   3145   6193     1  0.0000000  1.0460000  1
   3135   3133   3145   6193     1  0.0000000  0.0000000  3
   3135   3133   3145   3146     1  0.0000000  0.6508444  3
   3135   3133   3145   3147     1  0.0000000  0.6508444  3
   3136   3124   3120   3149     1  0.0000000  0.6508444  3
   3137   3136   3142   6170     1  0.0000000  1.0460000  1
   3137   3136   3142   6170     1  0.0000000  0.0000000  3
   3137   3136   3142   3143     1  0.0000000  0.6508444  3
   3137   3136   3142   3144     1  0.0000000  0.6508444  3
   3138   3136   3142   6170     1  0.0000000  1.0460000  1
   3138   3136   3142   6170     1  0.0000000  0.0000000  3
   3138   3136   3142   3143     1  0.0000000  0.6508444  3
   3138   3136   3142   3144     1  0.0000000  0.6508444  3
   3142   6170   6166   6169     1  0.0000000  1.6038667  3
   3143   3142   6170   6166     1  0.0000000  1.6038667  3
   3144   3142   6170   6166     1  0.0000000  1.6038667  3
   3145   6193   6189   6192     1  0.0000000  1.6038667  3
   3146   3145   6193   6189     1  0.0000000  1.6038667  3
   3147   3145   6193   6189     1  0.0000000  1.6038667  3
   3150   3151   3163   3164     1  0.0000000  0.6508444  3
   3150   3151   3163   3165     1  0.0000000  0.6508444  3
   3150   3154   3166   3167     1  0.0000000  0.6508444  3
   3150   3154   3166   3168     1  0.0000000  0.6508444  3
   3150   3157   3160   3161     1  0.0000000  0.6508444  3
   3150   3157   3160   3162     1  0.0000000  0.6508444  3
   3151   3150   3154   3155     1  0.0000000  0.6508444  3
   3151   3150   3154   3156     1  0.0000000  0.6508444  3
   3151   3150   3157   3158     1  0.0000000  0.6508444  3
   3151   3150   3157   3159     1  0.0000000  0.6508444  3
   3151   3163   3175   3176     1  0.0000000  0.6508444  3
   3151   3163   3175   3177     1  0.0000000  0.6508444  3
   3152   3151   3150   3154     1  0.0000000  0.6508444  3
   3152   3151   3150   3157     1  0.0000000  0.6508444  3
   3152   3151   3150   3179     1  0.0000000  0.6508444  3
   3152   3151   3163   3175     1  0.0000000  0.6508444  3
   3152   3151   3163   3164     1  0.0000000  0.6508444  3
   3152   3151   3163   3165     1  0.0000000  0.6508444  3
   3153   3151   3150   3154     1  0.0000000  0.6508444  3
   3153   3151   3150   3157     1  0.0000000  0.6508444  3
   3153   3151   3150   3179     1  0.0000000  0.6508444  3
   3153   3151   3163   3175     1  0.0000000  0.6508444  3
   3153   3151   3163   3164     1  0.0000000  0.6508444  3
   3153   3151   3163   3165     1  0.0000000  0.6508444  3
   3154   3150   3157   3158     1  0.0000000  0.6508444  3
   3154   3150   3157   3159     1  0.0000000  0.6508444  3
   3154   3166   3172   3173     1  0.0000000  0.6508444  3
   3154   3166   3172   3174     1  0.0000000  0.6508444  3
   3155   3154   3150   3157     1  0.0000000  0.6508444  3
   3155   3154   3150   3179     1  0.0000000  0.6508444  3
   3155   3154   3166   3172     1  0.0000000  0.6508444  3
   3155   3154   3166   3167     1  0.0000000  0.6508444  3
   3155   3154   3166   3168     1  0.0000000  0.6508444  3
   3156   3154   3150   3157     1  0.0000000  0.6508444  3
   3156   3154   3150   3179     1  0.0000000  0.6508444  3
   3156   3154   3166   3172     1  0.0000000  0.6508444  3
   3156   3154   3166   3167     1  0.0000000  0.6508444  3
   3156   3154   3166   3168     1  0.0000000  0.6508444  3
   3157   3160   3169   3170     1  0.0000000  0.6508444  3
   3157   3160   3169   3171     1  0.0000000  0.6508444  3
   3158   3157   3150   3179     1  0.0000000  0.6508444  3
   3158   3157   3160   3169     1  0.0000000  0.6508444  3
   3158   3157   3160   3161     1  0.0000000  0.6508444  3
   3158   3157   3160   3162     1  0.0000000  0.6508444  3
   3159   3157   3150   3179     1  0.0000000  0.6508444  3
   3159   3157   3160   3169     1  0.0000000  0.6508444  3
   3159   3157   3160   3161     1  0.0000000  0.6508444  3
   3159   3157   3160   3162     1  0.0000000  0.6508444  3
   3160   3157   3150   3179     1  0.0000000  0.6508444  3
   3161   3160   3169   3178     1  0.0000000  1.0460000  1
   3161   3160   3169   3178     1  0.0000000  0.0000000  3
   3161   3160   3169   3170     1  0.0000000  0.6508444  3
   3161   3160   3169   3171     1  0.0000000  0.6508444  3
   3162   3160   3169   3178     1  0.0000000  1.0460000  1
   3162   3160   3169   3178     1  0.0000000  0.0000000  3
   3162   3160   3169   3170     1  0.0000000  0.6508444  3
   3162   3160   3169   3171     1  0.0000000  0.6508444  3
   3163   3151   3150   3179     1  0.0000000  0.6508444  3
   3164   3163   3175   6239     1  0.0000000  1.0460000  1
   3164   3163   3175   6239     1  0.0000000  0.0000000  3
   3164   3163   3175   3176     1  0.0000000  0.6508444  3
   3164   3163   3175   3177     1  0.0000000  0.6508444  3
   3165   3163   3175   6239     1  0.0000000  1.0460000  1
   3165   3163   3175   6239     1  0.0000000  0.0000000  3
   3165   3163   3175   3176     1  0.0000000  0.6508444  3
   3165   3163   3175   3177     1  0.0000000  0.6508444  3
   3166   3154   3150   3179     1  0.0000000  0.6508444  3
   3167   3166   3172   6216     1  0.0000000  1.0460000  1
   3167   3166   3172   6216     1  0.0000000  0.0000000  3
   3167   3166   3172   3173     1  0.0000000  0.6508444  3
   3167   3166   3172   3174     1  0.0000000  0.6508444  3
   3168   3166   3172   6216     1  0.0000000  1.0460000  1
   3168   3166   3172   6216     1  0.0000000  0.0000000  3
   3168   3166   3172   3173     1  0.0000000  0.6508444  3
   3168   3166   3172   3174     1  0.0000000  0.6508444  3
   3172   6216   6212   6215     1  0.0000000  1.6038667  3
   3173   3172   6216   6212     1  0.0000000  1.6038667  3
   3174   3172   6216   6212     1  0.0000000  1.6038667  3
   3175   6239   6235   6238     1  0.0000000  1.6038667  3
   3176   3175   6239   6235     1  0.0000000  1.6038667  3
   3177   3175   6239   6235     1  0.0000000  1.6038667  3
   3180   3181   3193   3194     1  0.0000000  0.6508444  3
   3180   3181   3193   3195     1  0.0000000  0.6508444  3
   3180   3184   3196   3197     1  0.0000000  0.6508444  3
   3180   3184   3196   3198     1  0.0000000  0.6508444  3
   3180   3187   3190   3191     1  0.0000000  0.6508444  3
   3180   3187   3190   3192     1  0.0000000  0.6508444  3
   3181   3180   3184   3185     1  0.0000000  0.6508444  3
   3181   3180   3184   3186     1  0.0000000  0.6508444  3
   3181   3180   3187   3188     1  0.0000000  0.6508444  3
   3181   3180   3187   3189     1  0.0000000  0.6508444  3
   3181   3193   3205   3206     1  0.0000000  0.6508444  3
   3181   3193   3205   3207     1  0.0000000  0.6508444  3
   3182   3181   3180   3184     1  0.0000000  0.6508444  3
   3182   3181   3180   3187     1  0.0000000  0.6508444  3
   3182   3181   3180   3209     1  0.0000000  0.6508444  3
   3182   3181   3193   3205     1  0.0000000  0.6508444  3
   3182   3181   3193   3194     1  0.0000000  0.6508444  3
   3182   3181   3193   3195     1  0.0000000  0.6508444  3
   3183   3181   3180   3184     1  0.0000000  0.6508444  3
   3183   3181   3180   3187     1  0.0000000  0.6508444  3
   3183   3181   3180   3209     1  0.0000000  0.6508444  3
   3183   3181   3193   3205     1  0.0000000  0.6508444  3
   3183   3181   3193   3194     1  0.0000000  0.6508444  3
   3183   3181   3193   3195     1  0.0000000  0.6508444  3
   3184   3180   3187   3188     1  0.0000000  0.6508444  3
   3184   3180   3187   3189     1  0.0000000  0.6508444  3
   3184   3196   3202   3203     1  0.0000000  0.6508444  3
   3184   3196   3202   3204     1  0.0000000  0.6508444  3
   3185   3184   3180   3187     1  0.0000000  0.6508444  3
   3185   3184   3180   3209     1  0.0000000  0.6508444  3
   3185   3184   3196   3202     1  0.0000000  0.6508444  3
   3185   3184   3196   3197     1  0.0000000  0.6508444  3
   3185   3184   3196   3198     1  0.0000000  0.6508444  3
   3186   3184   3180   3187     1  0.0000000  0.6508444  3
   3186   3184   3180   3209     1  0.0000000  0.6508444  3
   3186   3184   3196   3202     1  0.0000000  0.6508444  3
   3186   3184   3196   3197     1  0.0000000  0.6508444  3
   3186   3184   3196   3198     1  0.0000000  0.6508444  3
   3187   3190   3199   3200     1  0.0000000  0.6508444  3
   3187   3190   3199   3201     1  0.0000000  0.6508444  3
   3188   3187   3180   3209     1  0.0000000  0.6508444  3
   3188   3187   3190   3199     1  0.0000000  0.6508444  3
   3188   3187   3190   3191     1  0.0000000  0.6508444  3
   3188   3187   3190   3192     1  0.0000000  0.6508444  3
   3189   3187   3180   3209     1  0.0000000  0.6508444  3
   3189   3187   3190   3199     1  0.0000000  0.6508444  3
   3189   3187   3190   3191     1  0.0000000  0.6508444  3
   3189   3187   3190   3192     1  0.0000000  0.6508444  3
   3190   3187   3180   3209     1  0.0000000  0.6508444  3
   3191   3190   3199   3208     1  0.0000000  1.0460000  1
   3191   3190   3199   3208     1  0.0000000  0.0000000  3
   3191   3190   3199   3200     1  0.0000000  0.6508444  3
   3191   3190   3199   3201     1  0.0000000  0.6508444  3
   3192   3190   3199   3208     1  0.0000000  1.0460000  1
   3192   3190   3199   3208     1  0.0000000  0.0000000  3
   3192   3190   3199   3200     1  0.0000000  0.6508444  3
   3192   3190   3199   3201     1  0.0000000  0.6508444  3
   3193   3181   3180   3209     1  0.0000000  0.6508444  3
   3194   3193   3205   6285     1  0.0000000  1.0460000  1
   3194   3193   3205   6285     1  0.0000000  0.0000000  3
   3194   3193   3205   3206     1  0.0000000  0.6508444  3
   3194   3193   3205   3207     1  0.0000000  0.6508444  3
   3195   3193   3205   6285     1  0.0000000  1.0460000  1
   3195   3193   3205   6285     1  0.0000000  0.0000000  3
   3195   3193   3205   3206     1  0.0000000  0.6508444  3
   3195   3193   3205   3207     1  0.0000000  0.6508444  3
   3196   3184   3180   3209     1  0.0000000  0.6508444  3
   3197   3196   3202   6262     1  0.0000000  1.0460000  1
   3197   3196   3202   6262     1  0.0000000  0.0000000  3
   3197   3196   3202   3203     1  0.0000000  0.6508444  3
   3197   3196   3202   3204     1  0.0000000  0.6508444  3
   3198   3196   3202   6262     1  0.0000000  1.0460000  1
   3198   3196   3202   6262     1  0.0000000  0.0000000  3
   3198   3196   3202   3203     1  0.0000000  0.6508444  3
   3198   3196   3202   3204     1  0.0000000  0.6508444  3
   3202   6262   6258   6261     1  0.0000000  1.6038667  3
   3203   3202   6262   6258     1  0.0000000  1.6038667  3
   3204   3202   6262   6258     1  0.0000000  1.6038667  3
   3205   6285   6281   6284     1  0.0000000  1.6038667  3
   3206   3205   6285   6281     1  0.0000000  1.6038667  3
   3207   3205   6285   6281     1  0.0000000  1.6038667  3
   3210   3211   3223   3224     1  0.0000000  0.6508444  3
   3210   3211   3223   3225     1  0.0000000  0.6508444  3
   3210   3214   3226   3227     1  0.0000000  0.6508444  3
   3210   3214   3226   3228     1  0.0000000  0.6508444  3
   3210   3217   3220   3221     1  0.0000000  0.6508444  3
   3210   3217   3220   3222     1  0.0000000  0.6508444  3
   3211   3210   3214   3215     1  0.0000000  0.6508444  3
   3211   3210   3214   3216     1  0.0000000  0.6508444  3
   3211   3210   3217   3218     1  0.0000000  0.6508444  3
   3211   3210   3217   3219     1  0.0000000  0.6508444  3
   3211   3223   3235   3236     1  0.0000000  0.6508444  3
   3211   3223   3235   3237     1  0.0000000  0.6508444  3
   3212   3211   3210   3214     1  0.0000000  0.6508444  3
   3212   3211   3210   3217     1  0.0000000  0.6508444  3
   3212   3211   3210   3239     1  0.0000000  0.6508444  3
   3212   3211   3223   3235     1  0.0000000  0.6508444  3
   3212   3211   3223   3224     1  0.0000000  0.6508444  3
   3212   3211   3223   3225     1  0.0000000  0.6508444  3
   3213   3211   3210   3214     1  0.0000000  0.6508444  3
   3213   3211   3210   3217     1  0.0000000  0.6508444  3
   3213   3211   3210   3239     1  0.0000000  0.6508444  3
   3213   3211   3223   3235     1  0.0000000  0.6508444  3
   3213   3211   3223   3224     1  0.0000000  0.6508444  3
   3213   3211   3223   3225     1  0.0000000  0.6508444  3
   3214   3210   3217   3218     1  0.0000000  0.6508444  3
   3214   3210   3217   3219     1  0.0000000  0.6508444  3
   3214   3226   3232   3233     1  0.0000000  0.6508444  3
   3214   3226   3232   3234     1  0.0000000  0.6508444  3
   3215   3214   3210   3217     1  0.0000000  0.6508444  3
   3215   3214   3210   3239     1  0.0000000  0.6508444  3
   3215   3214   3226   3232     1  0.0000000  0.6508444  3
   3215   3214   3226   3227     1  0.0000000  0.6508444  3
   3215   3214   3226   3228     1  0.0000000  0.6508444  3
   3216   3214   3210   3217     1  0.0000000  0.6508444  3
   3216   3214   3210   3239     1  0.0000000  0.6508444  3
   3216   3214   3226   3232     1  0.0000000  0.6508444  3
   3216   3214   3226   3227     1  0.0000000  0.6508444  3
   3216   3214   3226   3228     1  0.0000000  0.6508444  3
   3217   3220   3229   3230     1  0.0000000  0.6508444  3
   3217   3220   3229   3231     1  0.0000000  0.6508444  3
   3218   3217   3210   3239     1  0.0000000  0.6508444  3
   3218   3217   3220   3229     1  0.0000000  0.6508444  3
   3218   3217   3220   3221     1  0.0000000  0.6508444  3
   3218   3217   3220   3222     1  0.0000000  0.6508444  3
   3219   3217   3210   3239     1  0.0000000  0.6508444  3
   3219   3217   3220   3229     1  0.0000000  0.6508444  3
   3219   3217   3220   3221     1  0.0000000  0.6508444  3
   3219   3217   3220   3222     1  0.0000000  0.6508444  3
   3220   3217   3210   3239     1  0.0000000  0.6508444  3
   3221   3220   3229   3238     1  0.0000000  1.0460000  1
   3221   3220   3229   3238     1  0.0000000  0.0000000  3
   3221   3220   3229   3230     1  0.0000000  0.6508444  3
   3221   3220   3229   3231     1  0.0000000  0.6508444  3
   3222   3220   3229   3238     1  0.0000000  1.0460000  1
   3222   3220   3229   3238     1  0.0000000  0.0000000  3
   3222   3220   3229   3230     1  0.0000000  0.6508444  3
   3222   3220   3229   3231     1  0.0000000  0.6508444  3
   3223   3211   3210   3239     1  0.0000000  0.6508444  3
   3224   3223   3235   6331     1  0.0000000  1.0460000  1
   3224   3223   3235   6331     1  0.0000000  0.0000000  3
   3224   3223   3235   3236     1  0.0000000  0.6508444  3
   3224   3223   3235   3237     1  0.0000000  0.6508444  3
   3225   3223   3235   6331     1  0.0000000  1.0460000  1
   3225   3223   3235   6331     1  0.0000000  0.0000000  3
   3225   3223   3235   3236     1  0.0000000  0.6508444  3
   3225   3223   3235   3237     1  0.0000000  0.6508444  3
   3226   3214   3210   3239     1  0.0000000  0.6508444  3
   3227   3226   3232   6308     1  0.0000000  1.0460000  1
   3227   3226   3232   6308     1  0.0000000  0.0000000  3
   3227   3226   3232   3233     1  0.0000000  0.6508444  3
   3227   3226   3232   3234     1  0.0000000  0.6508444  3
   3228   3226   3232   6308     1  0.0000000  1.0460000  1
   3228   3226   3232   6308     1  0.0000000  0.0000000  3
   3228   3226   3232   3233     1  0.0000000  0.6508444  3
   3228   3226   3232   3234     1  0.0000000  0.6508444  3
   3232   6308   6304   6307     1  0.0000000  1.6038667  3
   3233   3232   6308   6304     1  0.0000000  1.6038667  3
   3234   3232   6308   6304     1  0.0000000  1.6038667  3
   3235   6331   6327   6330     1  0.0000000  1.6038667  3
   3236   3235   6331   6327     1  0.0000000  1.6038667  3
   3237   3235   6331   6327     1  0.0000000  1.6038667  3
   3240   3241   3253   3254     1  0.0000000  0.6508444  3
   3240   3241   3253   3255     1  0.0000000  0.6508444  3
   3240   3244   3256   3257     1  0.0000000  0.6508444  3
   3240   3244   3256   3258     1  0.0000000  0.6508444  3
   3240   3247   3250   3251     1  0.0000000  0.6508444  3
   3240   3247   3250   3252     1  0.0000000  0.6508444  3
   3241   3240   3244   3245     1  0.0000000  0.6508444  3
   3241   3240   3244   3246     1  0.0000000  0.6508444  3
   3241   3240   3247   3248     1  0.0000000  0.6508444  3
   3241   3240   3247   3249     1  0.0000000  0.6508444  3
   3241   3253   3265   3266     1  0.0000000  0.6508444  3
   3241   3253   3265   3267     1  0.0000000  0.6508444  3
   3242   3241   3240   3244     1  0.0000000  0.6508444  3
   3242   3241   3240   3247     1  0.0000000  0.6508444  3
   3242   3241   3240   3269     1  0.0000000  0.6508444  3
   3242   3241   3253   3265     1  0.0000000  0.6508444  3
   3242   3241   3253   3254     1  0.0000000  0.6508444  3
   3242   3241   3253   3255     1  0.0000000  0.6508444  3
   3243   3241   3240   3244     1  0.0000000  0.6508444  3
   3243   3241   3240   3247     1  0.0000000  0.6508444  3
   3243   3241   3240   3269     1  0.0000000  0.6508444  3
   3243   3241   3253   3265     1  0.0000000  0.6508444  3
   3243   3241   3253   3254     1  0.0000000  0.6508444  3
   3243   3241   3253   3255     1  0.0000000  0.6508444  3
   3244   3240   3247   3248     1  0.0000000  0.6508444  3
   3244   3240   3247   3249     1  0.0000000  0.6508444  3
   3244   3256   3262   3263     1  0.0000000  0.6508444  3
   3244   3256   3262   3264     1  0.0000000  0.6508444  3
   3245   3244   3240   3247     1  0.0000000  0.6508444  3
   3245   3244   3240   3269     1  0.0000000  0.6508444  3
   3245   3244   3256   3262     1  0.0000000  0.6508444  3
   3245   3244   3256   3257     1  0.0000000  0.6508444  3
   3245   3244   3256   3258     1  0.0000000  0.6508444  3
   3246   3244   3240   3247     1  0.0000000  0.6508444  3
   3246   3244   3240   3269     1  0.0000000  0.6508444  3
   3246   3244   3256   3262     1  0.0000000  0.6508444  3
   3246   3244   3256   3257     1  0.0000000  0.6508444  3
   3246   3244   3256   3258     1  0.0000000  0.6508444  3
   3247   3250   3259   3260     1  0.0000000  0.6508444  3
   3247   3250   3259   3261     1  0.0000000  0.6508444  3
   3248   3247   3240   3269     1  0.0000000  0.6508444  3
   3248   3247   3250   3259     1  0.0000000  0.6508444  3
   3248   3247   3250   3251     1  0.0000000  0.6508444  3
   3248   3247   3250   3252     1  0.0000000  0.6508444  3
   3249   3247   3240   3269     1  0.0000000  0.6508444  3
   3249   3247   3250   3259     1  0.0000000  0.6508444  3
   3249   3247   3250   3251     1  0.0000000  0.6508444  3
   3249   3247   3250   3252     1  0.0000000  0.6508444  3
   3250   3247   3240   3269     1  0.0000000  0.6508444  3
   3251   3250   3259   3268     1  0.0000000  1.0460000  1
   3251   3250   3259   3268     1  0.0000000  0.0000000  3
   3251   3250   3259   3260     1  0.0000000  0.6508444  3
   3251   3250   3259   3261     1  0.0000000  0.6508444  3
   3252   3250   3259   3268     1  0.0000000  1.0460000  1
   3252   3250   3259   3268     1  0.0000000  0.0000000  3
   3252   3250   3259   3260     1  0.0000000  0.6508444  3
   3252   3250   3259   3261     1  0.0000000  0.6508444  3
   3253   3241   3240   3269     1  0.0000000  0.6508444  3
   3254   3253   3265   6377     1  0.0000000  1.0460000  1
   3254   3253   3265   6377     1  0.0000000  0.0000000  3
   3254   3253   3265   3266     1  0.0000000  0.6508444  3
   3254   3253   3265   3267     1  0.0000000  0.6508444  3
   3255   3253   3265   6377     1  0.0000000  1.0460000  1
   3255   3253   3265   6377     1  0.0000000  0.0000000  3
   3255   3253   3265   3266     1  0.0000000  0.6508444  3
   3255   3253   3265   3267     1  0.0000000  0.6508444  3
   3256   3244   3240   3269     1  0.0000000  0.6508444  3
   3257   3256   3262   6354     1  0.0000000  1.0460000  1
   3257   3256   3262   6354     1  0.0000000  0.0000000  3
   3257   3256   3262   3263     1  0.0000000  0.6508444  3
   3257   3256   3262   3264     1  0.0000000  0.6508444  3
   3258   3256   3262   6354     1  0.0000000  1.0460000  1
   3258   3256   3262   6354     1  0.0000000  0.0000000  3
   3258   3256   3262   3263     1  0.0000000  0.6508444  3
   3258   3256   3262   3264     1  0.0000000  0.6508444  3
   3262   6354   6350   6353     1  0.0000000  1.6038667  3
   3263   3262   6354   6350     1  0.0000000  1.6038667  3
   3264   3262   6354   6350     1  0.0000000  1.6038667  3
   3265   6377   6373   6376     1  0.0000000  1.6038667  3
   3266   3265   6377   6373     1  0.0000000  1.6038667  3
   3267   3265   6377   6373     1  0.0000000  1.6038667  3
   3270   3271   3283   3284     1  0.0000000  0.6508444  3
   3270   3271   3283   3285     1  0.0000000  0.6508444  3
   3270   3274   3286   3287     1  0.0000000  0.6508444  3
   3270   3274   3286   3288     1  0.0000000  0.6508444  3
   3270   3277   3280   3281     1  0.0000000  0.6508444  3
   3270   3277   3280   3282     1  0.0000000  0.6508444  3
   3271   3270   3274   3275     1  0.0000000  0.6508444  3
   3271   3270   3274   3276     1  0.0000000  0.6508444  3
   3271   3270   3277   3278     1  0.0000000  0.6508444  3
   3271   3270   3277   3279     1  0.0000000  0.6508444  3
   3271   3283   3295   3296     1  0.0000000  0.6508444  3
   3271   3283   3295   3297     1  0.0000000  0.6508444  3
   3272   3271   3270   3274     1  0.0000000  0.6508444  3
   3272   3271   3270   3277     1  0.0000000  0.6508444  3
   3272   3271   3270   3299     1  0.0000000  0.6508444  3
   3272   3271   3283   3295     1  0.0000000  0.6508444  3
   3272   3271   3283   3284     1  0.0000000  0.6508444  3
   3272   3271   3283   3285     1  0.0000000  0.6508444  3
   3273   3271   3270   3274     1  0.0000000  0.6508444  3
   3273   3271   3270   3277     1  0.0000000  0.6508444  3
   3273   3271   3270   3299     1  0.0000000  0.6508444  3
   3273   3271   3283   3295     1  0.0000000  0.6508444  3
   3273   3271   3283   3284     1  0.0000000  0.6508444  3
   3273   3271   3283   3285     1  0.0000000  0.6508444  3
   3274   3270   3277   3278     1  0.0000000  0.6508444  3
   3274   3270   3277   3279     1  0.0000000  0.6508444  3
   3274   3286   3292   3293     1  0.0000000  0.6508444  3
   3274   3286   3292   3294     1  0.0000000  0.6508444  3
   3275   3274   3270   3277     1  0.0000000  0.6508444  3
   3275   3274   3270   3299     1  0.0000000  0.6508444  3
   3275   3274   3286   3292     1  0.0000000  0.6508444  3
   3275   3274   3286   3287     1  0.0000000  0.6508444  3
   3275   3274   3286   3288     1  0.0000000  0.6508444  3
   3276   3274   3270   3277     1  0.0000000  0.6508444  3
   3276   3274   3270   3299     1  0.0000000  0.6508444  3
   3276   3274   3286   3292     1  0.0000000  0.6508444  3
   3276   3274   3286   3287     1  0.0000000  0.6508444  3
   3276   3274   3286   3288     1  0.0000000  0.6508444  3
   3277   3280   3289   3290     1  0.0000000  0.6508444  3
   3277   3280   3289   3291     1  0.0000000  0.6508444  3
   3278   3277   3270   3299     1  0.0000000  0.6508444  3
   3278   3277   3280   3289     1  0.0000000  0.6508444  3
   3278   3277   3280   3281     1  0.0000000  0.6508444  3
   3278   3277   3280   3282     1  0.0000000  0.6508444  3
   3279   3277   3270   3299     1  0.0000000  0.6508444  3
   3279   3277   3280   3289     1  0.0000000  0.6508444  3
   3279   3277   3280   3281     1  0.0000000  0.6508444  3
   3279   3277   3280   3282     1  0.0000000  0.6508444  3
   3280   3277   3270   3299     1  0.0000000  0.6508444  3
   3281   3280   3289   3298     1  0.0000000  1.0460000  1
   3281   3280   3289   3298     1  0.0000000  0.0000000  3
   3281   3280   3289   3290     1  0.0000000  0.6508444  3
   3281   3280   3289   3291     1  0.0000000  0.6508444  3
   3282   3280   3289   3298     1  0.0000000  1.0460000  1
   3282   3280   3289   3298     1  0.0000000  0.0000000  3
   3282   3280   3289   3290     1  0.0000000  0.6508444  3
   3282   3280   3289   3291     1  0.0000000  0.6508444  3
   3283   3271   3270   3299     1  0.0000000  0.6508444  3
   3284   3283   3295   6423     1  0.0000000  1.0460000  1
   3284   3283   3295   6423     1  0.0000000  0.0000000  3
   3284   3283   3295   3296     1  0.0000000  0.6508444  3
   3284   3283   3295   3297     1  0.0000000  0.6508444  3
   3285   3283   3295   6423     1  0.0000000  1.0460000  1
   3285   3283   3295   6423     1  0.0000000  0.0000000  3
   3285   3283   3295   3296     1  0.0000000  0.6508444  3
   3285   3283   3295   3297     1  0.0000000  0.6508444  3
   3286   3274   3270   3299     1  0.0000000  0.6508444  3
   3287   3286   3292   6400     1  0.0000000  1.0460000  1
   3287   3286   3292   6400     1  0.0000000  0.0000000  3
   3287   3286   3292   3293     1  0.0000000  0.6508444  3
   3287   3286   3292   3294     1  0.0000000  0.6508444  3
   3288   3286   3292   6400     1  0.0000000  1.0460000  1
   3288   3286   3292   6400     1  0.0000000  0.0000000  3
   3288   3286   3292   3293     1  0.0000000  0.6508444  3
   3288   3286   3292   3294     1  0.0000000  0.6508444  3
   3292   6400   6396   6399     1  0.0000000  1.6038667  3
   3293   3292   6400   6396     1  0.0000000  1.6038667  3
   3294   3292   6400   6396     1  0.0000000  1.6038667  3
   3295   6423   6419   6422     1  0.0000000  1.6038667  3
   3296   3295   6423   6419     1  0.0000000  1.6038667  3
   3297   3295   6423   6419     1  0.0000000  1.6038667  3
   3300   3301   3313   3314     1  0.0000000  0.6508444  3
   3300   3301   3313   3315     1  0.0000000  0.6508444  3
   3300   3304   3316   3317     1  0.0000000  0.6508444  3
   3300   3304   3316   3318     1  0.0000000  0.6508444  3
   3300   3307   3310   3311     1  0.0000000  0.6508444  3
   3300   3307   3310   3312     1  0.0000000  0.6508444  3
   3301   3300   3304   3305     1  0.0000000  0.6508444  3
   3301   3300   3304   3306     1  0.0000000  0.6508444  3
   3301   3300   3307   3308     1  0.0000000  0.6508444  3
   3301   3300   3307   3309     1  0.0000000  0.6508444  3
   3301   3313   3325   3326     1  0.0000000  0.6508444  3
   3301   3313   3325   3327     1  0.0000000  0.6508444  3
   3302   3301   3300   3304     1  0.0000000  0.6508444  3
   3302   3301   3300   3307     1  0.0000000  0.6508444  3
   3302   3301   3300   3329     1  0.0000000  0.6508444  3
   3302   3301   3313   3325     1  0.0000000  0.6508444  3
   3302   3301   3313   3314     1  0.0000000  0.6508444  3
   3302   3301   3313   3315     1  0.0000000  0.6508444  3
   3303   3301   3300   3304     1  0.0000000  0.6508444  3
   3303   3301   3300   3307     1  0.0000000  0.6508444  3
   3303   3301   3300   3329     1  0.0000000  0.6508444  3
   3303   3301   3313   3325     1  0.0000000  0.6508444  3
   3303   3301   3313   3314     1  0.0000000  0.6508444  3
   3303   3301   3313   3315     1  0.0000000  0.6508444  3
   3304   3300   3307   3308     1  0.0000000  0.6508444  3
   3304   3300   3307   3309     1  0.0000000  0.6508444  3
   3304   3316   3322   3323     1  0.0000000  0.6508444  3
   3304   3316   3322   3324     1  0.0000000  0.6508444  3
   3305   3304   3300   3307     1  0.0000000  0.6508444  3
   3305   3304   3300   3329     1  0.0000000  0.6508444  3
   3305   3304   3316   3322     1  0.0000000  0.6508444  3
   3305   3304   3316   3317     1  0.0000000  0.6508444  3
   3305   3304   3316   3318     1  0.0000000  0.6508444  3
   3306   3304   3300   3307     1  0.0000000  0.6508444  3
   3306   3304   3300   3329     1  0.0000000  0.6508444  3
   3306   3304   3316   3322     1  0.0000000  0.6508444  3
   3306   3304   3316   3317     1  0.0000000  0.6508444  3
   3306   3304   3316   3318     1  0.0000000  0.6508444  3
   3307   3310   3319   3320     1  0.0000000  0.6508444  3
   3307   3310   3319   3321     1  0.0000000  0.6508444  3
   3308   3307   3300   3329     1  0.0000000  0.6508444  3
   3308   3307   3310   3319     1  0.0000000  0.6508444  3
   3308   3307   3310   3311     1  0.0000000  0.6508444  3
   3308   3307   3310   3312     1  0.0000000  0.6508444  3
   3309   3307   3300   3329     1  0.0000000  0.6508444  3
   3309   3307   3310   3319     1  0.0000000  0.6508444  3
   3309   3307   3310   3311     1  0.0000000  0.6508444  3
   3309   3307   3310   3312     1  0.0000000  0.6508444  3
   3310   3307   3300   3329     1  0.0000000  0.6508444  3
   3311   3310   3319   3328     1  0.0000000  1.0460000  1
   3311   3310   3319   3328     1  0.0000000  0.0000000  3
   3311   3310   3319   3320     1  0.0000000  0.6508444  3
   3311   3310   3319   3321     1  0.0000000  0.6508444  3
   3312   3310   3319   3328     1  0.0000000  1.0460000  1
   3312   3310   3319   3328     1  0.0000000  0.0000000  3
   3312   3310   3319   3320     1  0.0000000  0.6508444  3
   3312   3310   3319   3321     1  0.0000000  0.6508444  3
   3313   3301   3300   3329     1  0.0000000  0.6508444  3
   3314   3313   3325   6469     1  0.0000000  1.0460000  1
   3314   3313   3325   6469     1  0.0000000  0.0000000  3
   3314   3313   3325   3326     1  0.0000000  0.6508444  3
   3314   3313   3325   3327     1  0.0000000  0.6508444  3
   3315   3313   3325   6469     1  0.0000000  1.0460000  1
   3315   3313   3325   6469     1  0.0000000  0.0000000  3
   3315   3313   3325   3326     1  0.0000000  0.6508444  3
   3315   3313   3325   3327     1  0.0000000  0.6508444  3
   3316   3304   3300   3329     1  0.0000000  0.6508444  3
   3317   3316   3322   6446     1  0.0000000  1.0460000  1
   3317   3316   3322   6446     1  0.0000000  0.0000000  3
   3317   3316   3322   3323     1  0.0000000  0.6508444  3
   3317   3316   3322   3324     1  0.0000000  0.6508444  3
   3318   3316   3322   6446     1  0.0000000  1.0460000  1
   3318   3316   3322   6446     1  0.0000000  0.0000000  3
   3318   3316   3322   3323     1  0.0000000  0.6508444  3
   3318   3316   3322   3324     1  0.0000000  0.6508444  3
   3322   6446   6442   6445     1  0.0000000  1.6038667  3
   3323   3322   6446   6442     1  0.0000000  1.6038667  3
   3324   3322   6446   6442     1  0.0000000  1.6038667  3
   3325   6469   6465   6468     1  0.0000000  1.6038667  3
   3326   3325   6469   6465     1  0.0000000  1.6038667  3
   3327   3325   6469   6465     1  0.0000000  1.6038667  3
   3330   3331   3343   3344     1  0.0000000  0.6508444  3
   3330   3331   3343   3345     1  0.0000000  0.6508444  3
   3330   3334   3346   3347     1  0.0000000  0.6508444  3
   3330   3334   3346   3348     1  0.0000000  0.6508444  3
   3330   3337   3340   3341     1  0.0000000  0.6508444  3
   3330   3337   3340   3342     1  0.0000000  0.6508444  3
   3331   3330   3334   3335     1  0.0000000  0.6508444  3
   3331   3330   3334   3336     1  0.0000000  0.6508444  3
   3331   3330   3337   3338     1  0.0000000  0.6508444  3
   3331   3330   3337   3339     1  0.0000000  0.6508444  3
   3331   3343   3355   3356     1  0.0000000  0.6508444  3
   3331   3343   3355   3357     1  0.0000000  0.6508444  3
   3332   3331   3330   3334     1  0.0000000  0.6508444  3
   3332   3331   3330   3337     1  0.0000000  0.6508444  3
   3332   3331   3330   3359     1  0.0000000  0.6508444  3
   3332   3331   3343   3355     1  0.0000000  0.6508444  3
   3332   3331   3343   3344     1  0.0000000  0.6508444  3
   3332   3331   3343   3345     1  0.0000000  0.6508444  3
   3333   3331   3330   3334     1  0.0000000  0.6508444  3
   3333   3331   3330   3337     1  0.0000000  0.6508444  3
   3333   3331   3330   3359     1  0.0000000  0.6508444  3
   3333   3331   3343   3355     1  0.0000000  0.6508444  3
   3333   3331   3343   3344     1  0.0000000  0.6508444  3
   3333   3331   3343   3345     1  0.0000000  0.6508444  3
   3334   3330   3337   3338     1  0.0000000  0.6508444  3
   3334   3330   3337   3339     1  0.0000000  0.6508444  3
   3334   3346   3352   3353     1  0.0000000  0.6508444  3
   3334   3346   3352   3354     1  0.0000000  0.6508444  3
   3335   3334   3330   3337     1  0.0000000  0.6508444  3
   3335   3334   3330   3359     1  0.0000000  0.6508444  3
   3335   3334   3346   3352     1  0.0000000  0.6508444  3
   3335   3334   3346   3347     1  0.0000000  0.6508444  3
   3335   3334   3346   3348     1  0.0000000  0.6508444  3
   3336   3334   3330   3337     1  0.0000000  0.6508444  3
   3336   3334   3330   3359     1  0.0000000  0.6508444  3
   3336   3334   3346   3352     1  0.0000000  0.6508444  3
   3336   3334   3346   3347     1  0.0000000  0.6508444  3
   3336   3334   3346   3348     1  0.0000000  0.6508444  3
   3337   3340   3349   3350     1  0.0000000  0.6508444  3
   3337   3340   3349   3351     1  0.0000000  0.6508444  3
   3338   3337   3330   3359     1  0.0000000  0.6508444  3
   3338   3337   3340   3349     1  0.0000000  0.6508444  3
   3338   3337   3340   3341     1  0.0000000  0.6508444  3
   3338   3337   3340   3342     1  0.0000000  0.6508444  3
   3339   3337   3330   3359     1  0.0000000  0.6508444  3
   3339   3337   3340   3349     1  0.0000000  0.6508444  3
   3339   3337   3340   3341     1  0.0000000  0.6508444  3
   3339   3337   3340   3342     1  0.0000000  0.6508444  3
   3340   3337   3330   3359     1  0.0000000  0.6508444  3
   3341   3340   3349   3358     1  0.0000000  1.0460000  1
   3341   3340   3349   3358     1  0.0000000  0.0000000  3
   3341   3340   3349   3350     1  0.0000000  0.6508444  3
   3341   3340   3349   3351     1  0.0000000  0.6508444  3
   3342   3340   3349   3358     1  0.0000000  1.0460000  1
   3342   3340   3349   3358     1  0.0000000  0.0000000  3
   3342   3340   3349   3350     1  0.0000000  0.6508444  3
   3342   3340   3349   3351     1  0.0000000  0.6508444  3
   3343   3331   3330   3359     1  0.0000000  0.6508444  3
   3344   3343   3355   6515     1  0.0000000  1.0460000  1
   3344   3343   3355   6515     1  0.0000000  0.0000000  3
   3344   3343   3355   3356     1  0.0000000  0.6508444  3
   3344   3343   3355   3357     1  0.0000000  0.6508444  3
   3345   3343   3355   6515     1  0.0000000  1.0460000  1
   3345   3343   3355   6515     1  0.0000000  0.0000000  3
   3345   3343   3355   3356     1  0.0000000  0.6508444  3
   3345   3343   3355   3357     1  0.0000000  0.6508444  3
   3346   3334   3330   3359     1  0.0000000  0.6508444  3
   3347   3346   3352   6492     1  0.0000000  1.0460000  1
   3347   3346   3352   6492     1  0.0000000  0.0000000  3
   3347   3346   3352   3353     1  0.0000000  0.6508444  3
   3347   3346   3352   3354     1  0.0000000  0.6508444  3
   3348   3346   3352   6492     1  0.0000000  1.0460000  1
   3348   3346   3352   6492     1  0.0000000  0.0000000  3
   3348   3346   3352   3353     1  0.0000000  0.6508444  3
   3348   3346   3352   3354     1  0.0000000  0.6508444  3
   3352   6492   6488   6491     1  0.0000000  1.6038667  3
   3353   3352   6492   6488     1  0.0000000  1.6038667  3
   3354   3352   6492   6488     1  0.0000000  1.6038667  3
   3355   6515   6511   6514     1  0.0000000  1.6038667  3
   3356   3355   6515   6511     1  0.0000000  1.6038667  3
   3357   3355   6515   6511     1  0.0000000  1.6038667  3
   3360   3361   3373   3374     1  0.0000000  0.6508444  3
   3360   3361   3373   3375     1  0.0000000  0.6508444  3
   3360   3364   3376   3377     1  0.0000000  0.6508444  3
   3360   3364   3376   3378     1  0.0000000  0.6508444  3
   3360   3367   3370   3371     1  0.0000000  0.6508444  3
   3360   3367   3370   3372     1  0.0000000  0.6508444  3
   3361   3360   3364   3365     1  0.0000000  0.6508444  3
   3361   3360   3364   3366     1  0.0000000  0.6508444  3
   3361   3360   3367   3368     1  0.0000000  0.6508444  3
   3361   3360   3367   3369     1  0.0000000  0.6508444  3
   3361   3373   3385   3386     1  0.0000000  0.6508444  3
   3361   3373   3385   3387     1  0.0000000  0.6508444  3
   3362   3361   3360   3364     1  0.0000000  0.6508444  3
   3362   3361   3360   3367     1  0.0000000  0.6508444  3
   3362   3361   3360   3389     1  0.0000000  0.6508444  3
   3362   3361   3373   3385     1  0.0000000  0.6508444  3
   3362   3361   3373   3374     1  0.0000000  0.6508444  3
   3362   3361   3373   3375     1  0.0000000  0.6508444  3
   3363   3361   3360   3364     1  0.0000000  0.6508444  3
   3363   3361   3360   3367     1  0.0000000  0.6508444  3
   3363   3361   3360   3389     1  0.0000000  0.6508444  3
   3363   3361   3373   3385     1  0.0000000  0.6508444  3
   3363   3361   3373   3374     1  0.0000000  0.6508444  3
   3363   3361   3373   3375     1  0.0000000  0.6508444  3
   3364   3360   3367   3368     1  0.0000000  0.6508444  3
   3364   3360   3367   3369     1  0.0000000  0.6508444  3
   3364   3376   3382   3383     1  0.0000000  0.6508444  3
   3364   3376   3382   3384     1  0.0000000  0.6508444  3
   3365   3364   3360   3367     1  0.0000000  0.6508444  3
   3365   3364   3360   3389     1  0.0000000  0.6508444  3
   3365   3364   3376   3382     1  0.0000000  0.6508444  3
   3365   3364   3376   3377     1  0.0000000  0.6508444  3
   3365   3364   3376   3378     1  0.0000000  0.6508444  3
   3366   3364   3360   3367     1  0.0000000  0.6508444  3
   3366   3364   3360   3389     1  0.0000000  0.6508444  3
   3366   3364   3376   3382     1  0.0000000  0.6508444  3
   3366   3364   3376   3377     1  0.0000000  0.6508444  3
   3366   3364   3376   3378     1  0.0000000  0.6508444  3
   3367   3370   3379   3380     1  0.0000000  0.6508444  3
   3367   3370   3379   3381     1  0.0000000  0.6508444  3
   3368   3367   3360   3389     1  0.0000000  0.6508444  3
   3368   3367   3370   3379     1  0.0000000  0.6508444  3
   3368   3367   3370   3371     1  0.0000000  0.6508444  3
   3368   3367   3370   3372     1  0.0000000  0.6508444  3
   3369   3367   3360   3389     1  0.0000000  0.6508444  3
   3369   3367   3370   3379     1  0.0000000  0.6508444  3
   3369   3367   3370   3371     1  0.0000000  0.6508444  3
   3369   3367   3370   3372     1  0.0000000  0.6508444  3
   3370   3367   3360   3389     1  0.0000000  0.6508444  3
   3371   3370   3379   3388     1  0.0000000  1.0460000  1
   3371   3370   3379   3388     1  0.0000000  0.0000000  3
   3371   3370   3379   3380     1  0.0000000  0.6508444  3
   3371   3370   3379   3381     1  0.0000000  0.6508444  3
   3372   3370   3379   3388     1  0.0000000  1.0460000  1
   3372   3370   3379   3388     1  0.0000000  0.0000000  3
   3372   3370   3379   3380     1  0.0000000  0.6508444  3
   3372   3370   3379   3381     1  0.0000000  0.6508444  3
   3373   3361   3360   3389     1  0.0000000  0.6508444  3
   3374   3373   3385   6561     1  0.0000000  1.0460000  1
   3374   3373   3385   6561     1  0.0000000  0.0000000  3
   3374   3373   3385   3386     1  0.0000000  0.6508444  3
   3374   3373   3385   3387     1  0.0000000  0.6508444  3
   3375   3373   3385   6561     1  0.0000000  1.0460000  1
   3375   3373   3385   6561     1  0.0000000  0.0000000  3
   3375   3373   3385   3386     1  0.0000000  0.6508444  3
   3375   3373   3385   3387     1  0.0000000  0.6508444  3
   3376   3364   3360   3389     1  0.0000000  0.6508444  3
   3377   3376   3382   6538     1  0.0000000  1.0460000  1
   3377   3376   3382   6538     1  0.0000000  0.0000000  3
   3377   3376   3382   3383     1  0.0000000  0.6508444  3
   3377   3376   3382   3384     1  0.0000000  0.6508444  3
   3378   3376   3382   6538     1  0.0000000  1.0460000  1
   3378   3376   3382   6538     1  0.0000000  0.0000000  3
   3378   3376   3382   3383     1  0.0000000  0.6508444  3
   3378   3376   3382   3384     1  0.0000000  0.6508444  3
   3382   6538   6534   6537     1  0.0000000  1.6038667  3
   3383   3382   6538   6534     1  0.0000000  1.6038667  3
   3384   3382   6538   6534     1  0.0000000  1.6038667  3
   3385   6561   6557   6560     1  0.0000000  1.6038667  3
   3386   3385   6561   6557     1  0.0000000  1.6038667  3
   3387   3385   6561   6557     1  0.0000000  1.6038667  3
   3390   3391   3403   3404     1  0.0000000  0.6508444  3
   3390   3391   3403   3405     1  0.0000000  0.6508444  3
   3390   3394   3406   3407     1  0.0000000  0.6508444  3
   3390   3394   3406   3408     1  0.0000000  0.6508444  3
   3390   3397   3400   3401     1  0.0000000  0.6508444  3
   3390   3397   3400   3402     1  0.0000000  0.6508444  3
   3391   3390   3394   3395     1  0.0000000  0.6508444  3
   3391   3390   3394   3396     1  0.0000000  0.6508444  3
   3391   3390   3397   3398     1  0.0000000  0.6508444  3
   3391   3390   3397   3399     1  0.0000000  0.6508444  3
   3391   3403   3415   3416     1  0.0000000  0.6508444  3
   3391   3403   3415   3417     1  0.0000000  0.6508444  3
   3392   3391   3390   3394     1  0.0000000  0.6508444  3
   3392   3391   3390   3397     1  0.0000000  0.6508444  3
   3392   3391   3390   3419     1  0.0000000  0.6508444  3
   3392   3391   3403   3415     1  0.0000000  0.6508444  3
   3392   3391   3403   3404     1  0.0000000  0.6508444  3
   3392   3391   3403   3405     1  0.0000000  0.6508444  3
   3393   3391   3390   3394     1  0.0000000  0.6508444  3
   3393   3391   3390   3397     1  0.0000000  0.6508444  3
   3393   3391   3390   3419     1  0.0000000  0.6508444  3
   3393   3391   3403   3415     1  0.0000000  0.6508444  3
   3393   3391   3403   3404     1  0.0000000  0.6508444  3
   3393   3391   3403   3405     1  0.0000000  0.6508444  3
   3394   3390   3397   3398     1  0.0000000  0.6508444  3
   3394   3390   3397   3399     1  0.0000000  0.6508444  3
   3394   3406   3412   3413     1  0.0000000  0.6508444  3
   3394   3406   3412   3414     1  0.0000000  0.6508444  3
   3395   3394   3390   3397     1  0.0000000  0.6508444  3
   3395   3394   3390   3419     1  0.0000000  0.6508444  3
   3395   3394   3406   3412     1  0.0000000  0.6508444  3
   3395   3394   3406   3407     1  0.0000000  0.6508444  3
   3395   3394   3406   3408     1  0.0000000  0.6508444  3
   3396   3394   3390   3397     1  0.0000000  0.6508444  3
   3396   3394   3390   3419     1  0.0000000  0.6508444  3
   3396   3394   3406   3412     1  0.0000000  0.6508444  3
   3396   3394   3406   3407     1  0.0000000  0.6508444  3
   3396   3394   3406   3408     1  0.0000000  0.6508444  3
   3397   3400   3409   3410     1  0.0000000  0.6508444  3
   3397   3400   3409   3411     1  0.0000000  0.6508444  3
   3398   3397   3390   3419     1  0.0000000  0.6508444  3
   3398   3397   3400   3409     1  0.0000000  0.6508444  3
   3398   3397   3400   3401     1  0.0000000  0.6508444  3
   3398   3397   3400   3402     1  0.0000000  0.6508444  3
   3399   3397   3390   3419     1  0.0000000  0.6508444  3
   3399   3397   3400   3409     1  0.0000000  0.6508444  3
   3399   3397   3400   3401     1  0.0000000  0.6508444  3
   3399   3397   3400   3402     1  0.0000000  0.6508444  3
   3400   3397   3390   3419     1  0.0000000  0.6508444  3
   3401   3400   3409   3418     1  0.0000000  1.0460000  1
   3401   3400   3409   3418     1  0.0000000  0.0000000  3
   3401   3400   3409   3410     1  0.0000000  0.6508444  3
   3401   3400   3409   3411     1  0.0000000  0.6508444  3
   3402   3400   3409   3418     1  0.0000000  1.0460000  1
   3402   3400   3409   3418     1  0.0000000  0.0000000  3
   3402   3400   3409   3410     1  0.0000000  0.6508444  3
   3402   3400   3409   3411     1  0.0000000  0.6508444  3
   3403   3391   3390   3419     1  0.0000000  0.6508444  3
   3404   3403   3415   6607     1  0.0000000  1.0460000  1
   3404   3403   3415   6607     1  0.0000000  0.0000000  3
   3404   3403   3415   3416     1  0.0000000  0.6508444  3
   3404   3403   3415   3417     1  0.0000000  0.6508444  3
   3405   3403   3415   6607     1  0.0000000  1.0460000  1
   3405   3403   3415   6607     1  0.0000000  0.0000000  3
   3405   3403   3415   3416     1  0.0000000  0.6508444  3
   3405   3403   3415   3417     1  0.0000000  0.6508444  3
   3406   3394   3390   3419     1  0.0000000  0.6508444  3
   3407   3406   3412   6584     1  0.0000000  1.0460000  1
   3407   3406   3412   6584     1  0.0000000  0.0000000  3
   3407   3406   3412   3413     1  0.0000000  0.6508444  3
   3407   3406   3412   3414     1  0.0000000  0.6508444  3
   3408   3406   3412   6584     1  0.0000000  1.0460000  1
   3408   3406   3412   6584     1  0.0000000  0.0000000  3
   3408   3406   3412   3413     1  0.0000000  0.6508444  3
   3408   3406   3412   3414     1  0.0000000  0.6508444  3
   3412   6584   6580   6583     1  0.0000000  1.6038667  3
   3413   3412   6584   6580     1  0.0000000  1.6038667  3
   3414   3412   6584   6580     1  0.0000000  1.6038667  3
   3415   6607   6603   6606     1  0.0000000  1.6038667  3
   3416   3415   6607   6603     1  0.0000000  1.6038667  3
   3417   3415   6607   6603     1  0.0000000  1.6038667  3
   3420   3421   3433   3434     1  0.0000000  0.6508444  3
   3420   3421   3433   3435     1  0.0000000  0.6508444  3
   3420   3424   3436   3437     1  0.0000000  0.6508444  3
   3420   3424   3436   3438     1  0.0000000  0.6508444  3
   3420   3427   3430   3431     1  0.0000000  0.6508444  3
   3420   3427   3430   3432     1  0.0000000  0.6508444  3
   3421   3420   3424   3425     1  0.0000000  0.6508444  3
   3421   3420   3424   3426     1  0.0000000  0.6508444  3
   3421   3420   3427   3428     1  0.0000000  0.6508444  3
   3421   3420   3427   3429     1  0.0000000  0.6508444  3
   3421   3433   3445   3446     1  0.0000000  0.6508444  3
   3421   3433   3445   3447     1  0.0000000  0.6508444  3
   3422   3421   3420   3424     1  0.0000000  0.6508444  3
   3422   3421   3420   3427     1  0.0000000  0.6508444  3
   3422   3421   3420   3449     1  0.0000000  0.6508444  3
   3422   3421   3433   3445     1  0.0000000  0.6508444  3
   3422   3421   3433   3434     1  0.0000000  0.6508444  3
   3422   3421   3433   3435     1  0.0000000  0.6508444  3
   3423   3421   3420   3424     1  0.0000000  0.6508444  3
   3423   3421   3420   3427     1  0.0000000  0.6508444  3
   3423   3421   3420   3449     1  0.0000000  0.6508444  3
   3423   3421   3433   3445     1  0.0000000  0.6508444  3
   3423   3421   3433   3434     1  0.0000000  0.6508444  3
   3423   3421   3433   3435     1  0.0000000  0.6508444  3
   3424   3420   3427   3428     1  0.0000000  0.6508444  3
   3424   3420   3427   3429     1  0.0000000  0.6508444  3
   3424   3436   3442   3443     1  0.0000000  0.6508444  3
   3424   3436   3442   3444     1  0.0000000  0.6508444  3
   3425   3424   3420   3427     1  0.0000000  0.6508444  3
   3425   3424   3420   3449     1  0.0000000  0.6508444  3
   3425   3424   3436   3442     1  0.0000000  0.6508444  3
   3425   3424   3436   3437     1  0.0000000  0.6508444  3
   3425   3424   3436   3438     1  0.0000000  0.6508444  3
   3426   3424   3420   3427     1  0.0000000  0.6508444  3
   3426   3424   3420   3449     1  0.0000000  0.6508444  3
   3426   3424   3436   3442     1  0.0000000  0.6508444  3
   3426   3424   3436   3437     1  0.0000000  0.6508444  3
   3426   3424   3436   3438     1  0.0000000  0.6508444  3
   3427   3430   3439   3440     1  0.0000000  0.6508444  3
   3427   3430   3439   3441     1  0.0000000  0.6508444  3
   3428   3427   3420   3449     1  0.0000000  0.6508444  3
   3428   3427   3430   3439     1  0.0000000  0.6508444  3
   3428   3427   3430   3431     1  0.0000000  0.6508444  3
   3428   3427   3430   3432     1  0.0000000  0.6508444  3
   3429   3427   3420   3449     1  0.0000000  0.6508444  3
   3429   3427   3430   3439     1  0.0000000  0.6508444  3
   3429   3427   3430   3431     1  0.0000000  0.6508444  3
   3429   3427   3430   3432     1  0.0000000  0.6508444  3
   3430   3427   3420   3449     1  0.0000000  0.6508444  3
   3431   3430   3439   3448     1  0.0000000  1.0460000  1
   3431   3430   3439   3448     1  0.0000000  0.0000000  3
   3431   3430   3439   3440     1  0.0000000  0.6508444  3
   3431   3430   3439   3441     1  0.0000000  0.6508444  3
   3432   3430   3439   3448     1  0.0000000  1.0460000  1
   3432   3430   3439   3448     1  0.0000000  0.0000000  3
   3432   3430   3439   3440     1  0.0000000  0.6508444  3
   3432   3430   3439   3441     1  0.0000000  0.6508444  3
   3433   3421   3420   3449     1  0.0000000  0.6508444  3
   3434   3433   3445   6653     1  0.0000000  1.0460000  1
   3434   3433   3445   6653     1  0.0000000  0.0000000  3
   3434   3433   3445   3446     1  0.0000000  0.6508444  3
   3434   3433   3445   3447     1  0.0000000  0.6508444  3
   3435   3433   3445   6653     1  0.0000000  1.0460000  1
   3435   3433   3445   6653     1  0.0000000  0.0000000  3
   3435   3433   3445   3446     1  0.0000000  0.6508444  3
   3435   3433   3445   3447     1  0.0000000  0.6508444  3
   3436   3424   3420   3449     1  0.0000000  0.6508444  3
   3437   3436   3442   6630     1  0.0000000  1.0460000  1
   3437   3436   3442   6630     1  0.0000000  0.0000000  3
   3437   3436   3442   3443     1  0.0000000  0.6508444  3
   3437   3436   3442   3444     1  0.0000000  0.6508444  3
   3438   3436   3442   6630     1  0.0000000  1.0460000  1
   3438   3436   3442   6630     1  0.0000000  0.0000000  3
   3438   3436   3442   3443     1  0.0000000  0.6508444  3
   3438   3436   3442   3444     1  0.0000000  0.6508444  3
   3442   6630   6626   6629     1  0.0000000  1.6038667  3
   3443   3442   6630   6626     1  0.0000000  1.6038667  3
   3444   3442   6630   6626     1  0.0000000  1.6038667  3
   3445   6653   6649   6652     1  0.0000000  1.6038667  3
   3446   3445   6653   6649     1  0.0000000  1.6038667  3
   3447   3445   6653   6649     1  0.0000000  1.6038667  3
   3450   3451   3463   3464     1  0.0000000  0.6508444  3
   3450   3451   3463   3465     1  0.0000000  0.6508444  3
   3450   3454   3466   3467     1  0.0000000  0.6508444  3
   3450   3454   3466   3468     1  0.0000000  0.6508444  3
   3450   3457   3460   3461     1  0.0000000  0.6508444  3
   3450   3457   3460   3462     1  0.0000000  0.6508444  3
   3451   3450   3454   3455     1  0.0000000  0.6508444  3
   3451   3450   3454   3456     1  0.0000000  0.6508444  3
   3451   3450   3457   3458     1  0.0000000  0.6508444  3
   3451   3450   3457   3459     1  0.0000000  0.6508444  3
   3451   3463   3475   3476     1  0.0000000  0.6508444  3
   3451   3463   3475   3477     1  0.0000000  0.6508444  3
   3452   3451   3450   3454     1  0.0000000  0.6508444  3
   3452   3451   3450   3457     1  0.0000000  0.6508444  3
   3452   3451   3450   3479     1  0.0000000  0.6508444  3
   3452   3451   3463   3475     1  0.0000000  0.6508444  3
   3452   3451   3463   3464     1  0.0000000  0.6508444  3
   3452   3451   3463   3465     1  0.0000000  0.6508444  3
   3453   3451   3450   3454     1  0.0000000  0.6508444  3
   3453   3451   3450   3457     1  0.0000000  0.6508444  3
   3453   3451   3450   3479     1  0.0000000  0.6508444  3
   3453   3451   3463   3475     1  0.0000000  0.6508444  3
   3453   3451   3463   3464     1  0.0000000  0.6508444  3
   3453   3451   3463   3465     1  0.0000000  0.6508444  3
   3454   3450   3457   3458     1  0.0000000  0.6508444  3
   3454   3450   3457   3459     1  0.0000000  0.6508444  3
   3454   3466   3472   3473     1  0.0000000  0.6508444  3
   3454   3466   3472   3474     1  0.0000000  0.6508444  3
   3455   3454   3450   3457     1  0.0000000  0.6508444  3
   3455   3454   3450   3479     1  0.0000000  0.6508444  3
   3455   3454   3466   3472     1  0.0000000  0.6508444  3
   3455   3454   3466   3467     1  0.0000000  0.6508444  3
   3455   3454   3466   3468     1  0.0000000  0.6508444  3
   3456   3454   3450   3457     1  0.0000000  0.6508444  3
   3456   3454   3450   3479     1  0.0000000  0.6508444  3
   3456   3454   3466   3472     1  0.0000000  0.6508444  3
   3456   3454   3466   3467     1  0.0000000  0.6508444  3
   3456   3454   3466   3468     1  0.0000000  0.6508444  3
   3457   3460   3469   3470     1  0.0000000  0.6508444  3
   3457   3460   3469   3471     1  0.0000000  0.6508444  3
   3458   3457   3450   3479     1  0.0000000  0.6508444  3
   3458   3457   3460   3469     1  0.0000000  0.6508444  3
   3458   3457   3460   3461     1  0.0000000  0.6508444  3
   3458   3457   3460   3462     1  0.0000000  0.6508444  3
   3459   3457   3450   3479     1  0.0000000  0.6508444  3
   3459   3457   3460   3469     1  0.0000000  0.6508444  3
   3459   3457   3460   3461     1  0.0000000  0.6508444  3
   3459   3457   3460   3462     1  0.0000000  0.6508444  3
   3460   3457   3450   3479     1  0.0000000  0.6508444  3
   3461   3460   3469   3478     1  0.0000000  1.0460000  1
   3461   3460   3469   3478     1  0.0000000  0.0000000  3
   3461   3460   3469   3470     1  0.0000000  0.6508444  3
   3461   3460   3469   3471     1  0.0000000  0.6508444  3
   3462   3460   3469   3478     1  0.0000000  1.0460000  1
   3462   3460   3469   3478     1  0.0000000  0.0000000  3
   3462   3460   3469   3470     1  0.0000000  0.6508444  3
   3462   3460   3469   3471     1  0.0000000  0.6508444  3
   3463   3451   3450   3479     1  0.0000000  0.6508444  3
   3464   3463   3475   6699     1  0.0000000  1.0460000  1
   3464   3463   3475   6699     1  0.0000000  0.0000000  3
   3464   3463   3475   3476     1  0.0000000  0.6508444  3
   3464   3463   3475   3477     1  0.0000000  0.6508444  3
   3465   3463   3475   6699     1  0.0000000  1.0460000  1
   3465   3463   3475   6699     1  0.0000000  0.0000000  3
   3465   3463   3475   3476     1  0.0000000  0.6508444  3
   3465   3463   3475   3477     1  0.0000000  0.6508444  3
   3466   3454   3450   3479     1  0.0000000  0.6508444  3
   3467   3466   3472   6676     1  0.0000000  1.0460000  1
   3467   3466   3472   6676     1  0.0000000  0.0000000  3
   3467   3466   3472   3473     1  0.0000000  0.6508444  3
   3467   3466   3472   3474     1  0.0000000  0.6508444  3
   3468   3466   3472   6676     1  0.0000000  1.0460000  1
   3468   3466   3472   6676     1  0.0000000  0.0000000  3
   3468   3466   3472   3473     1  0.0000000  0.6508444  3
   3468   3466   3472   3474     1  0.0000000  0.6508444  3
   3472   6676   6672   6675     1  0.0000000  1.6038667  3
   3473   3472   6676   6672     1  0.0000000  1.6038667  3
   3474   3472   6676   6672     1  0.0000000  1.6038667  3
   3475   6699   6695   6698     1  0.0000000  1.6038667  3
   3476   3475   6699   6695     1  0.0000000  1.6038667  3
   3477   3475   6699   6695     1  0.0000000  1.6038667  3
   3480   3481   3493   3494     1  0.0000000  0.6508444  3
   3480   3481   3493   3495     1  0.0000000  0.6508444  3
   3480   3484   3496   3497     1  0.0000000  0.6508444  3
   3480   3484   3496   3498     1  0.0000000  0.6508444  3
   3480   3487   3490   3491     1  0.0000000  0.6508444  3
   3480   3487   3490   3492     1  0.0000000  0.6508444  3
   3481   3480   3484   3485     1  0.0000000  0.6508444  3
   3481   3480   3484   3486     1  0.0000000  0.6508444  3
   3481   3480   3487   3488     1  0.0000000  0.6508444  3
   3481   3480   3487   3489     1  0.0000000  0.6508444  3
   3481   3493   3505   3506     1  0.0000000  0.6508444  3
   3481   3493   3505   3507     1  0.0000000  0.6508444  3
   3482   3481   3480   3484     1  0.0000000  0.6508444  3
   3482   3481   3480   3487     1  0.0000000  0.6508444  3
   3482   3481   3480   3509     1  0.0000000  0.6508444  3
   3482   3481   3493   3505     1  0.0000000  0.6508444  3
   3482   3481   3493   3494     1  0.0000000  0.6508444  3
   3482   3481   3493   3495     1  0.0000000  0.6508444  3
   3483   3481   3480   3484     1  0.0000000  0.6508444  3
   3483   3481   3480   3487     1  0.0000000  0.6508444  3
   3483   3481   3480   3509     1  0.0000000  0.6508444  3
   3483   3481   3493   3505     1  0.0000000  0.6508444  3
   3483   3481   3493   3494     1  0.0000000  0.6508444  3
   3483   3481   3493   3495     1  0.0000000  0.6508444  3
   3484   3480   3487   3488     1  0.0000000  0.6508444  3
   3484   3480   3487   3489     1  0.0000000  0.6508444  3
   3484   3496   3502   3503     1  0.0000000  0.6508444  3
   3484   3496   3502   3504     1  0.0000000  0.6508444  3
   3485   3484   3480   3487     1  0.0000000  0.6508444  3
   3485   3484   3480   3509     1  0.0000000  0.6508444  3
   3485   3484   3496   3502     1  0.0000000  0.6508444  3
   3485   3484   3496   3497     1  0.0000000  0.6508444  3
   3485   3484   3496   3498     1  0.0000000  0.6508444  3
   3486   3484   3480   3487     1  0.0000000  0.6508444  3
   3486   3484   3480   3509     1  0.0000000  0.6508444  3
   3486   3484   3496   3502     1  0.0000000  0.6508444  3
   3486   3484   3496   3497     1  0.0000000  0.6508444  3
   3486   3484   3496   3498     1  0.0000000  0.6508444  3
   3487   3490   3499   3500     1  0.0000000  0.6508444  3
   3487   3490   3499   3501     1  0.0000000  0.6508444  3
   3488   3487   3480   3509     1  0.0000000  0.6508444  3
   3488   3487   3490   3499     1  0.0000000  0.6508444  3
   3488   3487   3490   3491     1  0.0000000  0.6508444  3
   3488   3487   3490   3492     1  0.0000000  0.6508444  3
   3489   3487   3480   3509     1  0.0000000  0.6508444  3
   3489   3487   3490   3499     1  0.0000000  0.6508444  3
   3489   3487   3490   3491     1  0.0000000  0.6508444  3
   3489   3487   3490   3492     1  0.0000000  0.6508444  3
   3490   3487   3480   3509     1  0.0000000  0.6508444  3
   3491   3490   3499   3508     1  0.0000000  1.0460000  1
   3491   3490   3499   3508     1  0.0000000  0.0000000  3
   3491   3490   3499   3500     1  0.0000000  0.6508444  3
   3491   3490   3499   3501     1  0.0000000  0.6508444  3
   3492   3490   3499   3508     1  0.0000000  1.0460000  1
   3492   3490   3499   3508     1  0.0000000  0.0000000  3
   3492   3490   3499   3500     1  0.0000000  0.6508444  3
   3492   3490   3499   3501     1  0.0000000  0.6508444  3
   3493   3481   3480   3509     1  0.0000000  0.6508444  3
   3494   3493   3505   6745     1  0.0000000  1.0460000  1
   3494   3493   3505   6745     1  0.0000000  0.0000000  3
   3494   3493   3505   3506     1  0.0000000  0.6508444  3
   3494   3493   3505   3507     1  0.0000000  0.6508444  3
   3495   3493   3505   6745     1  0.0000000  1.0460000  1
   3495   3493   3505   6745     1  0.0000000  0.0000000  3
   3495   3493   3505   3506     1  0.0000000  0.6508444  3
   3495   3493   3505   3507     1  0.0000000  0.6508444  3
   3496   3484   3480   3509     1  0.0000000  0.6508444  3
   3497   3496   3502   6722     1  0.0000000  1.0460000  1
   3497   3496   3502   6722     1  0.0000000  0.0000000  3
   3497   3496   3502   3503     1  0.0000000  0.6508444  3
   3497   3496   3502   3504     1  0.0000000  0.6508444  3
   3498   3496   3502   6722     1  0.0000000  1.0460000  1
   3498   3496   3502   6722     1  0.0000000  0.0000000  3
   3498   3496   3502   3503     1  0.0000000  0.6508444  3
   3498   3496   3502   3504     1  0.0000000  0.6508444  3
   3502   6722   6718   6721     1  0.0000000  1.6038667  3
   3503   3502   6722   6718     1  0.0000000  1.6038667  3
   3504   3502   6722   6718     1  0.0000000  1.6038667  3
   3505   6745   6741   6744     1  0.0000000  1.6038667  3
   3506   3505   6745   6741     1  0.0000000  1.6038667  3
   3507   3505   6745   6741     1  0.0000000  1.6038667  3
   3510   3511   3523   3524     1  0.0000000  0.6508444  3
   3510   3511   3523   3525     1  0.0000000  0.6508444  3
   3510   3514   3526   3527     1  0.0000000  0.6508444  3
   3510   3514   3526   3528     1  0.0000000  0.6508444  3
   3510   3517   3520   3521     1  0.0000000  0.6508444  3
   3510   3517   3520   3522     1  0.0000000  0.6508444  3
   3511   3510   3514   3515     1  0.0000000  0.6508444  3
   3511   3510   3514   3516     1  0.0000000  0.6508444  3
   3511   3510   3517   3518     1  0.0000000  0.6508444  3
   3511   3510   3517   3519     1  0.0000000  0.6508444  3
   3511   3523   3535   3536     1  0.0000000  0.6508444  3
   3511   3523   3535   3537     1  0.0000000  0.6508444  3
   3512   3511   3510   3514     1  0.0000000  0.6508444  3
   3512   3511   3510   3517     1  0.0000000  0.6508444  3
   3512   3511   3510   3539     1  0.0000000  0.6508444  3
   3512   3511   3523   3535     1  0.0000000  0.6508444  3
   3512   3511   3523   3524     1  0.0000000  0.6508444  3
   3512   3511   3523   3525     1  0.0000000  0.6508444  3
   3513   3511   3510   3514     1  0.0000000  0.6508444  3
   3513   3511   3510   3517     1  0.0000000  0.6508444  3
   3513   3511   3510   3539     1  0.0000000  0.6508444  3
   3513   3511   3523   3535     1  0.0000000  0.6508444  3
   3513   3511   3523   3524     1  0.0000000  0.6508444  3
   3513   3511   3523   3525     1  0.0000000  0.6508444  3
   3514   3510   3517   3518     1  0.0000000  0.6508444  3
   3514   3510   3517   3519     1  0.0000000  0.6508444  3
   3514   3526   3532   3533     1  0.0000000  0.6508444  3
   3514   3526   3532   3534     1  0.0000000  0.6508444  3
   3515   3514   3510   3517     1  0.0000000  0.6508444  3
   3515   3514   3510   3539     1  0.0000000  0.6508444  3
   3515   3514   3526   3532     1  0.0000000  0.6508444  3
   3515   3514   3526   3527     1  0.0000000  0.6508444  3
   3515   3514   3526   3528     1  0.0000000  0.6508444  3
   3516   3514   3510   3517     1  0.0000000  0.6508444  3
   3516   3514   3510   3539     1  0.0000000  0.6508444  3
   3516   3514   3526   3532     1  0.0000000  0.6508444  3
   3516   3514   3526   3527     1  0.0000000  0.6508444  3
   3516   3514   3526   3528     1  0.0000000  0.6508444  3
   3517   3520   3529   3530     1  0.0000000  0.6508444  3
   3517   3520   3529   3531     1  0.0000000  0.6508444  3
   3518   3517   3510   3539     1  0.0000000  0.6508444  3
   3518   3517   3520   3529     1  0.0000000  0.6508444  3
   3518   3517   3520   3521     1  0.0000000  0.6508444  3
   3518   3517   3520   3522     1  0.0000000  0.6508444  3
   3519   3517   3510   3539     1  0.0000000  0.6508444  3
   3519   3517   3520   3529     1  0.0000000  0.6508444  3
   3519   3517   3520   3521     1  0.0000000  0.6508444  3
   3519   3517   3520   3522     1  0.0000000  0.6508444  3
   3520   3517   3510   3539     1  0.0000000  0.6508444  3
   3521   3520   3529   3538     1  0.0000000  1.0460000  1
   3521   3520   3529   3538     1  0.0000000  0.0000000  3
   3521   3520   3529   3530     1  0.0000000  0.6508444  3
   3521   3520   3529   3531     1  0.0000000  0.6508444  3
   3522   3520   3529   3538     1  0.0000000  1.0460000  1
   3522   3520   3529   3538     1  0.0000000  0.0000000  3
   3522   3520   3529   3530     1  0.0000000  0.6508444  3
   3522   3520   3529   3531     1  0.0000000  0.6508444  3
   3523   3511   3510   3539     1  0.0000000  0.6508444  3
   3524   3523   3535   6791     1  0.0000000  1.0460000  1
   3524   3523   3535   6791     1  0.0000000  0.0000000  3
   3524   3523   3535   3536     1  0.0000000  0.6508444  3
   3524   3523   3535   3537     1  0.0000000  0.6508444  3
   3525   3523   3535   6791     1  0.0000000  1.0460000  1
   3525   3523   3535   6791     1  0.0000000  0.0000000  3
   3525   3523   3535   3536     1  0.0000000  0.6508444  3
   3525   3523   3535   3537     1  0.0000000  0.6508444  3
   3526   3514   3510   3539     1  0.0000000  0.6508444  3
   3527   3526   3532   6768     1  0.0000000  1.0460000  1
   3527   3526   3532   6768     1  0.0000000  0.0000000  3
   3527   3526   3532   3533     1  0.0000000  0.6508444  3
   3527   3526   3532   3534     1  0.0000000  0.6508444  3
   3528   3526   3532   6768     1  0.0000000  1.0460000  1
   3528   3526   3532   6768     1  0.0000000  0.0000000  3
   3528   3526   3532   3533     1  0.0000000  0.6508444  3
   3528   3526   3532   3534     1  0.0000000  0.6508444  3
   3532   6768   6764   6767     1  0.0000000  1.6038667  3
   3533   3532   6768   6764     1  0.0000000  1.6038667  3
   3534   3532   6768   6764     1  0.0000000  1.6038667  3
   3535   6791   6787   6790     1  0.0000000  1.6038667  3
   3536   3535   6791   6787     1  0.0000000  1.6038667  3
   3537   3535   6791   6787     1  0.0000000  1.6038667  3
   3540   3541   3553   3554     1  0.0000000  0.6508444  3
   3540   3541   3553   3555     1  0.0000000  0.6508444  3
   3540   3544   3556   3557     1  0.0000000  0.6508444  3
   3540   3544   3556   3558     1  0.0000000  0.6508444  3
   3540   3547   3550   3551     1  0.0000000  0.6508444  3
   3540   3547   3550   3552     1  0.0000000  0.6508444  3
   3541   3540   3544   3545     1  0.0000000  0.6508444  3
   3541   3540   3544   3546     1  0.0000000  0.6508444  3
   3541   3540   3547   3548     1  0.0000000  0.6508444  3
   3541   3540   3547   3549     1  0.0000000  0.6508444  3
   3541   3553   3565   3566     1  0.0000000  0.6508444  3
   3541   3553   3565   3567     1  0.0000000  0.6508444  3
   3542   3541   3540   3544     1  0.0000000  0.6508444  3
   3542   3541   3540   3547     1  0.0000000  0.6508444  3
   3542   3541   3540   3569     1  0.0000000  0.6508444  3
   3542   3541   3553   3565     1  0.0000000  0.6508444  3
   3542   3541   3553   3554     1  0.0000000  0.6508444  3
   3542   3541   3553   3555     1  0.0000000  0.6508444  3
   3543   3541   3540   3544     1  0.0000000  0.6508444  3
   3543   3541   3540   3547     1  0.0000000  0.6508444  3
   3543   3541   3540   3569     1  0.0000000  0.6508444  3
   3543   3541   3553   3565     1  0.0000000  0.6508444  3
   3543   3541   3553   3554     1  0.0000000  0.6508444  3
   3543   3541   3553   3555     1  0.0000000  0.6508444  3
   3544   3540   3547   3548     1  0.0000000  0.6508444  3
   3544   3540   3547   3549     1  0.0000000  0.6508444  3
   3544   3556   3562   3563     1  0.0000000  0.6508444  3
   3544   3556   3562   3564     1  0.0000000  0.6508444  3
   3545   3544   3540   3547     1  0.0000000  0.6508444  3
   3545   3544   3540   3569     1  0.0000000  0.6508444  3
   3545   3544   3556   3562     1  0.0000000  0.6508444  3
   3545   3544   3556   3557     1  0.0000000  0.6508444  3
   3545   3544   3556   3558     1  0.0000000  0.6508444  3
   3546   3544   3540   3547     1  0.0000000  0.6508444  3
   3546   3544   3540   3569     1  0.0000000  0.6508444  3
   3546   3544   3556   3562     1  0.0000000  0.6508444  3
   3546   3544   3556   3557     1  0.0000000  0.6508444  3
   3546   3544   3556   3558     1  0.0000000  0.6508444  3
   3547   3550   3559   3560     1  0.0000000  0.6508444  3
   3547   3550   3559   3561     1  0.0000000  0.6508444  3
   3548   3547   3540   3569     1  0.0000000  0.6508444  3
   3548   3547   3550   3559     1  0.0000000  0.6508444  3
   3548   3547   3550   3551     1  0.0000000  0.6508444  3
   3548   3547   3550   3552     1  0.0000000  0.6508444  3
   3549   3547   3540   3569     1  0.0000000  0.6508444  3
   3549   3547   3550   3559     1  0.0000000  0.6508444  3
   3549   3547   3550   3551     1  0.0000000  0.6508444  3
   3549   3547   3550   3552     1  0.0000000  0.6508444  3
   3550   3547   3540   3569     1  0.0000000  0.6508444  3
   3551   3550   3559   3568     1  0.0000000  1.0460000  1
   3551   3550   3559   3568     1  0.0000000  0.0000000  3
   3551   3550   3559   3560     1  0.0000000  0.6508444  3
   3551   3550   3559   3561     1  0.0000000  0.6508444  3
   3552   3550   3559   3568     1  0.0000000  1.0460000  1
   3552   3550   3559   3568     1  0.0000000  0.0000000  3
   3552   3550   3559   3560     1  0.0000000  0.6508444  3
   3552   3550   3559   3561     1  0.0000000  0.6508444  3
   3553   3541   3540   3569     1  0.0000000  0.6508444  3
   3554   3553   3565   6837     1  0.0000000  1.0460000  1
   3554   3553   3565   6837     1  0.0000000  0.0000000  3
   3554   3553   3565   3566     1  0.0000000  0.6508444  3
   3554   3553   3565   3567     1  0.0000000  0.6508444  3
   3555   3553   3565   6837     1  0.0000000  1.0460000  1
   3555   3553   3565   6837     1  0.0000000  0.0000000  3
   3555   3553   3565   3566     1  0.0000000  0.6508444  3
   3555   3553   3565   3567     1  0.0000000  0.6508444  3
   3556   3544   3540   3569     1  0.0000000  0.6508444  3
   3557   3556   3562   6814     1  0.0000000  1.0460000  1
   3557   3556   3562   6814     1  0.0000000  0.0000000  3
   3557   3556   3562   3563     1  0.0000000  0.6508444  3
   3557   3556   3562   3564     1  0.0000000  0.6508444  3
   3558   3556   3562   6814     1  0.0000000  1.0460000  1
   3558   3556   3562   6814     1  0.0000000  0.0000000  3
   3558   3556   3562   3563     1  0.0000000  0.6508444  3
   3558   3556   3562   3564     1  0.0000000  0.6508444  3
   3562   6814   6810   6813     1  0.0000000  1.6038667  3
   3563   3562   6814   6810     1  0.0000000  1.6038667  3
   3564   3562   6814   6810     1  0.0000000  1.6038667  3
   3565   6837   6833   6836     1  0.0000000  1.6038667  3
   3566   3565   6837   6833     1  0.0000000  1.6038667  3
   3567   3565   6837   6833     1  0.0000000  1.6038667  3
   3570   3571   3583   3584     1  0.0000000  0.6508444  3
   3570   3571   3583   3585     1  0.0000000  0.6508444  3
   3570   3574   3586   3587     1  0.0000000  0.6508444  3
   3570   3574   3586   3588     1  0.0000000  0.6508444  3
   3570   3577   3580   3581     1  0.0000000  0.6508444  3
   3570   3577   3580   3582     1  0.0000000  0.6508444  3
   3571   3570   3574   3575     1  0.0000000  0.6508444  3
   3571   3570   3574   3576     1  0.0000000  0.6508444  3
   3571   3570   3577   3578     1  0.0000000  0.6508444  3
   3571   3570   3577   3579     1  0.0000000  0.6508444  3
   3571   3583   3595   3596     1  0.0000000  0.6508444  3
   3571   3583   3595   3597     1  0.0000000  0.6508444  3
   3572   3571   3570   3574     1  0.0000000  0.6508444  3
   3572   3571   3570   3577     1  0.0000000  0.6508444  3
   3572   3571   3570   3599     1  0.0000000  0.6508444  3
   3572   3571   3583   3595     1  0.0000000  0.6508444  3
   3572   3571   3583   3584     1  0.0000000  0.6508444  3
   3572   3571   3583   3585     1  0.0000000  0.6508444  3
   3573   3571   3570   3574     1  0.0000000  0.6508444  3
   3573   3571   3570   3577     1  0.0000000  0.6508444  3
   3573   3571   3570   3599     1  0.0000000  0.6508444  3
   3573   3571   3583   3595     1  0.0000000  0.6508444  3
   3573   3571   3583   3584     1  0.0000000  0.6508444  3
   3573   3571   3583   3585     1  0.0000000  0.6508444  3
   3574   3570   3577   3578     1  0.0000000  0.6508444  3
   3574   3570   3577   3579     1  0.0000000  0.6508444  3
   3574   3586   3592   3593     1  0.0000000  0.6508444  3
   3574   3586   3592   3594     1  0.0000000  0.6508444  3
   3575   3574   3570   3577     1  0.0000000  0.6508444  3
   3575   3574   3570   3599     1  0.0000000  0.6508444  3
   3575   3574   3586   3592     1  0.0000000  0.6508444  3
   3575   3574   3586   3587     1  0.0000000  0.6508444  3
   3575   3574   3586   3588     1  0.0000000  0.6508444  3
   3576   3574   3570   3577     1  0.0000000  0.6508444  3
   3576   3574   3570   3599     1  0.0000000  0.6508444  3
   3576   3574   3586   3592     1  0.0000000  0.6508444  3
   3576   3574   3586   3587     1  0.0000000  0.6508444  3
   3576   3574   3586   3588     1  0.0000000  0.6508444  3
   3577   3580   3589   3590     1  0.0000000  0.6508444  3
   3577   3580   3589   3591     1  0.0000000  0.6508444  3
   3578   3577   3570   3599     1  0.0000000  0.6508444  3
   3578   3577   3580   3589     1  0.0000000  0.6508444  3
   3578   3577   3580   3581     1  0.0000000  0.6508444  3
   3578   3577   3580   3582     1  0.0000000  0.6508444  3
   3579   3577   3570   3599     1  0.0000000  0.6508444  3
   3579   3577   3580   3589     1  0.0000000  0.6508444  3
   3579   3577   3580   3581     1  0.0000000  0.6508444  3
   3579   3577   3580   3582     1  0.0000000  0.6508444  3
   3580   3577   3570   3599     1  0.0000000  0.6508444  3
   3581   3580   3589   3598     1  0.0000000  1.0460000  1
   3581   3580   3589   3598     1  0.0000000  0.0000000  3
   3581   3580   3589   3590     1  0.0000000  0.6508444  3
   3581   3580   3589   3591     1  0.0000000  0.6508444  3
   3582   3580   3589   3598     1  0.0000000  1.0460000  1
   3582   3580   3589   3598     1  0.0000000  0.0000000  3
   3582   3580   3589   3590     1  0.0000000  0.6508444  3
   3582   3580   3589   3591     1  0.0000000  0.6508444  3
   3583   3571   3570   3599     1  0.0000000  0.6508444  3
   3584   3583   3595   6883     1  0.0000000  1.0460000  1
   3584   3583   3595   6883     1  0.0000000  0.0000000  3
   3584   3583   3595   3596     1  0.0000000  0.6508444  3
   3584   3583   3595   3597     1  0.0000000  0.6508444  3
   3585   3583   3595   6883     1  0.0000000  1.0460000  1
   3585   3583   3595   6883     1  0.0000000  0.0000000  3
   3585   3583   3595   3596     1  0.0000000  0.6508444  3
   3585   3583   3595   3597     1  0.0000000  0.6508444  3
   3586   3574   3570   3599     1  0.0000000  0.6508444  3
   3587   3586   3592   6860     1  0.0000000  1.0460000  1
   3587   3586   3592   6860     1  0.0000000  0.0000000  3
   3587   3586   3592   3593     1  0.0000000  0.6508444  3
   3587   3586   3592   3594     1  0.0000000  0.6508444  3
   3588   3586   3592   6860     1  0.0000000  1.0460000  1
   3588   3586   3592   6860     1  0.0000000  0.0000000  3
   3588   3586   3592   3593     1  0.0000000  0.6508444  3
   3588   3586   3592   3594     1  0.0000000  0.6508444  3
   3592   6860   6856   6859     1  0.0000000  1.6038667  3
   3593   3592   6860   6856     1  0.0000000  1.6038667  3
   3594   3592   6860   6856     1  0.0000000  1.6038667  3
   3595   6883   6879   6882     1  0.0000000  1.6038667  3
   3596   3595   6883   6879     1  0.0000000  1.6038667  3
   3597   3595   6883   6879     1  0.0000000  1.6038667  3
   3600   3601   3613   3614     1  0.0000000  0.6508444  3
   3600   3601   3613   3615     1  0.0000000  0.6508444  3
   3600   3604   3616   3617     1  0.0000000  0.6508444  3
   3600   3604   3616   3618     1  0.0000000  0.6508444  3
   3600   3607   3610   3611     1  0.0000000  0.6508444  3
   3600   3607   3610   3612     1  0.0000000  0.6508444  3
   3601   3600   3604   3605     1  0.0000000  0.6508444  3
   3601   3600   3604   3606     1  0.0000000  0.6508444  3
   3601   3600   3607   3608     1  0.0000000  0.6508444  3
   3601   3600   3607   3609     1  0.0000000  0.6508444  3
   3601   3613   3625   3626     1  0.0000000  0.6508444  3
   3601   3613   3625   3627     1  0.0000000  0.6508444  3
   3602   3601   3600   3604     1  0.0000000  0.6508444  3
   3602   3601   3600   3607     1  0.0000000  0.6508444  3
   3602   3601   3600   3629     1  0.0000000  0.6508444  3
   3602   3601   3613   3625     1  0.0000000  0.6508444  3
   3602   3601   3613   3614     1  0.0000000  0.6508444  3
   3602   3601   3613   3615     1  0.0000000  0.6508444  3
   3603   3601   3600   3604     1  0.0000000  0.6508444  3
   3603   3601   3600   3607     1  0.0000000  0.6508444  3
   3603   3601   3600   3629     1  0.0000000  0.6508444  3
   3603   3601   3613   3625     1  0.0000000  0.6508444  3
   3603   3601   3613   3614     1  0.0000000  0.6508444  3
   3603   3601   3613   3615     1  0.0000000  0.6508444  3
   3604   3600   3607   3608     1  0.0000000  0.6508444  3
   3604   3600   3607   3609     1  0.0000000  0.6508444  3
   3604   3616   3622   3623     1  0.0000000  0.6508444  3
   3604   3616   3622   3624     1  0.0000000  0.6508444  3
   3605   3604   3600   3607     1  0.0000000  0.6508444  3
   3605   3604   3600   3629     1  0.0000000  0.6508444  3
   3605   3604   3616   3622     1  0.0000000  0.6508444  3
   3605   3604   3616   3617     1  0.0000000  0.6508444  3
   3605   3604   3616   3618     1  0.0000000  0.6508444  3
   3606   3604   3600   3607     1  0.0000000  0.6508444  3
   3606   3604   3600   3629     1  0.0000000  0.6508444  3
   3606   3604   3616   3622     1  0.0000000  0.6508444  3
   3606   3604   3616   3617     1  0.0000000  0.6508444  3
   3606   3604   3616   3618     1  0.0000000  0.6508444  3
   3607   3610   3619   3620     1  0.0000000  0.6508444  3
   3607   3610   3619   3621     1  0.0000000  0.6508444  3
   3608   3607   3600   3629     1  0.0000000  0.6508444  3
   3608   3607   3610   3619     1  0.0000000  0.6508444  3
   3608   3607   3610   3611     1  0.0000000  0.6508444  3
   3608   3607   3610   3612     1  0.0000000  0.6508444  3
   3609   3607   3600   3629     1  0.0000000  0.6508444  3
   3609   3607   3610   3619     1  0.0000000  0.6508444  3
   3609   3607   3610   3611     1  0.0000000  0.6508444  3
   3609   3607   3610   3612     1  0.0000000  0.6508444  3
   3610   3607   3600   3629     1  0.0000000  0.6508444  3
   3611   3610   3619   3628     1  0.0000000  1.0460000  1
   3611   3610   3619   3628     1  0.0000000  0.0000000  3
   3611   3610   3619   3620     1  0.0000000  0.6508444  3
   3611   3610   3619   3621     1  0.0000000  0.6508444  3
   3612   3610   3619   3628     1  0.0000000  1.0460000  1
   3612   3610   3619   3628     1  0.0000000  0.0000000  3
   3612   3610   3619   3620     1  0.0000000  0.6508444  3
   3612   3610   3619   3621     1  0.0000000  0.6508444  3
   3613   3601   3600   3629     1  0.0000000  0.6508444  3
   3614   3613   3625   6929     1  0.0000000  1.0460000  1
   3614   3613   3625   6929     1  0.0000000  0.0000000  3
   3614   3613   3625   3626     1  0.0000000  0.6508444  3
   3614   3613   3625   3627     1  0.0000000  0.6508444  3
   3615   3613   3625   6929     1  0.0000000  1.0460000  1
   3615   3613   3625   6929     1  0.0000000  0.0000000  3
   3615   3613   3625   3626     1  0.0000000  0.6508444  3
   3615   3613   3625   3627     1  0.0000000  0.6508444  3
   3616   3604   3600   3629     1  0.0000000  0.6508444  3
   3617   3616   3622   6906     1  0.0000000  1.0460000  1
   3617   3616   3622   6906     1  0.0000000  0.0000000  3
   3617   3616   3622   3623     1  0.0000000  0.6508444  3
   3617   3616   3622   3624     1  0.0000000  0.6508444  3
   3618   3616   3622   6906     1  0.0000000  1.0460000  1
   3618   3616   3622   6906     1  0.0000000  0.0000000  3
   3618   3616   3622   3623     1  0.0000000  0.6508444  3
   3618   3616   3622   3624     1  0.0000000  0.6508444  3
   3622   6906   6902   6905     1  0.0000000  1.6038667  3
   3623   3622   6906   6902     1  0.0000000  1.6038667  3
   3624   3622   6906   6902     1  0.0000000  1.6038667  3
   3625   6929   6925   6928     1  0.0000000  1.6038667  3
   3626   3625   6929   6925     1  0.0000000  1.6038667  3
   3627   3625   6929   6925     1  0.0000000  1.6038667  3
   3630   3631   3643   3644     1  0.0000000  0.6508444  3
   3630   3631   3643   3645     1  0.0000000  0.6508444  3
   3630   3634   3646   3647     1  0.0000000  0.6508444  3
   3630   3634   3646   3648     1  0.0000000  0.6508444  3
   3630   3637   3640   3641     1  0.0000000  0.6508444  3
   3630   3637   3640   3642     1  0.0000000  0.6508444  3
   3631   3630   3634   3635     1  0.0000000  0.6508444  3
   3631   3630   3634   3636     1  0.0000000  0.6508444  3
   3631   3630   3637   3638     1  0.0000000  0.6508444  3
   3631   3630   3637   3639     1  0.0000000  0.6508444  3
   3631   3643   3655   3656     1  0.0000000  0.6508444  3
   3631   3643   3655   3657     1  0.0000000  0.6508444  3
   3632   3631   3630   3634     1  0.0000000  0.6508444  3
   3632   3631   3630   3637     1  0.0000000  0.6508444  3
   3632   3631   3630   3659     1  0.0000000  0.6508444  3
   3632   3631   3643   3655     1  0.0000000  0.6508444  3
   3632   3631   3643   3644     1  0.0000000  0.6508444  3
   3632   3631   3643   3645     1  0.0000000  0.6508444  3
   3633   3631   3630   3634     1  0.0000000  0.6508444  3
   3633   3631   3630   3637     1  0.0000000  0.6508444  3
   3633   3631   3630   3659     1  0.0000000  0.6508444  3
   3633   3631   3643   3655     1  0.0000000  0.6508444  3
   3633   3631   3643   3644     1  0.0000000  0.6508444  3
   3633   3631   3643   3645     1  0.0000000  0.6508444  3
   3634   3630   3637   3638     1  0.0000000  0.6508444  3
   3634   3630   3637   3639     1  0.0000000  0.6508444  3
   3634   3646   3652   3653     1  0.0000000  0.6508444  3
   3634   3646   3652   3654     1  0.0000000  0.6508444  3
   3635   3634   3630   3637     1  0.0000000  0.6508444  3
   3635   3634   3630   3659     1  0.0000000  0.6508444  3
   3635   3634   3646   3652     1  0.0000000  0.6508444  3
   3635   3634   3646   3647     1  0.0000000  0.6508444  3
   3635   3634   3646   3648     1  0.0000000  0.6508444  3
   3636   3634   3630   3637     1  0.0000000  0.6508444  3
   3636   3634   3630   3659     1  0.0000000  0.6508444  3
   3636   3634   3646   3652     1  0.0000000  0.6508444  3
   3636   3634   3646   3647     1  0.0000000  0.6508444  3
   3636   3634   3646   3648     1  0.0000000  0.6508444  3
   3637   3640   3649   3650     1  0.0000000  0.6508444  3
   3637   3640   3649   3651     1  0.0000000  0.6508444  3
   3638   3637   3630   3659     1  0.0000000  0.6508444  3
   3638   3637   3640   3649     1  0.0000000  0.6508444  3
   3638   3637   3640   3641     1  0.0000000  0.6508444  3
   3638   3637   3640   3642     1  0.0000000  0.6508444  3
   3639   3637   3630   3659     1  0.0000000  0.6508444  3
   3639   3637   3640   3649     1  0.0000000  0.6508444  3
   3639   3637   3640   3641     1  0.0000000  0.6508444  3
   3639   3637   3640   3642     1  0.0000000  0.6508444  3
   3640   3637   3630   3659     1  0.0000000  0.6508444  3
   3641   3640   3649   3658     1  0.0000000  1.0460000  1
   3641   3640   3649   3658     1  0.0000000  0.0000000  3
   3641   3640   3649   3650     1  0.0000000  0.6508444  3
   3641   3640   3649   3651     1  0.0000000  0.6508444  3
   3642   3640   3649   3658     1  0.0000000  1.0460000  1
   3642   3640   3649   3658     1  0.0000000  0.0000000  3
   3642   3640   3649   3650     1  0.0000000  0.6508444  3
   3642   3640   3649   3651     1  0.0000000  0.6508444  3
   3643   3631   3630   3659     1  0.0000000  0.6508444  3
   3644   3643   3655   6975     1  0.0000000  1.0460000  1
   3644   3643   3655   6975     1  0.0000000  0.0000000  3
   3644   3643   3655   3656     1  0.0000000  0.6508444  3
   3644   3643   3655   3657     1  0.0000000  0.6508444  3
   3645   3643   3655   6975     1  0.0000000  1.0460000  1
   3645   3643   3655   6975     1  0.0000000  0.0000000  3
   3645   3643   3655   3656     1  0.0000000  0.6508444  3
   3645   3643   3655   3657     1  0.0000000  0.6508444  3
   3646   3634   3630   3659     1  0.0000000  0.6508444  3
   3647   3646   3652   6952     1  0.0000000  1.0460000  1
   3647   3646   3652   6952     1  0.0000000  0.0000000  3
   3647   3646   3652   3653     1  0.0000000  0.6508444  3
   3647   3646   3652   3654     1  0.0000000  0.6508444  3
   3648   3646   3652   6952     1  0.0000000  1.0460000  1
   3648   3646   3652   6952     1  0.0000000  0.0000000  3
   3648   3646   3652   3653     1  0.0000000  0.6508444  3
   3648   3646   3652   3654     1  0.0000000  0.6508444  3
   3652   6952   6948   6951     1  0.0000000  1.6038667  3
   3653   3652   6952   6948     1  0.0000000  1.6038667  3
   3654   3652   6952   6948     1  0.0000000  1.6038667  3
   3655   6975   6971   6974     1  0.0000000  1.6038667  3
   3656   3655   6975   6971     1  0.0000000  1.6038667  3
   3657   3655   6975   6971     1  0.0000000  1.6038667  3
   3660   3661   3673   3674     1  0.0000000  0.6508444  3
   3660   3661   3673   3675     1  0.0000000  0.6508444  3
   3660   3664   3676   3677     1  0.0000000  0.6508444  3
   3660   3664   3676   3678     1  0.0000000  0.6508444  3
   3660   3667   3670   3671     1  0.0000000  0.6508444  3
   3660   3667   3670   3672     1  0.0000000  0.6508444  3
   3661   3660   3664   3665     1  0.0000000  0.6508444  3
   3661   3660   3664   3666     1  0.0000000  0.6508444  3
   3661   3660   3667   3668     1  0.0000000  0.6508444  3
   3661   3660   3667   3669     1  0.0000000  0.6508444  3
   3661   3673   3685   3686     1  0.0000000  0.6508444  3
   3661   3673   3685   3687     1  0.0000000  0.6508444  3
   3662   3661   3660   3664     1  0.0000000  0.6508444  3
   3662   3661   3660   3667     1  0.0000000  0.6508444  3
   3662   3661   3660   3689     1  0.0000000  0.6508444  3
   3662   3661   3673   3685     1  0.0000000  0.6508444  3
   3662   3661   3673   3674     1  0.0000000  0.6508444  3
   3662   3661   3673   3675     1  0.0000000  0.6508444  3
   3663   3661   3660   3664     1  0.0000000  0.6508444  3
   3663   3661   3660   3667     1  0.0000000  0.6508444  3
   3663   3661   3660   3689     1  0.0000000  0.6508444  3
   3663   3661   3673   3685     1  0.0000000  0.6508444  3
   3663   3661   3673   3674     1  0.0000000  0.6508444  3
   3663   3661   3673   3675     1  0.0000000  0.6508444  3
   3664   3660   3667   3668     1  0.0000000  0.6508444  3
   3664   3660   3667   3669     1  0.0000000  0.6508444  3
   3664   3676   3682   3683     1  0.0000000  0.6508444  3
   3664   3676   3682   3684     1  0.0000000  0.6508444  3
   3665   3664   3660   3667     1  0.0000000  0.6508444  3
   3665   3664   3660   3689     1  0.0000000  0.6508444  3
   3665   3664   3676   3682     1  0.0000000  0.6508444  3
   3665   3664   3676   3677     1  0.0000000  0.6508444  3
   3665   3664   3676   3678     1  0.0000000  0.6508444  3
   3666   3664   3660   3667     1  0.0000000  0.6508444  3
   3666   3664   3660   3689     1  0.0000000  0.6508444  3
   3666   3664   3676   3682     1  0.0000000  0.6508444  3
   3666   3664   3676   3677     1  0.0000000  0.6508444  3
   3666   3664   3676   3678     1  0.0000000  0.6508444  3
   3667   3670   3679   3680     1  0.0000000  0.6508444  3
   3667   3670   3679   3681     1  0.0000000  0.6508444  3
   3668   3667   3660   3689     1  0.0000000  0.6508444  3
   3668   3667   3670   3679     1  0.0000000  0.6508444  3
   3668   3667   3670   3671     1  0.0000000  0.6508444  3
   3668   3667   3670   3672     1  0.0000000  0.6508444  3
   3669   3667   3660   3689     1  0.0000000  0.6508444  3
   3669   3667   3670   3679     1  0.0000000  0.6508444  3
   3669   3667   3670   3671     1  0.0000000  0.6508444  3
   3669   3667   3670   3672     1  0.0000000  0.6508444  3
   3670   3667   3660   3689     1  0.0000000  0.6508444  3
   3671   3670   3679   3688     1  0.0000000  1.0460000  1
   3671   3670   3679   3688     1  0.0000000  0.0000000  3
   3671   3670   3679   3680     1  0.0000000  0.6508444  3
   3671   3670   3679   3681     1  0.0000000  0.6508444  3
   3672   3670   3679   3688     1  0.0000000  1.0460000  1
   3672   3670   3679   3688     1  0.0000000  0.0000000  3
   3672   3670   3679   3680     1  0.0000000  0.6508444  3
   3672   3670   3679   3681     1  0.0000000  0.6508444  3
   3673   3661   3660   3689     1  0.0000000  0.6508444  3
   3674   3673   3685   7021     1  0.0000000  1.0460000  1
   3674   3673   3685   7021     1  0.0000000  0.0000000  3
   3674   3673   3685   3686     1  0.0000000  0.6508444  3
   3674   3673   3685   3687     1  0.0000000  0.6508444  3
   3675   3673   3685   7021     1  0.0000000  1.0460000  1
   3675   3673   3685   7021     1  0.0000000  0.0000000  3
   3675   3673   3685   3686     1  0.0000000  0.6508444  3
   3675   3673   3685   3687     1  0.0000000  0.6508444  3
   3676   3664   3660   3689     1  0.0000000  0.6508444  3
   3677   3676   3682   6998     1  0.0000000  1.0460000  1
   3677   3676   3682   6998     1  0.0000000  0.0000000  3
   3677   3676   3682   3683     1  0.0000000  0.6508444  3
   3677   3676   3682   3684     1  0.0000000  0.6508444  3
   3678   3676   3682   6998     1  0.0000000  1.0460000  1
   3678   3676   3682   6998     1  0.0000000  0.0000000  3
   3678   3676   3682   3683     1  0.0000000  0.6508444  3
   3678   3676   3682   3684     1  0.0000000  0.6508444  3
   3682   6998   6994   6997     1  0.0000000  1.6038667  3
   3683   3682   6998   6994     1  0.0000000  1.6038667  3
   3684   3682   6998   6994     1  0.0000000  1.6038667  3
   3685   7021   7017   7020     1  0.0000000  1.6038667  3
   3686   3685   7021   7017     1  0.0000000  1.6038667  3
   3687   3685   7021   7017     1  0.0000000  1.6038667  3
   3690   3691   3703   3704     1  0.0000000  0.6508444  3
   3690   3691   3703   3705     1  0.0000000  0.6508444  3
   3690   3694   3706   3707     1  0.0000000  0.6508444  3
   3690   3694   3706   3708     1  0.0000000  0.6508444  3
   3690   3697   3700   3701     1  0.0000000  0.6508444  3
   3690   3697   3700   3702     1  0.0000000  0.6508444  3
   3691   3690   3694   3695     1  0.0000000  0.6508444  3
   3691   3690   3694   3696     1  0.0000000  0.6508444  3
   3691   3690   3697   3698     1  0.0000000  0.6508444  3
   3691   3690   3697   3699     1  0.0000000  0.6508444  3
   3691   3703   3715   3716     1  0.0000000  0.6508444  3
   3691   3703   3715   3717     1  0.0000000  0.6508444  3
   3692   3691   3690   3694     1  0.0000000  0.6508444  3
   3692   3691   3690   3697     1  0.0000000  0.6508444  3
   3692   3691   3690   3719     1  0.0000000  0.6508444  3
   3692   3691   3703   3715     1  0.0000000  0.6508444  3
   3692   3691   3703   3704     1  0.0000000  0.6508444  3
   3692   3691   3703   3705     1  0.0000000  0.6508444  3
   3693   3691   3690   3694     1  0.0000000  0.6508444  3
   3693   3691   3690   3697     1  0.0000000  0.6508444  3
   3693   3691   3690   3719     1  0.0000000  0.6508444  3
   3693   3691   3703   3715     1  0.0000000  0.6508444  3
   3693   3691   3703   3704     1  0.0000000  0.6508444  3
   3693   3691   3703   3705     1  0.0000000  0.6508444  3
   3694   3690   3697   3698     1  0.0000000  0.6508444  3
   3694   3690   3697   3699     1  0.0000000  0.6508444  3
   3694   3706   3712   3713     1  0.0000000  0.6508444  3
   3694   3706   3712   3714     1  0.0000000  0.6508444  3
   3695   3694   3690   3697     1  0.0000000  0.6508444  3
   3695   3694   3690   3719     1  0.0000000  0.6508444  3
   3695   3694   3706   3712     1  0.0000000  0.6508444  3
   3695   3694   3706   3707     1  0.0000000  0.6508444  3
   3695   3694   3706   3708     1  0.0000000  0.6508444  3
   3696   3694   3690   3697     1  0.0000000  0.6508444  3
   3696   3694   3690   3719     1  0.0000000  0.6508444  3
   3696   3694   3706   3712     1  0.0000000  0.6508444  3
   3696   3694   3706   3707     1  0.0000000  0.6508444  3
   3696   3694   3706   3708     1  0.0000000  0.6508444  3
   3697   3700   3709   3710     1  0.0000000  0.6508444  3
   3697   3700   3709   3711     1  0.0000000  0.6508444  3
   3698   3697   3690   3719     1  0.0000000  0.6508444  3
   3698   3697   3700   3709     1  0.0000000  0.6508444  3
   3698   3697   3700   3701     1  0.0000000  0.6508444  3
   3698   3697   3700   3702     1  0.0000000  0.6508444  3
   3699   3697   3690   3719     1  0.0000000  0.6508444  3
   3699   3697   3700   3709     1  0.0000000  0.6508444  3
   3699   3697   3700   3701     1  0.0000000  0.6508444  3
   3699   3697   3700   3702     1  0.0000000  0.6508444  3
   3700   3697   3690   3719     1  0.0000000  0.6508444  3
   3701   3700   3709   3718     1  0.0000000  1.0460000  1
   3701   3700   3709   3718     1  0.0000000  0.0000000  3
   3701   3700   3709   3710     1  0.0000000  0.6508444  3
   3701   3700   3709   3711     1  0.0000000  0.6508444  3
   3702   3700   3709   3718     1  0.0000000  1.0460000  1
   3702   3700   3709   3718     1  0.0000000  0.0000000  3
   3702   3700   3709   3710     1  0.0000000  0.6508444  3
   3702   3700   3709   3711     1  0.0000000  0.6508444  3
   3703   3691   3690   3719     1  0.0000000  0.6508444  3
   3704   3703   3715   7067     1  0.0000000  1.0460000  1
   3704   3703   3715   7067     1  0.0000000  0.0000000  3
   3704   3703   3715   3716     1  0.0000000  0.6508444  3
   3704   3703   3715   3717     1  0.0000000  0.6508444  3
   3705   3703   3715   7067     1  0.0000000  1.0460000  1
   3705   3703   3715   7067     1  0.0000000  0.0000000  3
   3705   3703   3715   3716     1  0.0000000  0.6508444  3
   3705   3703   3715   3717     1  0.0000000  0.6508444  3
   3706   3694   3690   3719     1  0.0000000  0.6508444  3
   3707   3706   3712   7044     1  0.0000000  1.0460000  1
   3707   3706   3712   7044     1  0.0000000  0.0000000  3
   3707   3706   3712   3713     1  0.0000000  0.6508444  3
   3707   3706   3712   3714     1  0.0000000  0.6508444  3
   3708   3706   3712   7044     1  0.0000000  1.0460000  1
   3708   3706   3712   7044     1  0.0000000  0.0000000  3
   3708   3706   3712   3713     1  0.0000000  0.6508444  3
   3708   3706   3712   3714     1  0.0000000  0.6508444  3
   3712   7044   7040   7043     1  0.0000000  1.6038667  3
   3713   3712   7044   7040     1  0.0000000  1.6038667  3
   3714   3712   7044   7040     1  0.0000000  1.6038667  3
   3715   7067   7063   7066     1  0.0000000  1.6038667  3
   3716   3715   7067   7063     1  0.0000000  1.6038667  3
   3717   3715   7067   7063     1  0.0000000  1.6038667  3
   3720   3721   3733   3734     1  0.0000000  0.6508444  3
   3720   3721   3733   3735     1  0.0000000  0.6508444  3
   3720   3724   3736   3737     1  0.0000000  0.6508444  3
   3720   3724   3736   3738     1  0.0000000  0.6508444  3
   3720   3727   3730   3731     1  0.0000000  0.6508444  3
   3720   3727   3730   3732     1  0.0000000  0.6508444  3
   3721   3720   3724   3725     1  0.0000000  0.6508444  3
   3721   3720   3724   3726     1  0.0000000  0.6508444  3
   3721   3720   3727   3728     1  0.0000000  0.6508444  3
   3721   3720   3727   3729     1  0.0000000  0.6508444  3
   3721   3733   3745   3746     1  0.0000000  0.6508444  3
   3721   3733   3745   3747     1  0.0000000  0.6508444  3
   3722   3721   3720   3724     1  0.0000000  0.6508444  3
   3722   3721   3720   3727     1  0.0000000  0.6508444  3
   3722   3721   3720   3749     1  0.0000000  0.6508444  3
   3722   3721   3733   3745     1  0.0000000  0.6508444  3
   3722   3721   3733   3734     1  0.0000000  0.6508444  3
   3722   3721   3733   3735     1  0.0000000  0.6508444  3
   3723   3721   3720   3724     1  0.0000000  0.6508444  3
   3723   3721   3720   3727     1  0.0000000  0.6508444  3
   3723   3721   3720   3749     1  0.0000000  0.6508444  3
   3723   3721   3733   3745     1  0.0000000  0.6508444  3
   3723   3721   3733   3734     1  0.0000000  0.6508444  3
   3723   3721   3733   3735     1  0.0000000  0.6508444  3
   3724   3720   3727   3728     1  0.0000000  0.6508444  3
   3724   3720   3727   3729     1  0.0000000  0.6508444  3
   3724   3736   3742   3743     1  0.0000000  0.6508444  3
   3724   3736   3742   3744     1  0.0000000  0.6508444  3
   3725   3724   3720   3727     1  0.0000000  0.6508444  3
   3725   3724   3720   3749     1  0.0000000  0.6508444  3
   3725   3724   3736   3742     1  0.0000000  0.6508444  3
   3725   3724   3736   3737     1  0.0000000  0.6508444  3
   3725   3724   3736   3738     1  0.0000000  0.6508444  3
   3726   3724   3720   3727     1  0.0000000  0.6508444  3
   3726   3724   3720   3749     1  0.0000000  0.6508444  3
   3726   3724   3736   3742     1  0.0000000  0.6508444  3
   3726   3724   3736   3737     1  0.0000000  0.6508444  3
   3726   3724   3736   3738     1  0.0000000  0.6508444  3
   3727   3730   3739   3740     1  0.0000000  0.6508444  3
   3727   3730   3739   3741     1  0.0000000  0.6508444  3
   3728   3727   3720   3749     1  0.0000000  0.6508444  3
   3728   3727   3730   3739     1  0.0000000  0.6508444  3
   3728   3727   3730   3731     1  0.0000000  0.6508444  3
   3728   3727   3730   3732     1  0.0000000  0.6508444  3
   3729   3727   3720   3749     1  0.0000000  0.6508444  3
   3729   3727   3730   3739     1  0.0000000  0.6508444  3
   3729   3727   3730   3731     1  0.0000000  0.6508444  3
   3729   3727   3730   3732     1  0.0000000  0.6508444  3
   3730   3727   3720   3749     1  0.0000000  0.6508444  3
   3731   3730   3739   3748     1  0.0000000  1.0460000  1
   3731   3730   3739   3748     1  0.0000000  0.0000000  3
   3731   3730   3739   3740     1  0.0000000  0.6508444  3
   3731   3730   3739   3741     1  0.0000000  0.6508444  3
   3732   3730   3739   3748     1  0.0000000  1.0460000  1
   3732   3730   3739   3748     1  0.0000000  0.0000000  3
   3732   3730   3739   3740     1  0.0000000  0.6508444  3
   3732   3730   3739   3741     1  0.0000000  0.6508444  3
   3733   3721   3720   3749     1  0.0000000  0.6508444  3
   3734   3733   3745   7113     1  0.0000000  1.0460000  1
   3734   3733   3745   7113     1  0.0000000  0.0000000  3
   3734   3733   3745   3746     1  0.0000000  0.6508444  3
   3734   3733   3745   3747     1  0.0000000  0.6508444  3
   3735   3733   3745   7113     1  0.0000000  1.0460000  1
   3735   3733   3745   7113     1  0.0000000  0.0000000  3
   3735   3733   3745   3746     1  0.0000000  0.6508444  3
   3735   3733   3745   3747     1  0.0000000  0.6508444  3
   3736   3724   3720   3749     1  0.0000000  0.6508444  3
   3737   3736   3742   7090     1  0.0000000  1.0460000  1
   3737   3736   3742   7090     1  0.0000000  0.0000000  3
   3737   3736   3742   3743     1  0.0000000  0.6508444  3
   3737   3736   3742   3744     1  0.0000000  0.6508444  3
   3738   3736   3742   7090     1  0.0000000  1.0460000  1
   3738   3736   3742   7090     1  0.0000000  0.0000000  3
   3738   3736   3742   3743     1  0.0000000  0.6508444  3
   3738   3736   3742   3744     1  0.0000000  0.6508444  3
   3742   7090   7086   7089     1  0.0000000  1.6038667  3
   3743   3742   7090   7086     1  0.0000000  1.6038667  3
   3744   3742   7090   7086     1  0.0000000  1.6038667  3
   3745   7113   7109   7112     1  0.0000000  1.6038667  3
   3746   3745   7113   7109     1  0.0000000  1.6038667  3
   3747   3745   7113   7109     1  0.0000000  1.6038667  3
   3750   3751   3763   3764     1  0.0000000  0.6508444  3
   3750   3751   3763   3765     1  0.0000000  0.6508444  3
   3750   3754   3766   3767     1  0.0000000  0.6508444  3
   3750   3754   3766   3768     1  0.0000000  0.6508444  3
   3750   3757   3760   3761     1  0.0000000  0.6508444  3
   3750   3757   3760   3762     1  0.0000000  0.6508444  3
   3751   3750   3754   3755     1  0.0000000  0.6508444  3
   3751   3750   3754   3756     1  0.0000000  0.6508444  3
   3751   3750   3757   3758     1  0.0000000  0.6508444  3
   3751   3750   3757   3759     1  0.0000000  0.6508444  3
   3751   3763   3775   3776     1  0.0000000  0.6508444  3
   3751   3763   3775   3777     1  0.0000000  0.6508444  3
   3752   3751   3750   3754     1  0.0000000  0.6508444  3
   3752   3751   3750   3757     1  0.0000000  0.6508444  3
   3752   3751   3750   3779     1  0.0000000  0.6508444  3
   3752   3751   3763   3775     1  0.0000000  0.6508444  3
   3752   3751   3763   3764     1  0.0000000  0.6508444  3
   3752   3751   3763   3765     1  0.0000000  0.6508444  3
   3753   3751   3750   3754     1  0.0000000  0.6508444  3
   3753   3751   3750   3757     1  0.0000000  0.6508444  3
   3753   3751   3750   3779     1  0.0000000  0.6508444  3
   3753   3751   3763   3775     1  0.0000000  0.6508444  3
   3753   3751   3763   3764     1  0.0000000  0.6508444  3
   3753   3751   3763   3765     1  0.0000000  0.6508444  3
   3754   3750   3757   3758     1  0.0000000  0.6508444  3
   3754   3750   3757   3759     1  0.0000000  0.6508444  3
   3754   3766   3772   3773     1  0.0000000  0.6508444  3
   3754   3766   3772   3774     1  0.0000000  0.6508444  3
   3755   3754   3750   3757     1  0.0000000  0.6508444  3
   3755   3754   3750   3779     1  0.0000000  0.6508444  3
   3755   3754   3766   3772     1  0.0000000  0.6508444  3
   3755   3754   3766   3767     1  0.0000000  0.6508444  3
   3755   3754   3766   3768     1  0.0000000  0.6508444  3
   3756   3754   3750   3757     1  0.0000000  0.6508444  3
   3756   3754   3750   3779     1  0.0000000  0.6508444  3
   3756   3754   3766   3772     1  0.0000000  0.6508444  3
   3756   3754   3766   3767     1  0.0000000  0.6508444  3
   3756   3754   3766   3768     1  0.0000000  0.6508444  3
   3757   3760   3769   3770     1  0.0000000  0.6508444  3
   3757   3760   3769   3771     1  0.0000000  0.6508444  3
   3758   3757   3750   3779     1  0.0000000  0.6508444  3
   3758   3757   3760   3769     1  0.0000000  0.6508444  3
   3758   3757   3760   3761     1  0.0000000  0.6508444  3
   3758   3757   3760   3762     1  0.0000000  0.6508444  3
   3759   3757   3750   3779     1  0.0000000  0.6508444  3
   3759   3757   3760   3769     1  0.0000000  0.6508444  3
   3759   3757   3760   3761     1  0.0000000  0.6508444  3
   3759   3757   3760   3762     1  0.0000000  0.6508444  3
   3760   3757   3750   3779     1  0.0000000  0.6508444  3
   3761   3760   3769   3778     1  0.0000000  1.0460000  1
   3761   3760   3769   3778     1  0.0000000  0.0000000  3
   3761   3760   3769   3770     1  0.0000000  0.6508444  3
   3761   3760   3769   3771     1  0.0000000  0.6508444  3
   3762   3760   3769   3778     1  0.0000000  1.0460000  1
   3762   3760   3769   3778     1  0.0000000  0.0000000  3
   3762   3760   3769   3770     1  0.0000000  0.6508444  3
   3762   3760   3769   3771     1  0.0000000  0.6508444  3
   3763   3751   3750   3779     1  0.0000000  0.6508444  3
   3764   3763   3775   7159     1  0.0000000  1.0460000  1
   3764   3763   3775   7159     1  0.0000000  0.0000000  3
   3764   3763   3775   3776     1  0.0000000  0.6508444  3
   3764   3763   3775   3777     1  0.0000000  0.6508444  3
   3765   3763   3775   7159     1  0.0000000  1.0460000  1
   3765   3763   3775   7159     1  0.0000000  0.0000000  3
   3765   3763   3775   3776     1  0.0000000  0.6508444  3
   3765   3763   3775   3777     1  0.0000000  0.6508444  3
   3766   3754   3750   3779     1  0.0000000  0.6508444  3
   3767   3766   3772   7136     1  0.0000000  1.0460000  1
   3767   3766   3772   7136     1  0.0000000  0.0000000  3
   3767   3766   3772   3773     1  0.0000000  0.6508444  3
   3767   3766   3772   3774     1  0.0000000  0.6508444  3
   3768   3766   3772   7136     1  0.0000000  1.0460000  1
   3768   3766   3772   7136     1  0.0000000  0.0000000  3
   3768   3766   3772   3773     1  0.0000000  0.6508444  3
   3768   3766   3772   3774     1  0.0000000  0.6508444  3
   3772   7136   7132   7135     1  0.0000000  1.6038667  3
   3773   3772   7136   7132     1  0.0000000  1.6038667  3
   3774   3772   7136   7132     1  0.0000000  1.6038667  3
   3775   7159   7155   7158     1  0.0000000  1.6038667  3
   3776   3775   7159   7155     1  0.0000000  1.6038667  3
   3777   3775   7159   7155     1  0.0000000  1.6038667  3
   3780   3781   3793   3794     1  0.0000000  0.6508444  3
   3780   3781   3793   3795     1  0.0000000  0.6508444  3
   3780   3784   3796   3797     1  0.0000000  0.6508444  3
   3780   3784   3796   3798     1  0.0000000  0.6508444  3
   3780   3787   3790   3791     1  0.0000000  0.6508444  3
   3780   3787   3790   3792     1  0.0000000  0.6508444  3
   3781   3780   3784   3785     1  0.0000000  0.6508444  3
   3781   3780   3784   3786     1  0.0000000  0.6508444  3
   3781   3780   3787   3788     1  0.0000000  0.6508444  3
   3781   3780   3787   3789     1  0.0000000  0.6508444  3
   3781   3793   3805   3806     1  0.0000000  0.6508444  3
   3781   3793   3805   3807     1  0.0000000  0.6508444  3
   3782   3781   3780   3784     1  0.0000000  0.6508444  3
   3782   3781   3780   3787     1  0.0000000  0.6508444  3
   3782   3781   3780   3809     1  0.0000000  0.6508444  3
   3782   3781   3793   3805     1  0.0000000  0.6508444  3
   3782   3781   3793   3794     1  0.0000000  0.6508444  3
   3782   3781   3793   3795     1  0.0000000  0.6508444  3
   3783   3781   3780   3784     1  0.0000000  0.6508444  3
   3783   3781   3780   3787     1  0.0000000  0.6508444  3
   3783   3781   3780   3809     1  0.0000000  0.6508444  3
   3783   3781   3793   3805     1  0.0000000  0.6508444  3
   3783   3781   3793   3794     1  0.0000000  0.6508444  3
   3783   3781   3793   3795     1  0.0000000  0.6508444  3
   3784   3780   3787   3788     1  0.0000000  0.6508444  3
   3784   3780   3787   3789     1  0.0000000  0.6508444  3
   3784   3796   3802   3803     1  0.0000000  0.6508444  3
   3784   3796   3802   3804     1  0.0000000  0.6508444  3
   3785   3784   3780   3787     1  0.0000000  0.6508444  3
   3785   3784   3780   3809     1  0.0000000  0.6508444  3
   3785   3784   3796   3802     1  0.0000000  0.6508444  3
   3785   3784   3796   3797     1  0.0000000  0.6508444  3
   3785   3784   3796   3798     1  0.0000000  0.6508444  3
   3786   3784   3780   3787     1  0.0000000  0.6508444  3
   3786   3784   3780   3809     1  0.0000000  0.6508444  3
   3786   3784   3796   3802     1  0.0000000  0.6508444  3
   3786   3784   3796   3797     1  0.0000000  0.6508444  3
   3786   3784   3796   3798     1  0.0000000  0.6508444  3
   3787   3790   3799   3800     1  0.0000000  0.6508444  3
   3787   3790   3799   3801     1  0.0000000  0.6508444  3
   3788   3787   3780   3809     1  0.0000000  0.6508444  3
   3788   3787   3790   3799     1  0.0000000  0.6508444  3
   3788   3787   3790   3791     1  0.0000000  0.6508444  3
   3788   3787   3790   3792     1  0.0000000  0.6508444  3
   3789   3787   3780   3809     1  0.0000000  0.6508444  3
   3789   3787   3790   3799     1  0.0000000  0.6508444  3
   3789   3787   3790   3791     1  0.0000000  0.6508444  3
   3789   3787   3790   3792     1  0.0000000  0.6508444  3
   3790   3787   3780   3809     1  0.0000000  0.6508444  3
   3791   3790   3799   3808     1  0.0000000  1.0460000  1
   3791   3790   3799   3808     1  0.0000000  0.0000000  3
   3791   3790   3799   3800     1  0.0000000  0.6508444  3
   3791   3790   3799   3801     1  0.0000000  0.6508444  3
   3792   3790   3799   3808     1  0.0000000  1.0460000  1
   3792   3790   3799   3808     1  0.0000000  0.0000000  3
   3792   3790   3799   3800     1  0.0000000  0.6508444  3
   3792   3790   3799   3801     1  0.0000000  0.6508444  3
   3793   3781   3780   3809     1  0.0000000  0.6508444  3
   3794   3793   3805   7205     1  0.0000000  1.0460000  1
   3794   3793   3805   7205     1  0.0000000  0.0000000  3
   3794   3793   3805   3806     1  0.0000000  0.6508444  3
   3794   3793   3805   3807     1  0.0000000  0.6508444  3
   3795   3793   3805   7205     1  0.0000000  1.0460000  1
   3795   3793   3805   7205     1  0.0000000  0.0000000  3
   3795   3793   3805   3806     1  0.0000000  0.6508444  3
   3795   3793   3805   3807     1  0.0000000  0.6508444  3
   3796   3784   3780   3809     1  0.0000000  0.6508444  3
   3797   3796   3802   7182     1  0.0000000  1.0460000  1
   3797   3796   3802   7182     1  0.0000000  0.0000000  3
   3797   3796   3802   3803     1  0.0000000  0.6508444  3
   3797   3796   3802   3804     1  0.0000000  0.6508444  3
   3798   3796   3802   7182     1  0.0000000  1.0460000  1
   3798   3796   3802   7182     1  0.0000000  0.0000000  3
   3798   3796   3802   3803     1  0.0000000  0.6508444  3
   3798   3796   3802   3804     1  0.0000000  0.6508444  3
   3802   7182   7178   7181     1  0.0000000  1.6038667  3
   3803   3802   7182   7178     1  0.0000000  1.6038667  3
   3804   3802   7182   7178     1  0.0000000  1.6038667  3
   3805   7205   7201   7204     1  0.0000000  1.6038667  3
   3806   3805   7205   7201     1  0.0000000  1.6038667  3
   3807   3805   7205   7201     1  0.0000000  1.6038667  3
   3810   3811   3823   3824     1  0.0000000  0.6508444  3
   3810   3811   3823   3825     1  0.0000000  0.6508444  3
   3810   3814   3826   3827     1  0.0000000  0.6508444  3
   3810   3814   3826   3828     1  0.0000000  0.6508444  3
   3810   3817   3820   3821     1  0.0000000  0.6508444  3
   3810   3817   3820   3822     1  0.0000000  0.6508444  3
   3811   3810   3814   3815     1  0.0000000  0.6508444  3
   3811   3810   3814   3816     1  0.0000000  0.6508444  3
   3811   3810   3817   3818     1  0.0000000  0.6508444  3
   3811   3810   3817   3819     1  0.0000000  0.6508444  3
   3811   3823   3835   3836     1  0.0000000  0.6508444  3
   3811   3823   3835   3837     1  0.0000000  0.6508444  3
   3812   3811   3810   3814     1  0.0000000  0.6508444  3
   3812   3811   3810   3817     1  0.0000000  0.6508444  3
   3812   3811   3810   3839     1  0.0000000  0.6508444  3
   3812   3811   3823   3835     1  0.0000000  0.6508444  3
   3812   3811   3823   3824     1  0.0000000  0.6508444  3
   3812   3811   3823   3825     1  0.0000000  0.6508444  3
   3813   3811   3810   3814     1  0.0000000  0.6508444  3
   3813   3811   3810   3817     1  0.0000000  0.6508444  3
   3813   3811   3810   3839     1  0.0000000  0.6508444  3
   3813   3811   3823   3835     1  0.0000000  0.6508444  3
   3813   3811   3823   3824     1  0.0000000  0.6508444  3
   3813   3811   3823   3825     1  0.0000000  0.6508444  3
   3814   3810   3817   3818     1  0.0000000  0.6508444  3
   3814   3810   3817   3819     1  0.0000000  0.6508444  3
   3814   3826   3832   3833     1  0.0000000  0.6508444  3
   3814   3826   3832   3834     1  0.0000000  0.6508444  3
   3815   3814   3810   3817     1  0.0000000  0.6508444  3
   3815   3814   3810   3839     1  0.0000000  0.6508444  3
   3815   3814   3826   3832     1  0.0000000  0.6508444  3
   3815   3814   3826   3827     1  0.0000000  0.6508444  3
   3815   3814   3826   3828     1  0.0000000  0.6508444  3
   3816   3814   3810   3817     1  0.0000000  0.6508444  3
   3816   3814   3810   3839     1  0.0000000  0.6508444  3
   3816   3814   3826   3832     1  0.0000000  0.6508444  3
   3816   3814   3826   3827     1  0.0000000  0.6508444  3
   3816   3814   3826   3828     1  0.0000000  0.6508444  3
   3817   3820   3829   3830     1  0.0000000  0.6508444  3
   3817   3820   3829   3831     1  0.0000000  0.6508444  3
   3818   3817   3810   3839     1  0.0000000  0.6508444  3
   3818   3817   3820   3829     1  0.0000000  0.6508444  3
   3818   3817   3820   3821     1  0.0000000  0.6508444  3
   3818   3817   3820   3822     1  0.0000000  0.6508444  3
   3819   3817   3810   3839     1  0.0000000  0.6508444  3
   3819   3817   3820   3829     1  0.0000000  0.6508444  3
   3819   3817   3820   3821     1  0.0000000  0.6508444  3
   3819   3817   3820   3822     1  0.0000000  0.6508444  3
   3820   3817   3810   3839     1  0.0000000  0.6508444  3
   3821   3820   3829   3838     1  0.0000000  1.0460000  1
   3821   3820   3829   3838     1  0.0000000  0.0000000  3
   3821   3820   3829   3830     1  0.0000000  0.6508444  3
   3821   3820   3829   3831     1  0.0000000  0.6508444  3
   3822   3820   3829   3838     1  0.0000000  1.0460000  1
   3822   3820   3829   3838     1  0.0000000  0.0000000  3
   3822   3820   3829   3830     1  0.0000000  0.6508444  3
   3822   3820   3829   3831     1  0.0000000  0.6508444  3
   3823   3811   3810   3839     1  0.0000000  0.6508444  3
   3824   3823   3835   7251     1  0.0000000  1.0460000  1
   3824   3823   3835   7251     1  0.0000000  0.0000000  3
   3824   3823   3835   3836     1  0.0000000  0.6508444  3
   3824   3823   3835   3837     1  0.0000000  0.6508444  3
   3825   3823   3835   7251     1  0.0000000  1.0460000  1
   3825   3823   3835   7251     1  0.0000000  0.0000000  3
   3825   3823   3835   3836     1  0.0000000  0.6508444  3
   3825   3823   3835   3837     1  0.0000000  0.6508444  3
   3826   3814   3810   3839     1  0.0000000  0.6508444  3
   3827   3826   3832   7228     1  0.0000000  1.0460000  1
   3827   3826   3832   7228     1  0.0000000  0.0000000  3
   3827   3826   3832   3833     1  0.0000000  0.6508444  3
   3827   3826   3832   3834     1  0.0000000  0.6508444  3
   3828   3826   3832   7228     1  0.0000000  1.0460000  1
   3828   3826   3832   7228     1  0.0000000  0.0000000  3
   3828   3826   3832   3833     1  0.0000000  0.6508444  3
   3828   3826   3832   3834     1  0.0000000  0.6508444  3
   3832   7228   7224   7227     1  0.0000000  1.6038667  3
   3833   3832   7228   7224     1  0.0000000  1.6038667  3
   3834   3832   7228   7224     1  0.0000000  1.6038667  3
   3835   7251   7247   7250     1  0.0000000  1.6038667  3
   3836   3835   7251   7247     1  0.0000000  1.6038667  3
   3837   3835   7251   7247     1  0.0000000  1.6038667  3
   3840   3841   3853   3854     1  0.0000000  0.6508444  3
   3840   3841   3853   3855     1  0.0000000  0.6508444  3
   3840   3844   3856   3857     1  0.0000000  0.6508444  3
   3840   3844   3856   3858     1  0.0000000  0.6508444  3
   3840   3847   3850   3851     1  0.0000000  0.6508444  3
   3840   3847   3850   3852     1  0.0000000  0.6508444  3
   3841   3840   3844   3845     1  0.0000000  0.6508444  3
   3841   3840   3844   3846     1  0.0000000  0.6508444  3
   3841   3840   3847   3848     1  0.0000000  0.6508444  3
   3841   3840   3847   3849     1  0.0000000  0.6508444  3
   3841   3853   3865   3866     1  0.0000000  0.6508444  3
   3841   3853   3865   3867     1  0.0000000  0.6508444  3
   3842   3841   3840   3844     1  0.0000000  0.6508444  3
   3842   3841   3840   3847     1  0.0000000  0.6508444  3
   3842   3841   3840   3869     1  0.0000000  0.6508444  3
   3842   3841   3853   3865     1  0.0000000  0.6508444  3
   3842   3841   3853   3854     1  0.0000000  0.6508444  3
   3842   3841   3853   3855     1  0.0000000  0.6508444  3
   3843   3841   3840   3844     1  0.0000000  0.6508444  3
   3843   3841   3840   3847     1  0.0000000  0.6508444  3
   3843   3841   3840   3869     1  0.0000000  0.6508444  3
   3843   3841   3853   3865     1  0.0000000  0.6508444  3
   3843   3841   3853   3854     1  0.0000000  0.6508444  3
   3843   3841   3853   3855     1  0.0000000  0.6508444  3
   3844   3840   3847   3848     1  0.0000000  0.6508444  3
   3844   3840   3847   3849     1  0.0000000  0.6508444  3
   3844   3856   3862   3863     1  0.0000000  0.6508444  3
   3844   3856   3862   3864     1  0.0000000  0.6508444  3
   3845   3844   3840   3847     1  0.0000000  0.6508444  3
   3845   3844   3840   3869     1  0.0000000  0.6508444  3
   3845   3844   3856   3862     1  0.0000000  0.6508444  3
   3845   3844   3856   3857     1  0.0000000  0.6508444  3
   3845   3844   3856   3858     1  0.0000000  0.6508444  3
   3846   3844   3840   3847     1  0.0000000  0.6508444  3
   3846   3844   3840   3869     1  0.0000000  0.6508444  3
   3846   3844   3856   3862     1  0.0000000  0.6508444  3
   3846   3844   3856   3857     1  0.0000000  0.6508444  3
   3846   3844   3856   3858     1  0.0000000  0.6508444  3
   3847   3850   3859   3860     1  0.0000000  0.6508444  3
   3847   3850   3859   3861     1  0.0000000  0.6508444  3
   3848   3847   3840   3869     1  0.0000000  0.6508444  3
   3848   3847   3850   3859     1  0.0000000  0.6508444  3
   3848   3847   3850   3851     1  0.0000000  0.6508444  3
   3848   3847   3850   3852     1  0.0000000  0.6508444  3
   3849   3847   3840   3869     1  0.0000000  0.6508444  3
   3849   3847   3850   3859     1  0.0000000  0.6508444  3
   3849   3847   3850   3851     1  0.0000000  0.6508444  3
   3849   3847   3850   3852     1  0.0000000  0.6508444  3
   3850   3847   3840   3869     1  0.0000000  0.6508444  3
   3851   3850   3859   3868     1  0.0000000  1.0460000  1
   3851   3850   3859   3868     1  0.0000000  0.0000000  3
   3851   3850   3859   3860     1  0.0000000  0.6508444  3
   3851   3850   3859   3861     1  0.0000000  0.6508444  3
   3852   3850   3859   3868     1  0.0000000  1.0460000  1
   3852   3850   3859   3868     1  0.0000000  0.0000000  3
   3852   3850   3859   3860     1  0.0000000  0.6508444  3
   3852   3850   3859   3861     1  0.0000000  0.6508444  3
   3853   3841   3840   3869     1  0.0000000  0.6508444  3
   3854   3853   3865   7297     1  0.0000000  1.0460000  1
   3854   3853   3865   7297     1  0.0000000  0.0000000  3
   3854   3853   3865   3866     1  0.0000000  0.6508444  3
   3854   3853   3865   3867     1  0.0000000  0.6508444  3
   3855   3853   3865   7297     1  0.0000000  1.0460000  1
   3855   3853   3865   7297     1  0.0000000  0.0000000  3
   3855   3853   3865   3866     1  0.0000000  0.6508444  3
   3855   3853   3865   3867     1  0.0000000  0.6508444  3
   3856   3844   3840   3869     1  0.0000000  0.6508444  3
   3857   3856   3862   7274     1  0.0000000  1.0460000  1
   3857   3856   3862   7274     1  0.0000000  0.0000000  3
   3857   3856   3862   3863     1  0.0000000  0.6508444  3
   3857   3856   3862   3864     1  0.0000000  0.6508444  3
   3858   3856   3862   7274     1  0.0000000  1.0460000  1
   3858   3856   3862   7274     1  0.0000000  0.0000000  3
   3858   3856   3862   3863     1  0.0000000  0.6508444  3
   3858   3856   3862   3864     1  0.0000000  0.6508444  3
   3862   7274   7270   7273     1  0.0000000  1.6038667  3
   3863   3862   7274   7270     1  0.0000000  1.6038667  3
   3864   3862   7274   7270     1  0.0000000  1.6038667  3
   3865   7297   7293   7296     1  0.0000000  1.6038667  3
   3866   3865   7297   7293     1  0.0000000  1.6038667  3
   3867   3865   7297   7293     1  0.0000000  1.6038667  3
   3870   3871   3883   3884     1  0.0000000  0.6508444  3
   3870   3871   3883   3885     1  0.0000000  0.6508444  3
   3870   3874   3886   3887     1  0.0000000  0.6508444  3
   3870   3874   3886   3888     1  0.0000000  0.6508444  3
   3870   3877   3880   3881     1  0.0000000  0.6508444  3
   3870   3877   3880   3882     1  0.0000000  0.6508444  3
   3871   3870   3874   3875     1  0.0000000  0.6508444  3
   3871   3870   3874   3876     1  0.0000000  0.6508444  3
   3871   3870   3877   3878     1  0.0000000  0.6508444  3
   3871   3870   3877   3879     1  0.0000000  0.6508444  3
   3871   3883   3895   3896     1  0.0000000  0.6508444  3
   3871   3883   3895   3897     1  0.0000000  0.6508444  3
   3872   3871   3870   3874     1  0.0000000  0.6508444  3
   3872   3871   3870   3877     1  0.0000000  0.6508444  3
   3872   3871   3870   3899     1  0.0000000  0.6508444  3
   3872   3871   3883   3895     1  0.0000000  0.6508444  3
   3872   3871   3883   3884     1  0.0000000  0.6508444  3
   3872   3871   3883   3885     1  0.0000000  0.6508444  3
   3873   3871   3870   3874     1  0.0000000  0.6508444  3
   3873   3871   3870   3877     1  0.0000000  0.6508444  3
   3873   3871   3870   3899     1  0.0000000  0.6508444  3
   3873   3871   3883   3895     1  0.0000000  0.6508444  3
   3873   3871   3883   3884     1  0.0000000  0.6508444  3
   3873   3871   3883   3885     1  0.0000000  0.6508444  3
   3874   3870   3877   3878     1  0.0000000  0.6508444  3
   3874   3870   3877   3879     1  0.0000000  0.6508444  3
   3874   3886   3892   3893     1  0.0000000  0.6508444  3
   3874   3886   3892   3894     1  0.0000000  0.6508444  3
   3875   3874   3870   3877     1  0.0000000  0.6508444  3
   3875   3874   3870   3899     1  0.0000000  0.6508444  3
   3875   3874   3886   3892     1  0.0000000  0.6508444  3
   3875   3874   3886   3887     1  0.0000000  0.6508444  3
   3875   3874   3886   3888     1  0.0000000  0.6508444  3
   3876   3874   3870   3877     1  0.0000000  0.6508444  3
   3876   3874   3870   3899     1  0.0000000  0.6508444  3
   3876   3874   3886   3892     1  0.0000000  0.6508444  3
   3876   3874   3886   3887     1  0.0000000  0.6508444  3
   3876   3874   3886   3888     1  0.0000000  0.6508444  3
   3877   3880   3889   3890     1  0.0000000  0.6508444  3
   3877   3880   3889   3891     1  0.0000000  0.6508444  3
   3878   3877   3870   3899     1  0.0000000  0.6508444  3
   3878   3877   3880   3889     1  0.0000000  0.6508444  3
   3878   3877   3880   3881     1  0.0000000  0.6508444  3
   3878   3877   3880   3882     1  0.0000000  0.6508444  3
   3879   3877   3870   3899     1  0.0000000  0.6508444  3
   3879   3877   3880   3889     1  0.0000000  0.6508444  3
   3879   3877   3880   3881     1  0.0000000  0.6508444  3
   3879   3877   3880   3882     1  0.0000000  0.6508444  3
   3880   3877   3870   3899     1  0.0000000  0.6508444  3
   3881   3880   3889   3898     1  0.0000000  1.0460000  1
   3881   3880   3889   3898     1  0.0000000  0.0000000  3
   3881   3880   3889   3890     1  0.0000000  0.6508444  3
   3881   3880   3889   3891     1  0.0000000  0.6508444  3
   3882   3880   3889   3898     1  0.0000000  1.0460000  1
   3882   3880   3889   3898     1  0.0000000  0.0000000  3
   3882   3880   3889   3890     1  0.0000000  0.6508444  3
   3882   3880   3889   3891     1  0.0000000  0.6508444  3
   3883   3871   3870   3899     1  0.0000000  0.6508444  3
   3884   3883   3895   7343     1  0.0000000  1.0460000  1
   3884   3883   3895   7343     1  0.0000000  0.0000000  3
   3884   3883   3895   3896     1  0.0000000  0.6508444  3
   3884   3883   3895   3897     1  0.0000000  0.6508444  3
   3885   3883   3895   7343     1  0.0000000  1.0460000  1
   3885   3883   3895   7343     1  0.0000000  0.0000000  3
   3885   3883   3895   3896     1  0.0000000  0.6508444  3
   3885   3883   3895   3897     1  0.0000000  0.6508444  3
   3886   3874   3870   3899     1  0.0000000  0.6508444  3
   3887   3886   3892   7320     1  0.0000000  1.0460000  1
   3887   3886   3892   7320     1  0.0000000  0.0000000  3
   3887   3886   3892   3893     1  0.0000000  0.6508444  3
   3887   3886   3892   3894     1  0.0000000  0.6508444  3
   3888   3886   3892   7320     1  0.0000000  1.0460000  1
   3888   3886   3892   7320     1  0.0000000  0.0000000  3
   3888   3886   3892   3893     1  0.0000000  0.6508444  3
   3888   3886   3892   3894     1  0.0000000  0.6508444  3
   3892   7320   7316   7319     1  0.0000000  1.6038667  3
   3893   3892   7320   7316     1  0.0000000  1.6038667  3
   3894   3892   7320   7316     1  0.0000000  1.6038667  3
   3895   7343   7339   7342     1  0.0000000  1.6038667  3
   3896   3895   7343   7339     1  0.0000000  1.6038667  3
   3897   3895   7343   7339     1  0.0000000  1.6038667  3
   3900   3901   3913   3914     1  0.0000000  0.6508444  3
   3900   3901   3913   3915     1  0.0000000  0.6508444  3
   3900   3904   3916   3917     1  0.0000000  0.6508444  3
   3900   3904   3916   3918     1  0.0000000  0.6508444  3
   3900   3907   3910   3911     1  0.0000000  0.6508444  3
   3900   3907   3910   3912     1  0.0000000  0.6508444  3
   3901   3900   3904   3905     1  0.0000000  0.6508444  3
   3901   3900   3904   3906     1  0.0000000  0.6508444  3
   3901   3900   3907   3908     1  0.0000000  0.6508444  3
   3901   3900   3907   3909     1  0.0000000  0.6508444  3
   3901   3913   3925   3926     1  0.0000000  0.6508444  3
   3901   3913   3925   3927     1  0.0000000  0.6508444  3
   3902   3901   3900   3904     1  0.0000000  0.6508444  3
   3902   3901   3900   3907     1  0.0000000  0.6508444  3
   3902   3901   3900   3929     1  0.0000000  0.6508444  3
   3902   3901   3913   3925     1  0.0000000  0.6508444  3
   3902   3901   3913   3914     1  0.0000000  0.6508444  3
   3902   3901   3913   3915     1  0.0000000  0.6508444  3
   3903   3901   3900   3904     1  0.0000000  0.6508444  3
   3903   3901   3900   3907     1  0.0000000  0.6508444  3
   3903   3901   3900   3929     1  0.0000000  0.6508444  3
   3903   3901   3913   3925     1  0.0000000  0.6508444  3
   3903   3901   3913   3914     1  0.0000000  0.6508444  3
   3903   3901   3913   3915     1  0.0000000  0.6508444  3
   3904   3900   3907   3908     1  0.0000000  0.6508444  3
   3904   3900   3907   3909     1  0.0000000  0.6508444  3
   3904   3916   3922   3923     1  0.0000000  0.6508444  3
   3904   3916   3922   3924     1  0.0000000  0.6508444  3
   3905   3904   3900   3907     1  0.0000000  0.6508444  3
   3905   3904   3900   3929     1  0.0000000  0.6508444  3
   3905   3904   3916   3922     1  0.0000000  0.6508444  3
   3905   3904   3916   3917     1  0.0000000  0.6508444  3
   3905   3904   3916   3918     1  0.0000000  0.6508444  3
   3906   3904   3900   3907     1  0.0000000  0.6508444  3
   3906   3904   3900   3929     1  0.0000000  0.6508444  3
   3906   3904   3916   3922     1  0.0000000  0.6508444  3
   3906   3904   3916   3917     1  0.0000000  0.6508444  3
   3906   3904   3916   3918     1  0.0000000  0.6508444  3
   3907   3910   3919   3920     1  0.0000000  0.6508444  3
   3907   3910   3919   3921     1  0.0000000  0.6508444  3
   3908   3907   3900   3929     1  0.0000000  0.6508444  3
   3908   3907   3910   3919     1  0.0000000  0.6508444  3
   3908   3907   3910   3911     1  0.0000000  0.6508444  3
   3908   3907   3910   3912     1  0.0000000  0.6508444  3
   3909   3907   3900   3929     1  0.0000000  0.6508444  3
   3909   3907   3910   3919     1  0.0000000  0.6508444  3
   3909   3907   3910   3911     1  0.0000000  0.6508444  3
   3909   3907   3910   3912     1  0.0000000  0.6508444  3
   3910   3907   3900   3929     1  0.0000000  0.6508444  3
   3911   3910   3919   3928     1  0.0000000  1.0460000  1
   3911   3910   3919   3928     1  0.0000000  0.0000000  3
   3911   3910   3919   3920     1  0.0000000  0.6508444  3
   3911   3910   3919   3921     1  0.0000000  0.6508444  3
   3912   3910   3919   3928     1  0.0000000  1.0460000  1
   3912   3910   3919   3928     1  0.0000000  0.0000000  3
   3912   3910   3919   3920     1  0.0000000  0.6508444  3
   3912   3910   3919   3921     1  0.0000000  0.6508444  3
   3913   3901   3900   3929     1  0.0000000  0.6508444  3
   3914   3913   3925   7389     1  0.0000000  1.0460000  1
   3914   3913   3925   7389     1  0.0000000  0.0000000  3
   3914   3913   3925   3926     1  0.0000000  0.6508444  3
   3914   3913   3925   3927     1  0.0000000  0.6508444  3
   3915   3913   3925   7389     1  0.0000000  1.0460000  1
   3915   3913   3925   7389     1  0.0000000  0.0000000  3
   3915   3913   3925   3926     1  0.0000000  0.6508444  3
   3915   3913   3925   3927     1  0.0000000  0.6508444  3
   3916   3904   3900   3929     1  0.0000000  0.6508444  3
   3917   3916   3922   7366     1  0.0000000  1.0460000  1
   3917   3916   3922   7366     1  0.0000000  0.0000000  3
   3917   3916   3922   3923     1  0.0000000  0.6508444  3
   3917   3916   3922   3924     1  0.0000000  0.6508444  3
   3918   3916   3922   7366     1  0.0000000  1.0460000  1
   3918   3916   3922   7366     1  0.0000000  0.0000000  3
   3918   3916   3922   3923     1  0.0000000  0.6508444  3
   3918   3916   3922   3924     1  0.0000000  0.6508444  3
   3922   7366   7362   7365     1  0.0000000  1.6038667  3
   3923   3922   7366   7362     1  0.0000000  1.6038667  3
   3924   3922   7366   7362     1  0.0000000  1.6038667  3
   3925   7389   7385   7388     1  0.0000000  1.6038667  3
   3926   3925   7389   7385     1  0.0000000  1.6038667  3
   3927   3925   7389   7385     1  0.0000000  1.6038667  3
   3930   3931   3943   3944     1  0.0000000  0.6508444  3
   3930   3931   3943   3945     1  0.0000000  0.6508444  3
   3930   3934   3946   3947     1  0.0000000  0.6508444  3
   3930   3934   3946   3948     1  0.0000000  0.6508444  3
   3930   3937   3940   3941     1  0.0000000  0.6508444  3
   3930   3937   3940   3942     1  0.0000000  0.6508444  3
   3931   3930   3934   3935     1  0.0000000  0.6508444  3
   3931   3930   3934   3936     1  0.0000000  0.6508444  3
   3931   3930   3937   3938     1  0.0000000  0.6508444  3
   3931   3930   3937   3939     1  0.0000000  0.6508444  3
   3931   3943   3955   3956     1  0.0000000  0.6508444  3
   3931   3943   3955   3957     1  0.0000000  0.6508444  3
   3932   3931   3930   3934     1  0.0000000  0.6508444  3
   3932   3931   3930   3937     1  0.0000000  0.6508444  3
   3932   3931   3930   3959     1  0.0000000  0.6508444  3
   3932   3931   3943   3955     1  0.0000000  0.6508444  3
   3932   3931   3943   3944     1  0.0000000  0.6508444  3
   3932   3931   3943   3945     1  0.0000000  0.6508444  3
   3933   3931   3930   3934     1  0.0000000  0.6508444  3
   3933   3931   3930   3937     1  0.0000000  0.6508444  3
   3933   3931   3930   3959     1  0.0000000  0.6508444  3
   3933   3931   3943   3955     1  0.0000000  0.6508444  3
   3933   3931   3943   3944     1  0.0000000  0.6508444  3
   3933   3931   3943   3945     1  0.0000000  0.6508444  3
   3934   3930   3937   3938     1  0.0000000  0.6508444  3
   3934   3930   3937   3939     1  0.0000000  0.6508444  3
   3934   3946   3952   3953     1  0.0000000  0.6508444  3
   3934   3946   3952   3954     1  0.0000000  0.6508444  3
   3935   3934   3930   3937     1  0.0000000  0.6508444  3
   3935   3934   3930   3959     1  0.0000000  0.6508444  3
   3935   3934   3946   3952     1  0.0000000  0.6508444  3
   3935   3934   3946   3947     1  0.0000000  0.6508444  3
   3935   3934   3946   3948     1  0.0000000  0.6508444  3
   3936   3934   3930   3937     1  0.0000000  0.6508444  3
   3936   3934   3930   3959     1  0.0000000  0.6508444  3
   3936   3934   3946   3952     1  0.0000000  0.6508444  3
   3936   3934   3946   3947     1  0.0000000  0.6508444  3
   3936   3934   3946   3948     1  0.0000000  0.6508444  3
   3937   3940   3949   3950     1  0.0000000  0.6508444  3
   3937   3940   3949   3951     1  0.0000000  0.6508444  3
   3938   3937   3930   3959     1  0.0000000  0.6508444  3
   3938   3937   3940   3949     1  0.0000000  0.6508444  3
   3938   3937   3940   3941     1  0.0000000  0.6508444  3
   3938   3937   3940   3942     1  0.0000000  0.6508444  3
   3939   3937   3930   3959     1  0.0000000  0.6508444  3
   3939   3937   3940   3949     1  0.0000000  0.6508444  3
   3939   3937   3940   3941     1  0.0000000  0.6508444  3
   3939   3937   3940   3942     1  0.0000000  0.6508444  3
   3940   3937   3930   3959     1  0.0000000  0.6508444  3
   3941   3940   3949   3958     1  0.0000000  1.0460000  1
   3941   3940   3949   3958     1  0.0000000  0.0000000  3
   3941   3940   3949   3950     1  0.0000000  0.6508444  3
   3941   3940   3949   3951     1  0.0000000  0.6508444  3
   3942   3940   3949   3958     1  0.0000000  1.0460000  1
   3942   3940   3949   3958     1  0.0000000  0.0000000  3
   3942   3940   3949   3950     1  0.0000000  0.6508444  3
   3942   3940   3949   3951     1  0.0000000  0.6508444  3
   3943   3931   3930   3959     1  0.0000000  0.6508444  3
   3944   3943   3955   7435     1  0.0000000  1.0460000  1
   3944   3943   3955   7435     1  0.0000000  0.0000000  3
   3944   3943   3955   3956     1  0.0000000  0.6508444  3
   3944   3943   3955   3957     1  0.0000000  0.6508444  3
   3945   3943   3955   7435     1  0.0000000  1.0460000  1
   3945   3943   3955   7435     1  0.0000000  0.0000000  3
   3945   3943   3955   3956     1  0.0000000  0.6508444  3
   3945   3943   3955   3957     1  0.0000000  0.6508444  3
   3946   3934   3930   3959     1  0.0000000  0.6508444  3
   3947   3946   3952   7412     1  0.0000000  1.0460000  1
   3947   3946   3952   7412     1  0.0000000  0.0000000  3
   3947   3946   3952   3953     1  0.0000000  0.6508444  3
   3947   3946   3952   3954     1  0.0000000  0.6508444  3
   3948   3946   3952   7412     1  0.0000000  1.0460000  1
   3948   3946   3952   7412     1  0.0000000  0.0000000  3
   3948   3946   3952   3953     1  0.0000000  0.6508444  3
   3948   3946   3952   3954     1  0.0000000  0.6508444  3
   3952   7412   7408   7411     1  0.0000000  1.6038667  3
   3953   3952   7412   7408     1  0.0000000  1.6038667  3
   3954   3952   7412   7408     1  0.0000000  1.6038667  3
   3955   7435   7431   7434     1  0.0000000  1.6038667  3
   3956   3955   7435   7431     1  0.0000000  1.6038667  3
   3957   3955   7435   7431     1  0.0000000  1.6038667  3
   3960   3961   3973   3974     1  0.0000000  0.6508444  3
   3960   3961   3973   3975     1  0.0000000  0.6508444  3
   3960   3964   3976   3977     1  0.0000000  0.6508444  3
   3960   3964   3976   3978     1  0.0000000  0.6508444  3
   3960   3967   3970   3971     1  0.0000000  0.6508444  3
   3960   3967   3970   3972     1  0.0000000  0.6508444  3
   3961   3960   3964   3965     1  0.0000000  0.6508444  3
   3961   3960   3964   3966     1  0.0000000  0.6508444  3
   3961   3960   3967   3968     1  0.0000000  0.6508444  3
   3961   3960   3967   3969     1  0.0000000  0.6508444  3
   3961   3973   3985   3986     1  0.0000000  0.6508444  3
   3961   3973   3985   3987     1  0.0000000  0.6508444  3
   3962   3961   3960   3964     1  0.0000000  0.6508444  3
   3962   3961   3960   3967     1  0.0000000  0.6508444  3
   3962   3961   3960   3989     1  0.0000000  0.6508444  3
   3962   3961   3973   3985     1  0.0000000  0.6508444  3
   3962   3961   3973   3974     1  0.0000000  0.6508444  3
   3962   3961   3973   3975     1  0.0000000  0.6508444  3
   3963   3961   3960   3964     1  0.0000000  0.6508444  3
   3963   3961   3960   3967     1  0.0000000  0.6508444  3
   3963   3961   3960   3989     1  0.0000000  0.6508444  3
   3963   3961   3973   3985     1  0.0000000  0.6508444  3
   3963   3961   3973   3974     1  0.0000000  0.6508444  3
   3963   3961   3973   3975     1  0.0000000  0.6508444  3
   3964   3960   3967   3968     1  0.0000000  0.6508444  3
   3964   3960   3967   3969     1  0.0000000  0.6508444  3
   3964   3976   3982   3983     1  0.0000000  0.6508444  3
   3964   3976   3982   3984     1  0.0000000  0.6508444  3
   3965   3964   3960   3967     1  0.0000000  0.6508444  3
   3965   3964   3960   3989     1  0.0000000  0.6508444  3
   3965   3964   3976   3982     1  0.0000000  0.6508444  3
   3965   3964   3976   3977     1  0.0000000  0.6508444  3
   3965   3964   3976   3978     1  0.0000000  0.6508444  3
   3966   3964   3960   3967     1  0.0000000  0.6508444  3
   3966   3964   3960   3989     1  0.0000000  0.6508444  3
   3966   3964   3976   3982     1  0.0000000  0.6508444  3
   3966   3964   3976   3977     1  0.0000000  0.6508444  3
   3966   3964   3976   3978     1  0.0000000  0.6508444  3
   3967   3970   3979   3980     1  0.0000000  0.6508444  3
   3967   3970   3979   3981     1  0.0000000  0.6508444  3
   3968   3967   3960   3989     1  0.0000000  0.6508444  3
   3968   3967   3970   3979     1  0.0000000  0.6508444  3
   3968   3967   3970   3971     1  0.0000000  0.6508444  3
   3968   3967   3970   3972     1  0.0000000  0.6508444  3
   3969   3967   3960   3989     1  0.0000000  0.6508444  3
   3969   3967   3970   3979     1  0.0000000  0.6508444  3
   3969   3967   3970   3971     1  0.0000000  0.6508444  3
   3969   3967   3970   3972     1  0.0000000  0.6508444  3
   3970   3967   3960   3989     1  0.0000000  0.6508444  3
   3971   3970   3979   3988     1  0.0000000  1.0460000  1
   3971   3970   3979   3988     1  0.0000000  0.0000000  3
   3971   3970   3979   3980     1  0.0000000  0.6508444  3
   3971   3970   3979   3981     1  0.0000000  0.6508444  3
   3972   3970   3979   3988     1  0.0000000  1.0460000  1
   3972   3970   3979   3988     1  0.0000000  0.0000000  3
   3972   3970   3979   3980     1  0.0000000  0.6508444  3
   3972   3970   3979   3981     1  0.0000000  0.6508444  3
   3973   3961   3960   3989     1  0.0000000  0.6508444  3
   3974   3973   3985   7481     1  0.0000000  1.0460000  1
   3974   3973   3985   7481     1  0.0000000  0.0000000  3
   3974   3973   3985   3986     1  0.0000000  0.6508444  3
   3974   3973   3985   3987     1  0.0000000  0.6508444  3
   3975   3973   3985   7481     1  0.0000000  1.0460000  1
   3975   3973   3985   7481     1  0.0000000  0.0000000  3
   3975   3973   3985   3986     1  0.0000000  0.6508444  3
   3975   3973   3985   3987     1  0.0000000  0.6508444  3
   3976   3964   3960   3989     1  0.0000000  0.6508444  3
   3977   3976   3982   7458     1  0.0000000  1.0460000  1
   3977   3976   3982   7458     1  0.0000000  0.0000000  3
   3977   3976   3982   3983     1  0.0000000  0.6508444  3
   3977   3976   3982   3984     1  0.0000000  0.6508444  3
   3978   3976   3982   7458     1  0.0000000  1.0460000  1
   3978   3976   3982   7458     1  0.0000000  0.0000000  3
   3978   3976   3982   3983     1  0.0000000  0.6508444  3
   3978   3976   3982   3984     1  0.0000000  0.6508444  3
   3982   7458   7454   7457     1  0.0000000  1.6038667  3
   3983   3982   7458   7454     1  0.0000000  1.6038667  3
   3984   3982   7458   7454     1  0.0000000  1.6038667  3
   3985   7481   7477   7480     1  0.0000000  1.6038667  3
   3986   3985   7481   7477     1  0.0000000  1.6038667  3
   3987   3985   7481   7477     1  0.0000000  1.6038667  3
   3990   3991   4003   4004     1  0.0000000  0.6508444  3
   3990   3991   4003   4005     1  0.0000000  0.6508444  3
   3990   3994   4006   4007     1  0.0000000  0.6508444  3
   3990   3994   4006   4008     1  0.0000000  0.6508444  3
   3990   3997   4000   4001     1  0.0000000  0.6508444  3
   3990   3997   4000   4002     1  0.0000000  0.6508444  3
   3991   3990   3994   3995     1  0.0000000  0.6508444  3
   3991   3990   3994   3996     1  0.0000000  0.6508444  3
   3991   3990   3997   3998     1  0.0000000  0.6508444  3
   3991   3990   3997   3999     1  0.0000000  0.6508444  3
   3991   4003   4015   4016     1  0.0000000  0.6508444  3
   3991   4003   4015   4017     1  0.0000000  0.6508444  3
   3992   3991   3990   3994     1  0.0000000  0.6508444  3
   3992   3991   3990   3997     1  0.0000000  0.6508444  3
   3992   3991   3990   4019     1  0.0000000  0.6508444  3
   3992   3991   4003   4015     1  0.0000000  0.6508444  3
   3992   3991   4003   4004     1  0.0000000  0.6508444  3
   3992   3991   4003   4005     1  0.0000000  0.6508444  3
   3993   3991   3990   3994     1  0.0000000  0.6508444  3
   3993   3991   3990   3997     1  0.0000000  0.6508444  3
   3993   3991   3990   4019     1  0.0000000  0.6508444  3
   3993   3991   4003   4015     1  0.0000000  0.6508444  3
   3993   3991   4003   4004     1  0.0000000  0.6508444  3
   3993   3991   4003   4005     1  0.0000000  0.6508444  3
   3994   3990   3997   3998     1  0.0000000  0.6508444  3
   3994   3990   3997   3999     1  0.0000000  0.6508444  3
   3994   4006   4012   4013     1  0.0000000  0.6508444  3
   3994   4006   4012   4014     1  0.0000000  0.6508444  3
   3995   3994   3990   3997     1  0.0000000  0.6508444  3
   3995   3994   3990   4019     1  0.0000000  0.6508444  3
   3995   3994   4006   4012     1  0.0000000  0.6508444  3
   3995   3994   4006   4007     1  0.0000000  0.6508444  3
   3995   3994   4006   4008     1  0.0000000  0.6508444  3
   3996   3994   3990   3997     1  0.0000000  0.6508444  3
   3996   3994   3990   4019     1  0.0000000  0.6508444  3
   3996   3994   4006   4012     1  0.0000000  0.6508444  3
   3996   3994   4006   4007     1  0.0000000  0.6508444  3
   3996   3994   4006   4008     1  0.0000000  0.6508444  3
   3997   4000   4009   4010     1  0.0000000  0.6508444  3
   3997   4000   4009   4011     1  0.0000000  0.6508444  3
   3998   3997   3990   4019     1  0.0000000  0.6508444  3
   3998   3997   4000   4009     1  0.0000000  0.6508444  3
   3998   3997   4000   4001     1  0.0000000  0.6508444  3
   3998   3997   4000   4002     1  0.0000000  0.6508444  3
   3999   3997   3990   4019     1  0.0000000  0.6508444  3
   3999   3997   4000   4009     1  0.0000000  0.6508444  3
   3999   3997   4000   4001     1  0.0000000  0.6508444  3
   3999   3997   4000   4002     1  0.0000000  0.6508444  3
   4000   3997   3990   4019     1  0.0000000  0.6508444  3
   4001   4000   4009   4018     1  0.0000000  1.0460000  1
   4001   4000   4009   4018     1  0.0000000  0.0000000  3
   4001   4000   4009   4010     1  0.0000000  0.6508444  3
   4001   4000   4009   4011     1  0.0000000  0.6508444  3
   4002   4000   4009   4018     1  0.0000000  1.0460000  1
   4002   4000   4009   4018     1  0.0000000  0.0000000  3
   4002   4000   4009   4010     1  0.0000000  0.6508444  3
   4002   4000   4009   4011     1  0.0000000  0.6508444  3
   4003   3991   3990   4019     1  0.0000000  0.6508444  3
   4004   4003   4015   7527     1  0.0000000  1.0460000  1
   4004   4003   4015   7527     1  0.0000000  0.0000000  3
   4004   4003   4015   4016     1  0.0000000  0.6508444  3
   4004   4003   4015   4017     1  0.0000000  0.6508444  3
   4005   4003   4015   7527     1  0.0000000  1.0460000  1
   4005   4003   4015   7527     1  0.0000000  0.0000000  3
   4005   4003   4015   4016     1  0.0000000  0.6508444  3
   4005   4003   4015   4017     1  0.0000000  0.6508444  3
   4006   3994   3990   4019     1  0.0000000  0.6508444  3
   4007   4006   4012   7504     1  0.0000000  1.0460000  1
   4007   4006   4012   7504     1  0.0000000  0.0000000  3
   4007   4006   4012   4013     1  0.0000000  0.6508444  3
   4007   4006   4012   4014     1  0.0000000  0.6508444  3
   4008   4006   4012   7504     1  0.0000000  1.0460000  1
   4008   4006   4012   7504     1  0.0000000  0.0000000  3
   4008   4006   4012   4013     1  0.0000000  0.6508444  3
   4008   4006   4012   4014     1  0.0000000  0.6508444  3
   4012   7504   7500   7503     1  0.0000000  1.6038667  3
   4013   4012   7504   7500     1  0.0000000  1.6038667  3
   4014   4012   7504   7500     1  0.0000000  1.6038667  3
   4015   7527   7523   7526     1  0.0000000  1.6038667  3
   4016   4015   7527   7523     1  0.0000000  1.6038667  3
   4017   4015   7527   7523     1  0.0000000  1.6038667  3
   4020   4021   4033   4034     1  0.0000000  0.6508444  3
   4020   4021   4033   4035     1  0.0000000  0.6508444  3
   4020   4024   4036   4037     1  0.0000000  0.6508444  3
   4020   4024   4036   4038     1  0.0000000  0.6508444  3
   4020   4027   4030   4031     1  0.0000000  0.6508444  3
   4020   4027   4030   4032     1  0.0000000  0.6508444  3
   4021   4020   4024   4025     1  0.0000000  0.6508444  3
   4021   4020   4024   4026     1  0.0000000  0.6508444  3
   4021   4020   4027   4028     1  0.0000000  0.6508444  3
   4021   4020   4027   4029     1  0.0000000  0.6508444  3
   4021   4033   4045   4046     1  0.0000000  0.6508444  3
   4021   4033   4045   4047     1  0.0000000  0.6508444  3
   4022   4021   4020   4024     1  0.0000000  0.6508444  3
   4022   4021   4020   4027     1  0.0000000  0.6508444  3
   4022   4021   4020   4049     1  0.0000000  0.6508444  3
   4022   4021   4033   4045     1  0.0000000  0.6508444  3
   4022   4021   4033   4034     1  0.0000000  0.6508444  3
   4022   4021   4033   4035     1  0.0000000  0.6508444  3
   4023   4021   4020   4024     1  0.0000000  0.6508444  3
   4023   4021   4020   4027     1  0.0000000  0.6508444  3
   4023   4021   4020   4049     1  0.0000000  0.6508444  3
   4023   4021   4033   4045     1  0.0000000  0.6508444  3
   4023   4021   4033   4034     1  0.0000000  0.6508444  3
   4023   4021   4033   4035     1  0.0000000  0.6508444  3
   4024   4020   4027   4028     1  0.0000000  0.6508444  3
   4024   4020   4027   4029     1  0.0000000  0.6508444  3
   4024   4036   4042   4043     1  0.0000000  0.6508444  3
   4024   4036   4042   4044     1  0.0000000  0.6508444  3
   4025   4024   4020   4027     1  0.0000000  0.6508444  3
   4025   4024   4020   4049     1  0.0000000  0.6508444  3
   4025   4024   4036   4042     1  0.0000000  0.6508444  3
   4025   4024   4036   4037     1  0.0000000  0.6508444  3
   4025   4024   4036   4038     1  0.0000000  0.6508444  3
   4026   4024   4020   4027     1  0.0000000  0.6508444  3
   4026   4024   4020   4049     1  0.0000000  0.6508444  3
   4026   4024   4036   4042     1  0.0000000  0.6508444  3
   4026   4024   4036   4037     1  0.0000000  0.6508444  3
   4026   4024   4036   4038     1  0.0000000  0.6508444  3
   4027   4030   4039   4040     1  0.0000000  0.6508444  3
   4027   4030   4039   4041     1  0.0000000  0.6508444  3
   4028   4027   4020   4049     1  0.0000000  0.6508444  3
   4028   4027   4030   4039     1  0.0000000  0.6508444  3
   4028   4027   4030   4031     1  0.0000000  0.6508444  3
   4028   4027   4030   4032     1  0.0000000  0.6508444  3
   4029   4027   4020   4049     1  0.0000000  0.6508444  3
   4029   4027   4030   4039     1  0.0000000  0.6508444  3
   4029   4027   4030   4031     1  0.0000000  0.6508444  3
   4029   4027   4030   4032     1  0.0000000  0.6508444  3
   4030   4027   4020   4049     1  0.0000000  0.6508444  3
   4031   4030   4039   4048     1  0.0000000  1.0460000  1
   4031   4030   4039   4048     1  0.0000000  0.0000000  3
   4031   4030   4039   4040     1  0.0000000  0.6508444  3
   4031   4030   4039   4041     1  0.0000000  0.6508444  3
   4032   4030   4039   4048     1  0.0000000  1.0460000  1
   4032   4030   4039   4048     1  0.0000000  0.0000000  3
   4032   4030   4039   4040     1  0.0000000  0.6508444  3
   4032   4030   4039   4041     1  0.0000000  0.6508444  3
   4033   4021   4020   4049     1  0.0000000  0.6508444  3
   4034   4033   4045   7573     1  0.0000000  1.0460000  1
   4034   4033   4045   7573     1  0.0000000  0.0000000  3
   4034   4033   4045   4046     1  0.0000000  0.6508444  3
   4034   4033   4045   4047     1  0.0000000  0.6508444  3
   4035   4033   4045   7573     1  0.0000000  1.0460000  1
   4035   4033   4045   7573     1  0.0000000  0.0000000  3
   4035   4033   4045   4046     1  0.0000000  0.6508444  3
   4035   4033   4045   4047     1  0.0000000  0.6508444  3
   4036   4024   4020   4049     1  0.0000000  0.6508444  3
   4037   4036   4042   7550     1  0.0000000  1.0460000  1
   4037   4036   4042   7550     1  0.0000000  0.0000000  3
   4037   4036   4042   4043     1  0.0000000  0.6508444  3
   4037   4036   4042   4044     1  0.0000000  0.6508444  3
   4038   4036   4042   7550     1  0.0000000  1.0460000  1
   4038   4036   4042   7550     1  0.0000000  0.0000000  3
   4038   4036   4042   4043     1  0.0000000  0.6508444  3
   4038   4036   4042   4044     1  0.0000000  0.6508444  3
   4042   7550   7546   7549     1  0.0000000  1.6038667  3
   4043   4042   7550   7546     1  0.0000000  1.6038667  3
   4044   4042   7550   7546     1  0.0000000  1.6038667  3
   4045   7573   7569   7572     1  0.0000000  1.6038667  3
   4046   4045   7573   7569     1  0.0000000  1.6038667  3
   4047   4045   7573   7569     1  0.0000000  1.6038667  3
   4050   4051   4063   4064     1  0.0000000  0.6508444  3
   4050   4051   4063   4065     1  0.0000000  0.6508444  3
   4050   4054   4066   4067     1  0.0000000  0.6508444  3
   4050   4054   4066   4068     1  0.0000000  0.6508444  3
   4050   4057   4060   4061     1  0.0000000  0.6508444  3
   4050   4057   4060   4062     1  0.0000000  0.6508444  3
   4051   4050   4054   4055     1  0.0000000  0.6508444  3
   4051   4050   4054   4056     1  0.0000000  0.6508444  3
   4051   4050   4057   4058     1  0.0000000  0.6508444  3
   4051   4050   4057   4059     1  0.0000000  0.6508444  3
   4051   4063   4075   4076     1  0.0000000  0.6508444  3
   4051   4063   4075   4077     1  0.0000000  0.6508444  3
   4052   4051   4050   4054     1  0.0000000  0.6508444  3
   4052   4051   4050   4057     1  0.0000000  0.6508444  3
   4052   4051   4050   4079     1  0.0000000  0.6508444  3
   4052   4051   4063   4075     1  0.0000000  0.6508444  3
   4052   4051   4063   4064     1  0.0000000  0.6508444  3
   4052   4051   4063   4065     1  0.0000000  0.6508444  3
   4053   4051   4050   4054     1  0.0000000  0.6508444  3
   4053   4051   4050   4057     1  0.0000000  0.6508444  3
   4053   4051   4050   4079     1  0.0000000  0.6508444  3
   4053   4051   4063   4075     1  0.0000000  0.6508444  3
   4053   4051   4063   4064     1  0.0000000  0.6508444  3
   4053   4051   4063   4065     1  0.0000000  0.6508444  3
   4054   4050   4057   4058     1  0.0000000  0.6508444  3
   4054   4050   4057   4059     1  0.0000000  0.6508444  3
   4054   4066   4072   4073     1  0.0000000  0.6508444  3
   4054   4066   4072   4074     1  0.0000000  0.6508444  3
   4055   4054   4050   4057     1  0.0000000  0.6508444  3
   4055   4054   4050   4079     1  0.0000000  0.6508444  3
   4055   4054   4066   4072     1  0.0000000  0.6508444  3
   4055   4054   4066   4067     1  0.0000000  0.6508444  3
   4055   4054   4066   4068     1  0.0000000  0.6508444  3
   4056   4054   4050   4057     1  0.0000000  0.6508444  3
   4056   4054   4050   4079     1  0.0000000  0.6508444  3
   4056   4054   4066   4072     1  0.0000000  0.6508444  3
   4056   4054   4066   4067     1  0.0000000  0.6508444  3
   4056   4054   4066   4068     1  0.0000000  0.6508444  3
   4057   4060   4069   4070     1  0.0000000  0.6508444  3
   4057   4060   4069   4071     1  0.0000000  0.6508444  3
   4058   4057   4050   4079     1  0.0000000  0.6508444  3
   4058   4057   4060   4069     1  0.0000000  0.6508444  3
   4058   4057   4060   4061     1  0.0000000  0.6508444  3
   4058   4057   4060   4062     1  0.0000000  0.6508444  3
   4059   4057   4050   4079     1  0.0000000  0.6508444  3
   4059   4057   4060   4069     1  0.0000000  0.6508444  3
   4059   4057   4060   4061     1  0.0000000  0.6508444  3
   4059   4057   4060   4062     1  0.0000000  0.6508444  3
   4060   4057   4050   4079     1  0.0000000  0.6508444  3
   4061   4060   4069   4078     1  0.0000000  1.0460000  1
   4061   4060   4069   4078     1  0.0000000  0.0000000  3
   4061   4060   4069   4070     1  0.0000000  0.6508444  3
   4061   4060   4069   4071     1  0.0000000  0.6508444  3
   4062   4060   4069   4078     1  0.0000000  1.0460000  1
   4062   4060   4069   4078     1  0.0000000  0.0000000  3
   4062   4060   4069   4070     1  0.0000000  0.6508444  3
   4062   4060   4069   4071     1  0.0000000  0.6508444  3
   4063   4051   4050   4079     1  0.0000000  0.6508444  3
   4064   4063   4075   7619     1  0.0000000  1.0460000  1
   4064   4063   4075   7619     1  0.0000000  0.0000000  3
   4064   4063   4075   4076     1  0.0000000  0.6508444  3
   4064   4063   4075   4077     1  0.0000000  0.6508444  3
   4065   4063   4075   7619     1  0.0000000  1.0460000  1
   4065   4063   4075   7619     1  0.0000000  0.0000000  3
   4065   4063   4075   4076     1  0.0000000  0.6508444  3
   4065   4063   4075   4077     1  0.0000000  0.6508444  3
   4066   4054   4050   4079     1  0.0000000  0.6508444  3
   4067   4066   4072   7596     1  0.0000000  1.0460000  1
   4067   4066   4072   7596     1  0.0000000  0.0000000  3
   4067   4066   4072   4073     1  0.0000000  0.6508444  3
   4067   4066   4072   4074     1  0.0000000  0.6508444  3
   4068   4066   4072   7596     1  0.0000000  1.0460000  1
   4068   4066   4072   7596     1  0.0000000  0.0000000  3
   4068   4066   4072   4073     1  0.0000000  0.6508444  3
   4068   4066   4072   4074     1  0.0000000  0.6508444  3
   4072   7596   7592   7595     1  0.0000000  1.6038667  3
   4073   4072   7596   7592     1  0.0000000  1.6038667  3
   4074   4072   7596   7592     1  0.0000000  1.6038667  3
   4075   7619   7615   7618     1  0.0000000  1.6038667  3
   4076   4075   7619   7615     1  0.0000000  1.6038667  3
   4077   4075   7619   7615     1  0.0000000  1.6038667  3
   4080   4081   4093   4094     1  0.0000000  0.6508444  3
   4080   4081   4093   4095     1  0.0000000  0.6508444  3
   4080   4084   4096   4097     1  0.0000000  0.6508444  3
   4080   4084   4096   4098     1  0.0000000  0.6508444  3
   4080   4087   4090   4091     1  0.0000000  0.6508444  3
   4080   4087   4090   4092     1  0.0000000  0.6508444  3
   4081   4080   4084   4085     1  0.0000000  0.6508444  3
   4081   4080   4084   4086     1  0.0000000  0.6508444  3
   4081   4080   4087   4088     1  0.0000000  0.6508444  3
   4081   4080   4087   4089     1  0.0000000  0.6508444  3
   4081   4093   4105   4106     1  0.0000000  0.6508444  3
   4081   4093   4105   4107     1  0.0000000  0.6508444  3
   4082   4081   4080   4084     1  0.0000000  0.6508444  3
   4082   4081   4080   4087     1  0.0000000  0.6508444  3
   4082   4081   4080   4109     1  0.0000000  0.6508444  3
   4082   4081   4093   4105     1  0.0000000  0.6508444  3
   4082   4081   4093   4094     1  0.0000000  0.6508444  3
   4082   4081   4093   4095     1  0.0000000  0.6508444  3
   4083   4081   4080   4084     1  0.0000000  0.6508444  3
   4083   4081   4080   4087     1  0.0000000  0.6508444  3
   4083   4081   4080   4109     1  0.0000000  0.6508444  3
   4083   4081   4093   4105     1  0.0000000  0.6508444  3
   4083   4081   4093   4094     1  0.0000000  0.6508444  3
   4083   4081   4093   4095     1  0.0000000  0.6508444  3
   4084   4080   4087   4088     1  0.0000000  0.6508444  3
   4084   4080   4087   4089     1  0.0000000  0.6508444  3
   4084   4096   4102   4103     1  0.0000000  0.6508444  3
   4084   4096   4102   4104     1  0.0000000  0.6508444  3
   4085   4084   4080   4087     1  0.0000000  0.6508444  3
   4085   4084   4080   4109     1  0.0000000  0.6508444  3
   4085   4084   4096   4102     1  0.0000000  0.6508444  3
   4085   4084   4096   4097     1  0.0000000  0.6508444  3
   4085   4084   4096   4098     1  0.0000000  0.6508444  3
   4086   4084   4080   4087     1  0.0000000  0.6508444  3
   4086   4084   4080   4109     1  0.0000000  0.6508444  3
   4086   4084   4096   4102     1  0.0000000  0.6508444  3
   4086   4084   4096   4097     1  0.0000000  0.6508444  3
   4086   4084   4096   4098     1  0.0000000  0.6508444  3
   4087   4090   4099   4100     1  0.0000000  0.6508444  3
   4087   4090   4099   4101     1  0.0000000  0.6508444  3
   4088   4087   4080   4109     1  0.0000000  0.6508444  3
   4088   4087   4090   4099     1  0.0000000  0.6508444  3
   4088   4087   4090   4091     1  0.0000000  0.6508444  3
   4088   4087   4090   4092     1  0.0000000  0.6508444  3
   4089   4087   4080   4109     1  0.0000000  0.6508444  3
   4089   4087   4090   4099     1  0.0000000  0.6508444  3
   4089   4087   4090   4091     1  0.0000000  0.6508444  3
   4089   4087   4090   4092     1  0.0000000  0.6508444  3
   4090   4087   4080   4109     1  0.0000000  0.6508444  3
   4091   4090   4099   4108     1  0.0000000  1.0460000  1
   4091   4090   4099   4108     1  0.0000000  0.0000000  3
   4091   4090   4099   4100     1  0.0000000  0.6508444  3
   4091   4090   4099   4101     1  0.0000000  0.6508444  3
   4092   4090   4099   4108     1  0.0000000  1.0460000  1
   4092   4090   4099   4108     1  0.0000000  0.0000000  3
   4092   4090   4099   4100     1  0.0000000  0.6508444  3
   4092   4090   4099   4101     1  0.0000000  0.6508444  3
   4093   4081   4080   4109     1  0.0000000  0.6508444  3
   4094   4093   4105   7665     1  0.0000000  1.0460000  1
   4094   4093   4105   7665     1  0.0000000  0.0000000  3
   4094   4093   4105   4106     1  0.0000000  0.6508444  3
   4094   4093   4105   4107     1  0.0000000  0.6508444  3
   4095   4093   4105   7665     1  0.0000000  1.0460000  1
   4095   4093   4105   7665     1  0.0000000  0.0000000  3
   4095   4093   4105   4106     1  0.0000000  0.6508444  3
   4095   4093   4105   4107     1  0.0000000  0.6508444  3
   4096   4084   4080   4109     1  0.0000000  0.6508444  3
   4097   4096   4102   7642     1  0.0000000  1.0460000  1
   4097   4096   4102   7642     1  0.0000000  0.0000000  3
   4097   4096   4102   4103     1  0.0000000  0.6508444  3
   4097   4096   4102   4104     1  0.0000000  0.6508444  3
   4098   4096   4102   7642     1  0.0000000  1.0460000  1
   4098   4096   4102   7642     1  0.0000000  0.0000000  3
   4098   4096   4102   4103     1  0.0000000  0.6508444  3
   4098   4096   4102   4104     1  0.0000000  0.6508444  3
   4102   7642   7638   7641     1  0.0000000  1.6038667  3
   4103   4102   7642   7638     1  0.0000000  1.6038667  3
   4104   4102   7642   7638     1  0.0000000  1.6038667  3
   4105   7665   7661   7664     1  0.0000000  1.6038667  3
   4106   4105   7665   7661     1  0.0000000  1.6038667  3
   4107   4105   7665   7661     1  0.0000000  1.6038667  3
   4110   4111   4123   4124     1  0.0000000  0.6508444  3
   4110   4111   4123   4125     1  0.0000000  0.6508444  3
   4110   4114   4126   4127     1  0.0000000  0.6508444  3
   4110   4114   4126   4128     1  0.0000000  0.6508444  3
   4110   4117   4120   4121     1  0.0000000  0.6508444  3
   4110   4117   4120   4122     1  0.0000000  0.6508444  3
   4111   4110   4114   4115     1  0.0000000  0.6508444  3
   4111   4110   4114   4116     1  0.0000000  0.6508444  3
   4111   4110   4117   4118     1  0.0000000  0.6508444  3
   4111   4110   4117   4119     1  0.0000000  0.6508444  3
   4111   4123   4135   4136     1  0.0000000  0.6508444  3
   4111   4123   4135   4137     1  0.0000000  0.6508444  3
   4112   4111   4110   4114     1  0.0000000  0.6508444  3
   4112   4111   4110   4117     1  0.0000000  0.6508444  3
   4112   4111   4110   4139     1  0.0000000  0.6508444  3
   4112   4111   4123   4135     1  0.0000000  0.6508444  3
   4112   4111   4123   4124     1  0.0000000  0.6508444  3
   4112   4111   4123   4125     1  0.0000000  0.6508444  3
   4113   4111   4110   4114     1  0.0000000  0.6508444  3
   4113   4111   4110   4117     1  0.0000000  0.6508444  3
   4113   4111   4110   4139     1  0.0000000  0.6508444  3
   4113   4111   4123   4135     1  0.0000000  0.6508444  3
   4113   4111   4123   4124     1  0.0000000  0.6508444  3
   4113   4111   4123   4125     1  0.0000000  0.6508444  3
   4114   4110   4117   4118     1  0.0000000  0.6508444  3
   4114   4110   4117   4119     1  0.0000000  0.6508444  3
   4114   4126   4132   4133     1  0.0000000  0.6508444  3
   4114   4126   4132   4134     1  0.0000000  0.6508444  3
   4115   4114   4110   4117     1  0.0000000  0.6508444  3
   4115   4114   4110   4139     1  0.0000000  0.6508444  3
   4115   4114   4126   4132     1  0.0000000  0.6508444  3
   4115   4114   4126   4127     1  0.0000000  0.6508444  3
   4115   4114   4126   4128     1  0.0000000  0.6508444  3
   4116   4114   4110   4117     1  0.0000000  0.6508444  3
   4116   4114   4110   4139     1  0.0000000  0.6508444  3
   4116   4114   4126   4132     1  0.0000000  0.6508444  3
   4116   4114   4126   4127     1  0.0000000  0.6508444  3
   4116   4114   4126   4128     1  0.0000000  0.6508444  3
   4117   4120   4129   4130     1  0.0000000  0.6508444  3
   4117   4120   4129   4131     1  0.0000000  0.6508444  3
   4118   4117   4110   4139     1  0.0000000  0.6508444  3
   4118   4117   4120   4129     1  0.0000000  0.6508444  3
   4118   4117   4120   4121     1  0.0000000  0.6508444  3
   4118   4117   4120   4122     1  0.0000000  0.6508444  3
   4119   4117   4110   4139     1  0.0000000  0.6508444  3
   4119   4117   4120   4129     1  0.0000000  0.6508444  3
   4119   4117   4120   4121     1  0.0000000  0.6508444  3
   4119   4117   4120   4122     1  0.0000000  0.6508444  3
   4120   4117   4110   4139     1  0.0000000  0.6508444  3
   4121   4120   4129   4138     1  0.0000000  1.0460000  1
   4121   4120   4129   4138     1  0.0000000  0.0000000  3
   4121   4120   4129   4130     1  0.0000000  0.6508444  3
   4121   4120   4129   4131     1  0.0000000  0.6508444  3
   4122   4120   4129   4138     1  0.0000000  1.0460000  1
   4122   4120   4129   4138     1  0.0000000  0.0000000  3
   4122   4120   4129   4130     1  0.0000000  0.6508444  3
   4122   4120   4129   4131     1  0.0000000  0.6508444  3
   4123   4111   4110   4139     1  0.0000000  0.6508444  3
   4124   4123   4135   7711     1  0.0000000  1.0460000  1
   4124   4123   4135   7711     1  0.0000000  0.0000000  3
   4124   4123   4135   4136     1  0.0000000  0.6508444  3
   4124   4123   4135   4137     1  0.0000000  0.6508444  3
   4125   4123   4135   7711     1  0.0000000  1.0460000  1
   4125   4123   4135   7711     1  0.0000000  0.0000000  3
   4125   4123   4135   4136     1  0.0000000  0.6508444  3
   4125   4123   4135   4137     1  0.0000000  0.6508444  3
   4126   4114   4110   4139     1  0.0000000  0.6508444  3
   4127   4126   4132   7688     1  0.0000000  1.0460000  1
   4127   4126   4132   7688     1  0.0000000  0.0000000  3
   4127   4126   4132   4133     1  0.0000000  0.6508444  3
   4127   4126   4132   4134     1  0.0000000  0.6508444  3
   4128   4126   4132   7688     1  0.0000000  1.0460000  1
   4128   4126   4132   7688     1  0.0000000  0.0000000  3
   4128   4126   4132   4133     1  0.0000000  0.6508444  3
   4128   4126   4132   4134     1  0.0000000  0.6508444  3
   4132   7688   7684   7687     1  0.0000000  1.6038667  3
   4133   4132   7688   7684     1  0.0000000  1.6038667  3
   4134   4132   7688   7684     1  0.0000000  1.6038667  3
   4135   7711   7707   7710     1  0.0000000  1.6038667  3
   4136   4135   7711   7707     1  0.0000000  1.6038667  3
   4137   4135   7711   7707     1  0.0000000  1.6038667  3
   4140   4141   4153   4154     1  0.0000000  0.6508444  3
   4140   4141   4153   4155     1  0.0000000  0.6508444  3
   4140   4144   4156   4157     1  0.0000000  0.6508444  3
   4140   4144   4156   4158     1  0.0000000  0.6508444  3
   4140   4147   4150   4151     1  0.0000000  0.6508444  3
   4140   4147   4150   4152     1  0.0000000  0.6508444  3
   4141   4140   4144   4145     1  0.0000000  0.6508444  3
   4141   4140   4144   4146     1  0.0000000  0.6508444  3
   4141   4140   4147   4148     1  0.0000000  0.6508444  3
   4141   4140   4147   4149     1  0.0000000  0.6508444  3
   4141   4153   4165   4166     1  0.0000000  0.6508444  3
   4141   4153   4165   4167     1  0.0000000  0.6508444  3
   4142   4141   4140   4144     1  0.0000000  0.6508444  3
   4142   4141   4140   4147     1  0.0000000  0.6508444  3
   4142   4141   4140   4169     1  0.0000000  0.6508444  3
   4142   4141   4153   4165     1  0.0000000  0.6508444  3
   4142   4141   4153   4154     1  0.0000000  0.6508444  3
   4142   4141   4153   4155     1  0.0000000  0.6508444  3
   4143   4141   4140   4144     1  0.0000000  0.6508444  3
   4143   4141   4140   4147     1  0.0000000  0.6508444  3
   4143   4141   4140   4169     1  0.0000000  0.6508444  3
   4143   4141   4153   4165     1  0.0000000  0.6508444  3
   4143   4141   4153   4154     1  0.0000000  0.6508444  3
   4143   4141   4153   4155     1  0.0000000  0.6508444  3
   4144   4140   4147   4148     1  0.0000000  0.6508444  3
   4144   4140   4147   4149     1  0.0000000  0.6508444  3
   4144   4156   4162   4163     1  0.0000000  0.6508444  3
   4144   4156   4162   4164     1  0.0000000  0.6508444  3
   4145   4144   4140   4147     1  0.0000000  0.6508444  3
   4145   4144   4140   4169     1  0.0000000  0.6508444  3
   4145   4144   4156   4162     1  0.0000000  0.6508444  3
   4145   4144   4156   4157     1  0.0000000  0.6508444  3
   4145   4144   4156   4158     1  0.0000000  0.6508444  3
   4146   4144   4140   4147     1  0.0000000  0.6508444  3
   4146   4144   4140   4169     1  0.0000000  0.6508444  3
   4146   4144   4156   4162     1  0.0000000  0.6508444  3
   4146   4144   4156   4157     1  0.0000000  0.6508444  3
   4146   4144   4156   4158     1  0.0000000  0.6508444  3
   4147   4150   4159   4160     1  0.0000000  0.6508444  3
   4147   4150   4159   4161     1  0.0000000  0.6508444  3
   4148   4147   4140   4169     1  0.0000000  0.6508444  3
   4148   4147   4150   4159     1  0.0000000  0.6508444  3
   4148   4147   4150   4151     1  0.0000000  0.6508444  3
   4148   4147   4150   4152     1  0.0000000  0.6508444  3
   4149   4147   4140   4169     1  0.0000000  0.6508444  3
   4149   4147   4150   4159     1  0.0000000  0.6508444  3
   4149   4147   4150   4151     1  0.0000000  0.6508444  3
   4149   4147   4150   4152     1  0.0000000  0.6508444  3
   4150   4147   4140   4169     1  0.0000000  0.6508444  3
   4151   4150   4159   4168     1  0.0000000  1.0460000  1
   4151   4150   4159   4168     1  0.0000000  0.0000000  3
   4151   4150   4159   4160     1  0.0000000  0.6508444  3
   4151   4150   4159   4161     1  0.0000000  0.6508444  3
   4152   4150   4159   4168     1  0.0000000  1.0460000  1
   4152   4150   4159   4168     1  0.0000000  0.0000000  3
   4152   4150   4159   4160     1  0.0000000  0.6508444  3
   4152   4150   4159   4161     1  0.0000000  0.6508444  3
   4153   4141   4140   4169     1  0.0000000  0.6508444  3
   4154   4153   4165   7757     1  0.0000000  1.0460000  1
   4154   4153   4165   7757     1  0.0000000  0.0000000  3
   4154   4153   4165   4166     1  0.0000000  0.6508444  3
   4154   4153   4165   4167     1  0.0000000  0.6508444  3
   4155   4153   4165   7757     1  0.0000000  1.0460000  1
   4155   4153   4165   7757     1  0.0000000  0.0000000  3
   4155   4153   4165   4166     1  0.0000000  0.6508444  3
   4155   4153   4165   4167     1  0.0000000  0.6508444  3
   4156   4144   4140   4169     1  0.0000000  0.6508444  3
   4157   4156   4162   7734     1  0.0000000  1.0460000  1
   4157   4156   4162   7734     1  0.0000000  0.0000000  3
   4157   4156   4162   4163     1  0.0000000  0.6508444  3
   4157   4156   4162   4164     1  0.0000000  0.6508444  3
   4158   4156   4162   7734     1  0.0000000  1.0460000  1
   4158   4156   4162   7734     1  0.0000000  0.0000000  3
   4158   4156   4162   4163     1  0.0000000  0.6508444  3
   4158   4156   4162   4164     1  0.0000000  0.6508444  3
   4162   7734   7730   7733     1  0.0000000  1.6038667  3
   4163   4162   7734   7730     1  0.0000000  1.6038667  3
   4164   4162   7734   7730     1  0.0000000  1.6038667  3
   4165   7757   7753   7756     1  0.0000000  1.6038667  3
   4166   4165   7757   7753     1  0.0000000  1.6038667  3
   4167   4165   7757   7753     1  0.0000000  1.6038667  3
   4170   4171   4183   4184     1  0.0000000  0.6508444  3
   4170   4171   4183   4185     1  0.0000000  0.6508444  3
   4170   4174   4186   4187     1  0.0000000  0.6508444  3
   4170   4174   4186   4188     1  0.0000000  0.6508444  3
   4170   4177   4180   4181     1  0.0000000  0.6508444  3
   4170   4177   4180   4182     1  0.0000000  0.6508444  3
   4171   4170   4174   4175     1  0.0000000  0.6508444  3
   4171   4170   4174   4176     1  0.0000000  0.6508444  3
   4171   4170   4177   4178     1  0.0000000  0.6508444  3
   4171   4170   4177   4179     1  0.0000000  0.6508444  3
   4171   4183   4195   4196     1  0.0000000  0.6508444  3
   4171   4183   4195   4197     1  0.0000000  0.6508444  3
   4172   4171   4170   4174     1  0.0000000  0.6508444  3
   4172   4171   4170   4177     1  0.0000000  0.6508444  3
   4172   4171   4170   4199     1  0.0000000  0.6508444  3
   4172   4171   4183   4195     1  0.0000000  0.6508444  3
   4172   4171   4183   4184     1  0.0000000  0.6508444  3
   4172   4171   4183   4185     1  0.0000000  0.6508444  3
   4173   4171   4170   4174     1  0.0000000  0.6508444  3
   4173   4171   4170   4177     1  0.0000000  0.6508444  3
   4173   4171   4170   4199     1  0.0000000  0.6508444  3
   4173   4171   4183   4195     1  0.0000000  0.6508444  3
   4173   4171   4183   4184     1  0.0000000  0.6508444  3
   4173   4171   4183   4185     1  0.0000000  0.6508444  3
   4174   4170   4177   4178     1  0.0000000  0.6508444  3
   4174   4170   4177   4179     1  0.0000000  0.6508444  3
   4174   4186   4192   4193     1  0.0000000  0.6508444  3
   4174   4186   4192   4194     1  0.0000000  0.6508444  3
   4175   4174   4170   4177     1  0.0000000  0.6508444  3
   4175   4174   4170   4199     1  0.0000000  0.6508444  3
   4175   4174   4186   4192     1  0.0000000  0.6508444  3
   4175   4174   4186   4187     1  0.0000000  0.6508444  3
   4175   4174   4186   4188     1  0.0000000  0.6508444  3
   4176   4174   4170   4177     1  0.0000000  0.6508444  3
   4176   4174   4170   4199     1  0.0000000  0.6508444  3
   4176   4174   4186   4192     1  0.0000000  0.6508444  3
   4176   4174   4186   4187     1  0.0000000  0.6508444  3
   4176   4174   4186   4188     1  0.0000000  0.6508444  3
   4177   4180   4189   4190     1  0.0000000  0.6508444  3
   4177   4180   4189   4191     1  0.0000000  0.6508444  3
   4178   4177   4170   4199     1  0.0000000  0.6508444  3
   4178   4177   4180   4189     1  0.0000000  0.6508444  3
   4178   4177   4180   4181     1  0.0000000  0.6508444  3
   4178   4177   4180   4182     1  0.0000000  0.6508444  3
   4179   4177   4170   4199     1  0.0000000  0.6508444  3
   4179   4177   4180   4189     1  0.0000000  0.6508444  3
   4179   4177   4180   4181     1  0.0000000  0.6508444  3
   4179   4177   4180   4182     1  0.0000000  0.6508444  3
   4180   4177   4170   4199     1  0.0000000  0.6508444  3
   4181   4180   4189   4198     1  0.0000000  1.0460000  1
   4181   4180   4189   4198     1  0.0000000  0.0000000  3
   4181   4180   4189   4190     1  0.0000000  0.6508444  3
   4181   4180   4189   4191     1  0.0000000  0.6508444  3
   4182   4180   4189   4198     1  0.0000000  1.0460000  1
   4182   4180   4189   4198     1  0.0000000  0.0000000  3
   4182   4180   4189   4190     1  0.0000000  0.6508444  3
   4182   4180   4189   4191     1  0.0000000  0.6508444  3
   4183   4171   4170   4199     1  0.0000000  0.6508444  3
   4184   4183   4195   7803     1  0.0000000  1.0460000  1
   4184   4183   4195   7803     1  0.0000000  0.0000000  3
   4184   4183   4195   4196     1  0.0000000  0.6508444  3
   4184   4183   4195   4197     1  0.0000000  0.6508444  3
   4185   4183   4195   7803     1  0.0000000  1.0460000  1
   4185   4183   4195   7803     1  0.0000000  0.0000000  3
   4185   4183   4195   4196     1  0.0000000  0.6508444  3
   4185   4183   4195   4197     1  0.0000000  0.6508444  3
   4186   4174   4170   4199     1  0.0000000  0.6508444  3
   4187   4186   4192   7780     1  0.0000000  1.0460000  1
   4187   4186   4192   7780     1  0.0000000  0.0000000  3
   4187   4186   4192   4193     1  0.0000000  0.6508444  3
   4187   4186   4192   4194     1  0.0000000  0.6508444  3
   4188   4186   4192   7780     1  0.0000000  1.0460000  1
   4188   4186   4192   7780     1  0.0000000  0.0000000  3
   4188   4186   4192   4193     1  0.0000000  0.6508444  3
   4188   4186   4192   4194     1  0.0000000  0.6508444  3
   4192   7780   7776   7779     1  0.0000000  1.6038667  3
   4193   4192   7780   7776     1  0.0000000  1.6038667  3
   4194   4192   7780   7776     1  0.0000000  1.6038667  3
   4195   7803   7799   7802     1  0.0000000  1.6038667  3
   4196   4195   7803   7799     1  0.0000000  1.6038667  3
   4197   4195   7803   7799     1  0.0000000  1.6038667  3
   4200   4201   4213   4214     1  0.0000000  0.6508444  3
   4200   4201   4213   4215     1  0.0000000  0.6508444  3
   4200   4204   4216   4217     1  0.0000000  0.6508444  3
   4200   4204   4216   4218     1  0.0000000  0.6508444  3
   4200   4207   4210   4211     1  0.0000000  0.6508444  3
   4200   4207   4210   4212     1  0.0000000  0.6508444  3
   4201   4200   4204   4205     1  0.0000000  0.6508444  3
   4201   4200   4204   4206     1  0.0000000  0.6508444  3
   4201   4200   4207   4208     1  0.0000000  0.6508444  3
   4201   4200   4207   4209     1  0.0000000  0.6508444  3
   4201   4213   4225   4226     1  0.0000000  0.6508444  3
   4201   4213   4225   4227     1  0.0000000  0.6508444  3
   4202   4201   4200   4204     1  0.0000000  0.6508444  3
   4202   4201   4200   4207     1  0.0000000  0.6508444  3
   4202   4201   4200   4229     1  0.0000000  0.6508444  3
   4202   4201   4213   4225     1  0.0000000  0.6508444  3
   4202   4201   4213   4214     1  0.0000000  0.6508444  3
   4202   4201   4213   4215     1  0.0000000  0.6508444  3
   4203   4201   4200   4204     1  0.0000000  0.6508444  3
   4203   4201   4200   4207     1  0.0000000  0.6508444  3
   4203   4201   4200   4229     1  0.0000000  0.6508444  3
   4203   4201   4213   4225     1  0.0000000  0.6508444  3
   4203   4201   4213   4214     1  0.0000000  0.6508444  3
   4203   4201   4213   4215     1  0.0000000  0.6508444  3
   4204   4200   4207   4208     1  0.0000000  0.6508444  3
   4204   4200   4207   4209     1  0.0000000  0.6508444  3
   4204   4216   4222   4223     1  0.0000000  0.6508444  3
   4204   4216   4222   4224     1  0.0000000  0.6508444  3
   4205   4204   4200   4207     1  0.0000000  0.6508444  3
   4205   4204   4200   4229     1  0.0000000  0.6508444  3
   4205   4204   4216   4222     1  0.0000000  0.6508444  3
   4205   4204   4216   4217     1  0.0000000  0.6508444  3
   4205   4204   4216   4218     1  0.0000000  0.6508444  3
   4206   4204   4200   4207     1  0.0000000  0.6508444  3
   4206   4204   4200   4229     1  0.0000000  0.6508444  3
   4206   4204   4216   4222     1  0.0000000  0.6508444  3
   4206   4204   4216   4217     1  0.0000000  0.6508444  3
   4206   4204   4216   4218     1  0.0000000  0.6508444  3
   4207   4210   4219   4220     1  0.0000000  0.6508444  3
   4207   4210   4219   4221     1  0.0000000  0.6508444  3
   4208   4207   4200   4229     1  0.0000000  0.6508444  3
   4208   4207   4210   4219     1  0.0000000  0.6508444  3
   4208   4207   4210   4211     1  0.0000000  0.6508444  3
   4208   4207   4210   4212     1  0.0000000  0.6508444  3
   4209   4207   4200   4229     1  0.0000000  0.6508444  3
   4209   4207   4210   4219     1  0.0000000  0.6508444  3
   4209   4207   4210   4211     1  0.0000000  0.6508444  3
   4209   4207   4210   4212     1  0.0000000  0.6508444  3
   4210   4207   4200   4229     1  0.0000000  0.6508444  3
   4211   4210   4219   4228     1  0.0000000  1.0460000  1
   4211   4210   4219   4228     1  0.0000000  0.0000000  3
   4211   4210   4219   4220     1  0.0000000  0.6508444  3
   4211   4210   4219   4221     1  0.0000000  0.6508444  3
   4212   4210   4219   4228     1  0.0000000  1.0460000  1
   4212   4210   4219   4228     1  0.0000000  0.0000000  3
   4212   4210   4219   4220     1  0.0000000  0.6508444  3
   4212   4210   4219   4221     1  0.0000000  0.6508444  3
   4213   4201   4200   4229     1  0.0000000  0.6508444  3
   4214   4213   4225   7849     1  0.0000000  1.0460000  1
   4214   4213   4225   7849     1  0.0000000  0.0000000  3
   4214   4213   4225   4226     1  0.0000000  0.6508444  3
   4214   4213   4225   4227     1  0.0000000  0.6508444  3
   4215   4213   4225   7849     1  0.0000000  1.0460000  1
   4215   4213   4225   7849     1  0.0000000  0.0000000  3
   4215   4213   4225   4226     1  0.0000000  0.6508444  3
   4215   4213   4225   4227     1  0.0000000  0.6508444  3
   4216   4204   4200   4229     1  0.0000000  0.6508444  3
   4217   4216   4222   7826     1  0.0000000  1.0460000  1
   4217   4216   4222   7826     1  0.0000000  0.0000000  3
   4217   4216   4222   4223     1  0.0000000  0.6508444  3
   4217   4216   4222   4224     1  0.0000000  0.6508444  3
   4218   4216   4222   7826     1  0.0000000  1.0460000  1
   4218   4216   4222   7826     1  0.0000000  0.0000000  3
   4218   4216   4222   4223     1  0.0000000  0.6508444  3
   4218   4216   4222   4224     1  0.0000000  0.6508444  3
   4222   7826   7822   7825     1  0.0000000  1.6038667  3
   4223   4222   7826   7822     1  0.0000000  1.6038667  3
   4224   4222   7826   7822     1  0.0000000  1.6038667  3
   4225   7849   7845   7848     1  0.0000000  1.6038667  3
   4226   4225   7849   7845     1  0.0000000  1.6038667  3
   4227   4225   7849   7845     1  0.0000000  1.6038667  3
   4230   4231   4243   4244     1  0.0000000  0.6508444  3
   4230   4231   4243   4245     1  0.0000000  0.6508444  3
   4230   4234   4246   4247     1  0.0000000  0.6508444  3
   4230   4234   4246   4248     1  0.0000000  0.6508444  3
   4230   4237   4240   4241     1  0.0000000  0.6508444  3
   4230   4237   4240   4242     1  0.0000000  0.6508444  3
   4231   4230   4234   4235     1  0.0000000  0.6508444  3
   4231   4230   4234   4236     1  0.0000000  0.6508444  3
   4231   4230   4237   4238     1  0.0000000  0.6508444  3
   4231   4230   4237   4239     1  0.0000000  0.6508444  3
   4231   4243   4255   4256     1  0.0000000  0.6508444  3
   4231   4243   4255   4257     1  0.0000000  0.6508444  3
   4232   4231   4230   4234     1  0.0000000  0.6508444  3
   4232   4231   4230   4237     1  0.0000000  0.6508444  3
   4232   4231   4230   4259     1  0.0000000  0.6508444  3
   4232   4231   4243   4255     1  0.0000000  0.6508444  3
   4232   4231   4243   4244     1  0.0000000  0.6508444  3
   4232   4231   4243   4245     1  0.0000000  0.6508444  3
   4233   4231   4230   4234     1  0.0000000  0.6508444  3
   4233   4231   4230   4237     1  0.0000000  0.6508444  3
   4233   4231   4230   4259     1  0.0000000  0.6508444  3
   4233   4231   4243   4255     1  0.0000000  0.6508444  3
   4233   4231   4243   4244     1  0.0000000  0.6508444  3
   4233   4231   4243   4245     1  0.0000000  0.6508444  3
   4234   4230   4237   4238     1  0.0000000  0.6508444  3
   4234   4230   4237   4239     1  0.0000000  0.6508444  3
   4234   4246   4252   4253     1  0.0000000  0.6508444  3
   4234   4246   4252   4254     1  0.0000000  0.6508444  3
   4235   4234   4230   4237     1  0.0000000  0.6508444  3
   4235   4234   4230   4259     1  0.0000000  0.6508444  3
   4235   4234   4246   4252     1  0.0000000  0.6508444  3
   4235   4234   4246   4247     1  0.0000000  0.6508444  3
   4235   4234   4246   4248     1  0.0000000  0.6508444  3
   4236   4234   4230   4237     1  0.0000000  0.6508444  3
   4236   4234   4230   4259     1  0.0000000  0.6508444  3
   4236   4234   4246   4252     1  0.0000000  0.6508444  3
   4236   4234   4246   4247     1  0.0000000  0.6508444  3
   4236   4234   4246   4248     1  0.0000000  0.6508444  3
   4237   4240   4249   4250     1  0.0000000  0.6508444  3
   4237   4240   4249   4251     1  0.0000000  0.6508444  3
   4238   4237   4230   4259     1  0.0000000  0.6508444  3
   4238   4237   4240   4249     1  0.0000000  0.6508444  3
   4238   4237   4240   4241     1  0.0000000  0.6508444  3
   4238   4237   4240   4242     1  0.0000000  0.6508444  3
   4239   4237   4230   4259     1  0.0000000  0.6508444  3
   4239   4237   4240   4249     1  0.0000000  0.6508444  3
   4239   4237   4240   4241     1  0.0000000  0.6508444  3
   4239   4237   4240   4242     1  0.0000000  0.6508444  3
   4240   4237   4230   4259     1  0.0000000  0.6508444  3
   4241   4240   4249   4258     1  0.0000000  1.0460000  1
   4241   4240   4249   4258     1  0.0000000  0.0000000  3
   4241   4240   4249   4250     1  0.0000000  0.6508444  3
   4241   4240   4249   4251     1  0.0000000  0.6508444  3
   4242   4240   4249   4258     1  0.0000000  1.0460000  1
   4242   4240   4249   4258     1  0.0000000  0.0000000  3
   4242   4240   4249   4250     1  0.0000000  0.6508444  3
   4242   4240   4249   4251     1  0.0000000  0.6508444  3
   4243   4231   4230   4259     1  0.0000000  0.6508444  3
   4244   4243   4255   7895     1  0.0000000  1.0460000  1
   4244   4243   4255   7895     1  0.0000000  0.0000000  3
   4244   4243   4255   4256     1  0.0000000  0.6508444  3
   4244   4243   4255   4257     1  0.0000000  0.6508444  3
   4245   4243   4255   7895     1  0.0000000  1.0460000  1
   4245   4243   4255   7895     1  0.0000000  0.0000000  3
   4245   4243   4255   4256     1  0.0000000  0.6508444  3
   4245   4243   4255   4257     1  0.0000000  0.6508444  3
   4246   4234   4230   4259     1  0.0000000  0.6508444  3
   4247   4246   4252   7872     1  0.0000000  1.0460000  1
   4247   4246   4252   7872     1  0.0000000  0.0000000  3
   4247   4246   4252   4253     1  0.0000000  0.6508444  3
   4247   4246   4252   4254     1  0.0000000  0.6508444  3
   4248   4246   4252   7872     1  0.0000000  1.0460000  1
   4248   4246   4252   7872     1  0.0000000  0.0000000  3
   4248   4246   4252   4253     1  0.0000000  0.6508444  3
   4248   4246   4252   4254     1  0.0000000  0.6508444  3
   4252   7872   7868   7871     1  0.0000000  1.6038667  3
   4253   4252   7872   7868     1  0.0000000  1.6038667  3
   4254   4252   7872   7868     1  0.0000000  1.6038667  3
   4255   7895   7891   7894     1  0.0000000  1.6038667  3
   4256   4255   7895   7891     1  0.0000000  1.6038667  3
   4257   4255   7895   7891     1  0.0000000  1.6038667  3
   4260   4261   4273   4274     1  0.0000000  0.6508444  3
   4260   4261   4273   4275     1  0.0000000  0.6508444  3
   4260   4264   4276   4277     1  0.0000000  0.6508444  3
   4260   4264   4276   4278     1  0.0000000  0.6508444  3
   4260   4267   4270   4271     1  0.0000000  0.6508444  3
   4260   4267   4270   4272     1  0.0000000  0.6508444  3
   4261   4260   4264   4265     1  0.0000000  0.6508444  3
   4261   4260   4264   4266     1  0.0000000  0.6508444  3
   4261   4260   4267   4268     1  0.0000000  0.6508444  3
   4261   4260   4267   4269     1  0.0000000  0.6508444  3
   4261   4273   4285   4286     1  0.0000000  0.6508444  3
   4261   4273   4285   4287     1  0.0000000  0.6508444  3
   4262   4261   4260   4264     1  0.0000000  0.6508444  3
   4262   4261   4260   4267     1  0.0000000  0.6508444  3
   4262   4261   4260   4289     1  0.0000000  0.6508444  3
   4262   4261   4273   4285     1  0.0000000  0.6508444  3
   4262   4261   4273   4274     1  0.0000000  0.6508444  3
   4262   4261   4273   4275     1  0.0000000  0.6508444  3
   4263   4261   4260   4264     1  0.0000000  0.6508444  3
   4263   4261   4260   4267     1  0.0000000  0.6508444  3
   4263   4261   4260   4289     1  0.0000000  0.6508444  3
   4263   4261   4273   4285     1  0.0000000  0.6508444  3
   4263   4261   4273   4274     1  0.0000000  0.6508444  3
   4263   4261   4273   4275     1  0.0000000  0.6508444  3
   4264   4260   4267   4268     1  0.0000000  0.6508444  3
   4264   4260   4267   4269     1  0.0000000  0.6508444  3
   4264   4276   4282   4283     1  0.0000000  0.6508444  3
   4264   4276   4282   4284     1  0.0000000  0.6508444  3
   4265   4264   4260   4267     1  0.0000000  0.6508444  3
   4265   4264   4260   4289     1  0.0000000  0.6508444  3
   4265   4264   4276   4282     1  0.0000000  0.6508444  3
   4265   4264   4276   4277     1  0.0000000  0.6508444  3
   4265   4264   4276   4278     1  0.0000000  0.6508444  3
   4266   4264   4260   4267     1  0.0000000  0.6508444  3
   4266   4264   4260   4289     1  0.0000000  0.6508444  3
   4266   4264   4276   4282     1  0.0000000  0.6508444  3
   4266   4264   4276   4277     1  0.0000000  0.6508444  3
   4266   4264   4276   4278     1  0.0000000  0.6508444  3
   4267   4270   4279   4280     1  0.0000000  0.6508444  3
   4267   4270   4279   4281     1  0.0000000  0.6508444  3
   4268   4267   4260   4289     1  0.0000000  0.6508444  3
   4268   4267   4270   4279     1  0.0000000  0.6508444  3
   4268   4267   4270   4271     1  0.0000000  0.6508444  3
   4268   4267   4270   4272     1  0.0000000  0.6508444  3
   4269   4267   4260   4289     1  0.0000000  0.6508444  3
   4269   4267   4270   4279     1  0.0000000  0.6508444  3
   4269   4267   4270   4271     1  0.0000000  0.6508444  3
   4269   4267   4270   4272     1  0.0000000  0.6508444  3
   4270   4267   4260   4289     1  0.0000000  0.6508444  3
   4271   4270   4279   4288     1  0.0000000  1.0460000  1
   4271   4270   4279   4288     1  0.0000000  0.0000000  3
   4271   4270   4279   4280     1  0.0000000  0.6508444  3
   4271   4270   4279   4281     1  0.0000000  0.6508444  3
   4272   4270   4279   4288     1  0.0000000  1.0460000  1
   4272   4270   4279   4288     1  0.0000000  0.0000000  3
   4272   4270   4279   4280     1  0.0000000  0.6508444  3
   4272   4270   4279   4281     1  0.0000000  0.6508444  3
   4273   4261   4260   4289     1  0.0000000  0.6508444  3
   4274   4273   4285   7941     1  0.0000000  1.0460000  1
   4274   4273   4285   7941     1  0.0000000  0.0000000  3
   4274   4273   4285   4286     1  0.0000000  0.6508444  3
   4274   4273   4285   4287     1  0.0000000  0.6508444  3
   4275   4273   4285   7941     1  0.0000000  1.0460000  1
   4275   4273   4285   7941     1  0.0000000  0.0000000  3
   4275   4273   4285   4286     1  0.0000000  0.6508444  3
   4275   4273   4285   4287     1  0.0000000  0.6508444  3
   4276   4264   4260   4289     1  0.0000000  0.6508444  3
   4277   4276   4282   7918     1  0.0000000  1.0460000  1
   4277   4276   4282   7918     1  0.0000000  0.0000000  3
   4277   4276   4282   4283     1  0.0000000  0.6508444  3
   4277   4276   4282   4284     1  0.0000000  0.6508444  3
   4278   4276   4282   7918     1  0.0000000  1.0460000  1
   4278   4276   4282   7918     1  0.0000000  0.0000000  3
   4278   4276   4282   4283     1  0.0000000  0.6508444  3
   4278   4276   4282   4284     1  0.0000000  0.6508444  3
   4282   7918   7914   7917     1  0.0000000  1.6038667  3
   4283   4282   7918   7914     1  0.0000000  1.6038667  3
   4284   4282   7918   7914     1  0.0000000  1.6038667  3
   4285   7941   7937   7940     1  0.0000000  1.6038667  3
   4286   4285   7941   7937     1  0.0000000  1.6038667  3
   4287   4285   7941   7937     1  0.0000000  1.6038667  3
   4290   4291   4303   4304     1  0.0000000  0.6508444  3
   4290   4291   4303   4305     1  0.0000000  0.6508444  3
   4290   4294   4306   4307     1  0.0000000  0.6508444  3
   4290   4294   4306   4308     1  0.0000000  0.6508444  3
   4290   4297   4300   4301     1  0.0000000  0.6508444  3
   4290   4297   4300   4302     1  0.0000000  0.6508444  3
   4291   4290   4294   4295     1  0.0000000  0.6508444  3
   4291   4290   4294   4296     1  0.0000000  0.6508444  3
   4291   4290   4297   4298     1  0.0000000  0.6508444  3
   4291   4290   4297   4299     1  0.0000000  0.6508444  3
   4291   4303   4315   4316     1  0.0000000  0.6508444  3
   4291   4303   4315   4317     1  0.0000000  0.6508444  3
   4292   4291   4290   4294     1  0.0000000  0.6508444  3
   4292   4291   4290   4297     1  0.0000000  0.6508444  3
   4292   4291   4290   4319     1  0.0000000  0.6508444  3
   4292   4291   4303   4315     1  0.0000000  0.6508444  3
   4292   4291   4303   4304     1  0.0000000  0.6508444  3
   4292   4291   4303   4305     1  0.0000000  0.6508444  3
   4293   4291   4290   4294     1  0.0000000  0.6508444  3
   4293   4291   4290   4297     1  0.0000000  0.6508444  3
   4293   4291   4290   4319     1  0.0000000  0.6508444  3
   4293   4291   4303   4315     1  0.0000000  0.6508444  3
   4293   4291   4303   4304     1  0.0000000  0.6508444  3
   4293   4291   4303   4305     1  0.0000000  0.6508444  3
   4294   4290   4297   4298     1  0.0000000  0.6508444  3
   4294   4290   4297   4299     1  0.0000000  0.6508444  3
   4294   4306   4312   4313     1  0.0000000  0.6508444  3
   4294   4306   4312   4314     1  0.0000000  0.6508444  3
   4295   4294   4290   4297     1  0.0000000  0.6508444  3
   4295   4294   4290   4319     1  0.0000000  0.6508444  3
   4295   4294   4306   4312     1  0.0000000  0.6508444  3
   4295   4294   4306   4307     1  0.0000000  0.6508444  3
   4295   4294   4306   4308     1  0.0000000  0.6508444  3
   4296   4294   4290   4297     1  0.0000000  0.6508444  3
   4296   4294   4290   4319     1  0.0000000  0.6508444  3
   4296   4294   4306   4312     1  0.0000000  0.6508444  3
   4296   4294   4306   4307     1  0.0000000  0.6508444  3
   4296   4294   4306   4308     1  0.0000000  0.6508444  3
   4297   4300   4309   4310     1  0.0000000  0.6508444  3
   4297   4300   4309   4311     1  0.0000000  0.6508444  3
   4298   4297   4290   4319     1  0.0000000  0.6508444  3
   4298   4297   4300   4309     1  0.0000000  0.6508444  3
   4298   4297   4300   4301     1  0.0000000  0.6508444  3
   4298   4297   4300   4302     1  0.0000000  0.6508444  3
   4299   4297   4290   4319     1  0.0000000  0.6508444  3
   4299   4297   4300   4309     1  0.0000000  0.6508444  3
   4299   4297   4300   4301     1  0.0000000  0.6508444  3
   4299   4297   4300   4302     1  0.0000000  0.6508444  3
   4300   4297   4290   4319     1  0.0000000  0.6508444  3
   4301   4300   4309   4318     1  0.0000000  1.0460000  1
   4301   4300   4309   4318     1  0.0000000  0.0000000  3
   4301   4300   4309   4310     1  0.0000000  0.6508444  3
   4301   4300   4309   4311     1  0.0000000  0.6508444  3
   4302   4300   4309   4318     1  0.0000000  1.0460000  1
   4302   4300   4309   4318     1  0.0000000  0.0000000  3
   4302   4300   4309   4310     1  0.0000000  0.6508444  3
   4302   4300   4309   4311     1  0.0000000  0.6508444  3
   4303   4291   4290   4319     1  0.0000000  0.6508444  3
   4304   4303   4315   7987     1  0.0000000  1.0460000  1
   4304   4303   4315   7987     1  0.0000000  0.0000000  3
   4304   4303   4315   4316     1  0.0000000  0.6508444  3
   4304   4303   4315   4317     1  0.0000000  0.6508444  3
   4305   4303   4315   7987     1  0.0000000  1.0460000  1
   4305   4303   4315   7987     1  0.0000000  0.0000000  3
   4305   4303   4315   4316     1  0.0000000  0.6508444  3
   4305   4303   4315   4317     1  0.0000000  0.6508444  3
   4306   4294   4290   4319     1  0.0000000  0.6508444  3
   4307   4306   4312   7964     1  0.0000000  1.0460000  1
   4307   4306   4312   7964     1  0.0000000  0.0000000  3
   4307   4306   4312   4313     1  0.0000000  0.6508444  3
   4307   4306   4312   4314     1  0.0000000  0.6508444  3
   4308   4306   4312   7964     1  0.0000000  1.0460000  1
   4308   4306   4312   7964     1  0.0000000  0.0000000  3
   4308   4306   4312   4313     1  0.0000000  0.6508444  3
   4308   4306   4312   4314     1  0.0000000  0.6508444  3
   4312   7964   7960   7963     1  0.0000000  1.6038667  3
   4313   4312   7964   7960     1  0.0000000  1.6038667  3
   4314   4312   7964   7960     1  0.0000000  1.6038667  3
   4315   7987   7983   7986     1  0.0000000  1.6038667  3
   4316   4315   7987   7983     1  0.0000000  1.6038667  3
   4317   4315   7987   7983     1  0.0000000  1.6038667  3
   4320   4321   4333   4334     1  0.0000000  0.6508444  3
   4320   4321   4333   4335     1  0.0000000  0.6508444  3
   4320   4324   4336   4337     1  0.0000000  0.6508444  3
   4320   4324   4336   4338     1  0.0000000  0.6508444  3
   4320   4327   4330   4331     1  0.0000000  0.6508444  3
   4320   4327   4330   4332     1  0.0000000  0.6508444  3
   4321   4320   4324   4325     1  0.0000000  0.6508444  3
   4321   4320   4324   4326     1  0.0000000  0.6508444  3
   4321   4320   4327   4328     1  0.0000000  0.6508444  3
   4321   4320   4327   4329     1  0.0000000  0.6508444  3
   4321   4333   4345   4346     1  0.0000000  0.6508444  3
   4321   4333   4345   4347     1  0.0000000  0.6508444  3
   4322   4321   4320   4324     1  0.0000000  0.6508444  3
   4322   4321   4320   4327     1  0.0000000  0.6508444  3
   4322   4321   4320   4349     1  0.0000000  0.6508444  3
   4322   4321   4333   4345     1  0.0000000  0.6508444  3
   4322   4321   4333   4334     1  0.0000000  0.6508444  3
   4322   4321   4333   4335     1  0.0000000  0.6508444  3
   4323   4321   4320   4324     1  0.0000000  0.6508444  3
   4323   4321   4320   4327     1  0.0000000  0.6508444  3
   4323   4321   4320   4349     1  0.0000000  0.6508444  3
   4323   4321   4333   4345     1  0.0000000  0.6508444  3
   4323   4321   4333   4334     1  0.0000000  0.6508444  3
   4323   4321   4333   4335     1  0.0000000  0.6508444  3
   4324   4320   4327   4328     1  0.0000000  0.6508444  3
   4324   4320   4327   4329     1  0.0000000  0.6508444  3
   4324   4336   4342   4343     1  0.0000000  0.6508444  3
   4324   4336   4342   4344     1  0.0000000  0.6508444  3
   4325   4324   4320   4327     1  0.0000000  0.6508444  3
   4325   4324   4320   4349     1  0.0000000  0.6508444  3
   4325   4324   4336   4342     1  0.0000000  0.6508444  3
   4325   4324   4336   4337     1  0.0000000  0.6508444  3
   4325   4324   4336   4338     1  0.0000000  0.6508444  3
   4326   4324   4320   4327     1  0.0000000  0.6508444  3
   4326   4324   4320   4349     1  0.0000000  0.6508444  3
   4326   4324   4336   4342     1  0.0000000  0.6508444  3
   4326   4324   4336   4337     1  0.0000000  0.6508444  3
   4326   4324   4336   4338     1  0.0000000  0.6508444  3
   4327   4330   4339   4340     1  0.0000000  0.6508444  3
   4327   4330   4339   4341     1  0.0000000  0.6508444  3
   4328   4327   4320   4349     1  0.0000000  0.6508444  3
   4328   4327   4330   4339     1  0.0000000  0.6508444  3
   4328   4327   4330   4331     1  0.0000000  0.6508444  3
   4328   4327   4330   4332     1  0.0000000  0.6508444  3
   4329   4327   4320   4349     1  0.0000000  0.6508444  3
   4329   4327   4330   4339     1  0.0000000  0.6508444  3
   4329   4327   4330   4331     1  0.0000000  0.6508444  3
   4329   4327   4330   4332     1  0.0000000  0.6508444  3
   4330   4327   4320   4349     1  0.0000000  0.6508444  3
   4331   4330   4339   4348     1  0.0000000  1.0460000  1
   4331   4330   4339   4348     1  0.0000000  0.0000000  3
   4331   4330   4339   4340     1  0.0000000  0.6508444  3
   4331   4330   4339   4341     1  0.0000000  0.6508444  3
   4332   4330   4339   4348     1  0.0000000  1.0460000  1
   4332   4330   4339   4348     1  0.0000000  0.0000000  3
   4332   4330   4339   4340     1  0.0000000  0.6508444  3
   4332   4330   4339   4341     1  0.0000000  0.6508444  3
   4333   4321   4320   4349     1  0.0000000  0.6508444  3
   4334   4333   4345   8033     1  0.0000000  1.0460000  1
   4334   4333   4345   8033     1  0.0000000  0.0000000  3
   4334   4333   4345   4346     1  0.0000000  0.6508444  3
   4334   4333   4345   4347     1  0.0000000  0.6508444  3
   4335   4333   4345   8033     1  0.0000000  1.0460000  1
   4335   4333   4345   8033     1  0.0000000  0.0000000  3
   4335   4333   4345   4346     1  0.0000000  0.6508444  3
   4335   4333   4345   4347     1  0.0000000  0.6508444  3
   4336   4324   4320   4349     1  0.0000000  0.6508444  3
   4337   4336   4342   8010     1  0.0000000  1.0460000  1
   4337   4336   4342   8010     1  0.0000000  0.0000000  3
   4337   4336   4342   4343     1  0.0000000  0.6508444  3
   4337   4336   4342   4344     1  0.0000000  0.6508444  3
   4338   4336   4342   8010     1  0.0000000  1.0460000  1
   4338   4336   4342   8010     1  0.0000000  0.0000000  3
   4338   4336   4342   4343     1  0.0000000  0.6508444  3
   4338   4336   4342   4344     1  0.0000000  0.6508444  3
   4342   8010   8006   8009     1  0.0000000  1.6038667  3
   4343   4342   8010   8006     1  0.0000000  1.6038667  3
   4344   4342   8010   8006     1  0.0000000  1.6038667  3
   4345   8033   8029   8032     1  0.0000000  1.6038667  3
   4346   4345   8033   8029     1  0.0000000  1.6038667  3
   4347   4345   8033   8029     1  0.0000000  1.6038667  3
   4350   4351   4363   4364     1  0.0000000  0.6508444  3
   4350   4351   4363   4365     1  0.0000000  0.6508444  3
   4350   4354   4366   4367     1  0.0000000  0.6508444  3
   4350   4354   4366   4368     1  0.0000000  0.6508444  3
   4350   4357   4360   4361     1  0.0000000  0.6508444  3
   4350   4357   4360   4362     1  0.0000000  0.6508444  3
   4351   4350   4354   4355     1  0.0000000  0.6508444  3
   4351   4350   4354   4356     1  0.0000000  0.6508444  3
   4351   4350   4357   4358     1  0.0000000  0.6508444  3
   4351   4350   4357   4359     1  0.0000000  0.6508444  3
   4351   4363   4375   4376     1  0.0000000  0.6508444  3
   4351   4363   4375   4377     1  0.0000000  0.6508444  3
   4352   4351   4350   4354     1  0.0000000  0.6508444  3
   4352   4351   4350   4357     1  0.0000000  0.6508444  3
   4352   4351   4350   4379     1  0.0000000  0.6508444  3
   4352   4351   4363   4375     1  0.0000000  0.6508444  3
   4352   4351   4363   4364     1  0.0000000  0.6508444  3
   4352   4351   4363   4365     1  0.0000000  0.6508444  3
   4353   4351   4350   4354     1  0.0000000  0.6508444  3
   4353   4351   4350   4357     1  0.0000000  0.6508444  3
   4353   4351   4350   4379     1  0.0000000  0.6508444  3
   4353   4351   4363   4375     1  0.0000000  0.6508444  3
   4353   4351   4363   4364     1  0.0000000  0.6508444  3
   4353   4351   4363   4365     1  0.0000000  0.6508444  3
   4354   4350   4357   4358     1  0.0000000  0.6508444  3
   4354   4350   4357   4359     1  0.0000000  0.6508444  3
   4354   4366   4372   4373     1  0.0000000  0.6508444  3
   4354   4366   4372   4374     1  0.0000000  0.6508444  3
   4355   4354   4350   4357     1  0.0000000  0.6508444  3
   4355   4354   4350   4379     1  0.0000000  0.6508444  3
   4355   4354   4366   4372     1  0.0000000  0.6508444  3
   4355   4354   4366   4367     1  0.0000000  0.6508444  3
   4355   4354   4366   4368     1  0.0000000  0.6508444  3
   4356   4354   4350   4357     1  0.0000000  0.6508444  3
   4356   4354   4350   4379     1  0.0000000  0.6508444  3
   4356   4354   4366   4372     1  0.0000000  0.6508444  3
   4356   4354   4366   4367     1  0.0000000  0.6508444  3
   4356   4354   4366   4368     1  0.0000000  0.6508444  3
   4357   4360   4369   4370     1  0.0000000  0.6508444  3
   4357   4360   4369   4371     1  0.0000000  0.6508444  3
   4358   4357   4350   4379     1  0.0000000  0.6508444  3
   4358   4357   4360   4369     1  0.0000000  0.6508444  3
   4358   4357   4360   4361     1  0.0000000  0.6508444  3
   4358   4357   4360   4362     1  0.0000000  0.6508444  3
   4359   4357   4350   4379     1  0.0000000  0.6508444  3
   4359   4357   4360   4369     1  0.0000000  0.6508444  3
   4359   4357   4360   4361     1  0.0000000  0.6508444  3
   4359   4357   4360   4362     1  0.0000000  0.6508444  3
   4360   4357   4350   4379     1  0.0000000  0.6508444  3
   4361   4360   4369   4378     1  0.0000000  1.0460000  1
   4361   4360   4369   4378     1  0.0000000  0.0000000  3
   4361   4360   4369   4370     1  0.0000000  0.6508444  3
   4361   4360   4369   4371     1  0.0000000  0.6508444  3
   4362   4360   4369   4378     1  0.0000000  1.0460000  1
   4362   4360   4369   4378     1  0.0000000  0.0000000  3
   4362   4360   4369   4370     1  0.0000000  0.6508444  3
   4362   4360   4369   4371     1  0.0000000  0.6508444  3
   4363   4351   4350   4379     1  0.0000000  0.6508444  3
   4364   4363   4375   8079     1  0.0000000  1.0460000  1
   4364   4363   4375   8079     1  0.0000000  0.0000000  3
   4364   4363   4375   4376     1  0.0000000  0.6508444  3
   4364   4363   4375   4377     1  0.0000000  0.6508444  3
   4365   4363   4375   8079     1  0.0000000  1.0460000  1
   4365   4363   4375   8079     1  0.0000000  0.0000000  3
   4365   4363   4375   4376     1  0.0000000  0.6508444  3
   4365   4363   4375   4377     1  0.0000000  0.6508444  3
   4366   4354   4350   4379     1  0.0000000  0.6508444  3
   4367   4366   4372   8056     1  0.0000000  1.0460000  1
   4367   4366   4372   8056     1  0.0000000  0.0000000  3
   4367   4366   4372   4373     1  0.0000000  0.6508444  3
   4367   4366   4372   4374     1  0.0000000  0.6508444  3
   4368   4366   4372   8056     1  0.0000000  1.0460000  1
   4368   4366   4372   8056     1  0.0000000  0.0000000  3
   4368   4366   4372   4373     1  0.0000000  0.6508444  3
   4368   4366   4372   4374     1  0.0000000  0.6508444  3
   4372   8056   8052   8055     1  0.0000000  1.6038667  3
   4373   4372   8056   8052     1  0.0000000  1.6038667  3
   4374   4372   8056   8052     1  0.0000000  1.6038667  3
   4375   8079   8075   8078     1  0.0000000  1.6038667  3
   4376   4375   8079   8075     1  0.0000000  1.6038667  3
   4377   4375   8079   8075     1  0.0000000  1.6038667  3
   4380   4381   4393   4394     1  0.0000000  0.6508444  3
   4380   4381   4393   4395     1  0.0000000  0.6508444  3
   4380   4384   4396   4397     1  0.0000000  0.6508444  3
   4380   4384   4396   4398     1  0.0000000  0.6508444  3
   4380   4387   4390   4391     1  0.0000000  0.6508444  3
   4380   4387   4390   4392     1  0.0000000  0.6508444  3
   4381   4380   4384   4385     1  0.0000000  0.6508444  3
   4381   4380   4384   4386     1  0.0000000  0.6508444  3
   4381   4380   4387   4388     1  0.0000000  0.6508444  3
   4381   4380   4387   4389     1  0.0000000  0.6508444  3
   4381   4393   4405   4406     1  0.0000000  0.6508444  3
   4381   4393   4405   4407     1  0.0000000  0.6508444  3
   4382   4381   4380   4384     1  0.0000000  0.6508444  3
   4382   4381   4380   4387     1  0.0000000  0.6508444  3
   4382   4381   4380   4409     1  0.0000000  0.6508444  3
   4382   4381   4393   4405     1  0.0000000  0.6508444  3
   4382   4381   4393   4394     1  0.0000000  0.6508444  3
   4382   4381   4393   4395     1  0.0000000  0.6508444  3
   4383   4381   4380   4384     1  0.0000000  0.6508444  3
   4383   4381   4380   4387     1  0.0000000  0.6508444  3
   4383   4381   4380   4409     1  0.0000000  0.6508444  3
   4383   4381   4393   4405     1  0.0000000  0.6508444  3
   4383   4381   4393   4394     1  0.0000000  0.6508444  3
   4383   4381   4393   4395     1  0.0000000  0.6508444  3
   4384   4380   4387   4388     1  0.0000000  0.6508444  3
   4384   4380   4387   4389     1  0.0000000  0.6508444  3
   4384   4396   4402   4403     1  0.0000000  0.6508444  3
   4384   4396   4402   4404     1  0.0000000  0.6508444  3
   4385   4384   4380   4387     1  0.0000000  0.6508444  3
   4385   4384   4380   4409     1  0.0000000  0.6508444  3
   4385   4384   4396   4402     1  0.0000000  0.6508444  3
   4385   4384   4396   4397     1  0.0000000  0.6508444  3
   4385   4384   4396   4398     1  0.0000000  0.6508444  3
   4386   4384   4380   4387     1  0.0000000  0.6508444  3
   4386   4384   4380   4409     1  0.0000000  0.6508444  3
   4386   4384   4396   4402     1  0.0000000  0.6508444  3
   4386   4384   4396   4397     1  0.0000000  0.6508444  3
   4386   4384   4396   4398     1  0.0000000  0.6508444  3
   4387   4390   4399   4400     1  0.0000000  0.6508444  3
   4387   4390   4399   4401     1  0.0000000  0.6508444  3
   4388   4387   4380   4409     1  0.0000000  0.6508444  3
   4388   4387   4390   4399     1  0.0000000  0.6508444  3
   4388   4387   4390   4391     1  0.0000000  0.6508444  3
   4388   4387   4390   4392     1  0.0000000  0.6508444  3
   4389   4387   4380   4409     1  0.0000000  0.6508444  3
   4389   4387   4390   4399     1  0.0000000  0.6508444  3
   4389   4387   4390   4391     1  0.0000000  0.6508444  3
   4389   4387   4390   4392     1  0.0000000  0.6508444  3
   4390   4387   4380   4409     1  0.0000000  0.6508444  3
   4391   4390   4399   4408     1  0.0000000  1.0460000  1
   4391   4390   4399   4408     1  0.0000000  0.0000000  3
   4391   4390   4399   4400     1  0.0000000  0.6508444  3
   4391   4390   4399   4401     1  0.0000000  0.6508444  3
   4392   4390   4399   4408     1  0.0000000  1.0460000  1
   4392   4390   4399   4408     1  0.0000000  0.0000000  3
   4392   4390   4399   4400     1  0.0000000  0.6508444  3
   4392   4390   4399   4401     1  0.0000000  0.6508444  3
   4393   4381   4380   4409     1  0.0000000  0.6508444  3
   4394   4393   4405   8125     1  0.0000000  1.0460000  1
   4394   4393   4405   8125     1  0.0000000  0.0000000  3
   4394   4393   4405   4406     1  0.0000000  0.6508444  3
   4394   4393   4405   4407     1  0.0000000  0.6508444  3
   4395   4393   4405   8125     1  0.0000000  1.0460000  1
   4395   4393   4405   8125     1  0.0000000  0.0000000  3
   4395   4393   4405   4406     1  0.0000000  0.6508444  3
   4395   4393   4405   4407     1  0.0000000  0.6508444  3
   4396   4384   4380   4409     1  0.0000000  0.6508444  3
   4397   4396   4402   8102     1  0.0000000  1.0460000  1
   4397   4396   4402   8102     1  0.0000000  0.0000000  3
   4397   4396   4402   4403     1  0.0000000  0.6508444  3
   4397   4396   4402   4404     1  0.0000000  0.6508444  3
   4398   4396   4402   8102     1  0.0000000  1.0460000  1
   4398   4396   4402   8102     1  0.0000000  0.0000000  3
   4398   4396   4402   4403     1  0.0000000  0.6508444  3
   4398   4396   4402   4404     1  0.0000000  0.6508444  3
   4402   8102   8098   8101     1  0.0000000  1.6038667  3
   4403   4402   8102   8098     1  0.0000000  1.6038667  3
   4404   4402   8102   8098     1  0.0000000  1.6038667  3
   4405   8125   8121   8124     1  0.0000000  1.6038667  3
   4406   4405   8125   8121     1  0.0000000  1.6038667  3
   4407   4405   8125   8121     1  0.0000000  1.6038667  3
   4410   4411   4423   4424     1  0.0000000  0.6508444  3
   4410   4411   4423   4425     1  0.0000000  0.6508444  3
   4410   4414   4426   4427     1  0.0000000  0.6508444  3
   4410   4414   4426   4428     1  0.0000000  0.6508444  3
   4410   4417   4420   4421     1  0.0000000  0.6508444  3
   4410   4417   4420   4422     1  0.0000000  0.6508444  3
   4411   4410   4414   4415     1  0.0000000  0.6508444  3
   4411   4410   4414   4416     1  0.0000000  0.6508444  3
   4411   4410   4417   4418     1  0.0000000  0.6508444  3
   4411   4410   4417   4419     1  0.0000000  0.6508444  3
   4411   4423   4435   4436     1  0.0000000  0.6508444  3
   4411   4423   4435   4437     1  0.0000000  0.6508444  3
   4412   4411   4410   4414     1  0.0000000  0.6508444  3
   4412   4411   4410   4417     1  0.0000000  0.6508444  3
   4412   4411   4410   4439     1  0.0000000  0.6508444  3
   4412   4411   4423   4435     1  0.0000000  0.6508444  3
   4412   4411   4423   4424     1  0.0000000  0.6508444  3
   4412   4411   4423   4425     1  0.0000000  0.6508444  3
   4413   4411   4410   4414     1  0.0000000  0.6508444  3
   4413   4411   4410   4417     1  0.0000000  0.6508444  3
   4413   4411   4410   4439     1  0.0000000  0.6508444  3
   4413   4411   4423   4435     1  0.0000000  0.6508444  3
   4413   4411   4423   4424     1  0.0000000  0.6508444  3
   4413   4411   4423   4425     1  0.0000000  0.6508444  3
   4414   4410   4417   4418     1  0.0000000  0.6508444  3
   4414   4410   4417   4419     1  0.0000000  0.6508444  3
   4414   4426   4432   4433     1  0.0000000  0.6508444  3
   4414   4426   4432   4434     1  0.0000000  0.6508444  3
   4415   4414   4410   4417     1  0.0000000  0.6508444  3
   4415   4414   4410   4439     1  0.0000000  0.6508444  3
   4415   4414   4426   4432     1  0.0000000  0.6508444  3
   4415   4414   4426   4427     1  0.0000000  0.6508444  3
   4415   4414   4426   4428     1  0.0000000  0.6508444  3
   4416   4414   4410   4417     1  0.0000000  0.6508444  3
   4416   4414   4410   4439     1  0.0000000  0.6508444  3
   4416   4414   4426   4432     1  0.0000000  0.6508444  3
   4416   4414   4426   4427     1  0.0000000  0.6508444  3
   4416   4414   4426   4428     1  0.0000000  0.6508444  3
   4417   4420   4429   4430     1  0.0000000  0.6508444  3
   4417   4420   4429   4431     1  0.0000000  0.6508444  3
   4418   4417   4410   4439     1  0.0000000  0.6508444  3
   4418   4417   4420   4429     1  0.0000000  0.6508444  3
   4418   4417   4420   4421     1  0.0000000  0.6508444  3
   4418   4417   4420   4422     1  0.0000000  0.6508444  3
   4419   4417   4410   4439     1  0.0000000  0.6508444  3
   4419   4417   4420   4429     1  0.0000000  0.6508444  3
   4419   4417   4420   4421     1  0.0000000  0.6508444  3
   4419   4417   4420   4422     1  0.0000000  0.6508444  3
   4420   4417   4410   4439     1  0.0000000  0.6508444  3
   4421   4420   4429   4438     1  0.0000000  1.0460000  1
   4421   4420   4429   4438     1  0.0000000  0.0000000  3
   4421   4420   4429   4430     1  0.0000000  0.6508444  3
   4421   4420   4429   4431     1  0.0000000  0.6508444  3
   4422   4420   4429   4438     1  0.0000000  1.0460000  1
   4422   4420   4429   4438     1  0.0000000  0.0000000  3
   4422   4420   4429   4430     1  0.0000000  0.6508444  3
   4422   4420   4429   4431     1  0.0000000  0.6508444  3
   4423   4411   4410   4439     1  0.0000000  0.6508444  3
   4424   4423   4435   8171     1  0.0000000  1.0460000  1
   4424   4423   4435   8171     1  0.0000000  0.0000000  3
   4424   4423   4435   4436     1  0.0000000  0.6508444  3
   4424   4423   4435   4437     1  0.0000000  0.6508444  3
   4425   4423   4435   8171     1  0.0000000  1.0460000  1
   4425   4423   4435   8171     1  0.0000000  0.0000000  3
   4425   4423   4435   4436     1  0.0000000  0.6508444  3
   4425   4423   4435   4437     1  0.0000000  0.6508444  3
   4426   4414   4410   4439     1  0.0000000  0.6508444  3
   4427   4426   4432   8148     1  0.0000000  1.0460000  1
   4427   4426   4432   8148     1  0.0000000  0.0000000  3
   4427   4426   4432   4433     1  0.0000000  0.6508444  3
   4427   4426   4432   4434     1  0.0000000  0.6508444  3
   4428   4426   4432   8148     1  0.0000000  1.0460000  1
   4428   4426   4432   8148     1  0.0000000  0.0000000  3
   4428   4426   4432   4433     1  0.0000000  0.6508444  3
   4428   4426   4432   4434     1  0.0000000  0.6508444  3
   4432   8148   8144   8147     1  0.0000000  1.6038667  3
   4433   4432   8148   8144     1  0.0000000  1.6038667  3
   4434   4432   8148   8144     1  0.0000000  1.6038667  3
   4435   8171   8167   8170     1  0.0000000  1.6038667  3
   4436   4435   8171   8167     1  0.0000000  1.6038667  3
   4437   4435   8171   8167     1  0.0000000  1.6038667  3
   4440   4441   4453   4454     1  0.0000000  0.6508444  3
   4440   4441   4453   4455     1  0.0000000  0.6508444  3
   4440   4444   4456   4457     1  0.0000000  0.6508444  3
   4440   4444   4456   4458     1  0.0000000  0.6508444  3
   4440   4447   4450   4451     1  0.0000000  0.6508444  3
   4440   4447   4450   4452     1  0.0000000  0.6508444  3
   4441   4440   4444   4445     1  0.0000000  0.6508444  3
   4441   4440   4444   4446     1  0.0000000  0.6508444  3
   4441   4440   4447   4448     1  0.0000000  0.6508444  3
   4441   4440   4447   4449     1  0.0000000  0.6508444  3
   4441   4453   4465   4466     1  0.0000000  0.6508444  3
   4441   4453   4465   4467     1  0.0000000  0.6508444  3
   4442   4441   4440   4444     1  0.0000000  0.6508444  3
   4442   4441   4440   4447     1  0.0000000  0.6508444  3
   4442   4441   4440   4469     1  0.0000000  0.6508444  3
   4442   4441   4453   4465     1  0.0000000  0.6508444  3
   4442   4441   4453   4454     1  0.0000000  0.6508444  3
   4442   4441   4453   4455     1  0.0000000  0.6508444  3
   4443   4441   4440   4444     1  0.0000000  0.6508444  3
   4443   4441   4440   4447     1  0.0000000  0.6508444  3
   4443   4441   4440   4469     1  0.0000000  0.6508444  3
   4443   4441   4453   4465     1  0.0000000  0.6508444  3
   4443   4441   4453   4454     1  0.0000000  0.6508444  3
   4443   4441   4453   4455     1  0.0000000  0.6508444  3
   4444   4440   4447   4448     1  0.0000000  0.6508444  3
   4444   4440   4447   4449     1  0.0000000  0.6508444  3
   4444   4456   4462   4463     1  0.0000000  0.6508444  3
   4444   4456   4462   4464     1  0.0000000  0.6508444  3
   4445   4444   4440   4447     1  0.0000000  0.6508444  3
   4445   4444   4440   4469     1  0.0000000  0.6508444  3
   4445   4444   4456   4462     1  0.0000000  0.6508444  3
   4445   4444   4456   4457     1  0.0000000  0.6508444  3
   4445   4444   4456   4458     1  0.0000000  0.6508444  3
   4446   4444   4440   4447     1  0.0000000  0.6508444  3
   4446   4444   4440   4469     1  0.0000000  0.6508444  3
   4446   4444   4456   4462     1  0.0000000  0.6508444  3
   4446   4444   4456   4457     1  0.0000000  0.6508444  3
   4446   4444   4456   4458     1  0.0000000  0.6508444  3
   4447   4450   4459   4460     1  0.0000000  0.6508444  3
   4447   4450   4459   4461     1  0.0000000  0.6508444  3
   4448   4447   4440   4469     1  0.0000000  0.6508444  3
   4448   4447   4450   4459     1  0.0000000  0.6508444  3
   4448   4447   4450   4451     1  0.0000000  0.6508444  3
   4448   4447   4450   4452     1  0.0000000  0.6508444  3
   4449   4447   4440   4469     1  0.0000000  0.6508444  3
   4449   4447   4450   4459     1  0.0000000  0.6508444  3
   4449   4447   4450   4451     1  0.0000000  0.6508444  3
   4449   4447   4450   4452     1  0.0000000  0.6508444  3
   4450   4447   4440   4469     1  0.0000000  0.6508444  3
   4451   4450   4459   4468     1  0.0000000  1.0460000  1
   4451   4450   4459   4468     1  0.0000000  0.0000000  3
   4451   4450   4459   4460     1  0.0000000  0.6508444  3
   4451   4450   4459   4461     1  0.0000000  0.6508444  3
   4452   4450   4459   4468     1  0.0000000  1.0460000  1
   4452   4450   4459   4468     1  0.0000000  0.0000000  3
   4452   4450   4459   4460     1  0.0000000  0.6508444  3
   4452   4450   4459   4461     1  0.0000000  0.6508444  3
   4453   4441   4440   4469     1  0.0000000  0.6508444  3
   4454   4453   4465   8217     1  0.0000000  1.0460000  1
   4454   4453   4465   8217     1  0.0000000  0.0000000  3
   4454   4453   4465   4466     1  0.0000000  0.6508444  3
   4454   4453   4465   4467     1  0.0000000  0.6508444  3
   4455   4453   4465   8217     1  0.0000000  1.0460000  1
   4455   4453   4465   8217     1  0.0000000  0.0000000  3
   4455   4453   4465   4466     1  0.0000000  0.6508444  3
   4455   4453   4465   4467     1  0.0000000  0.6508444  3
   4456   4444   4440   4469     1  0.0000000  0.6508444  3
   4457   4456   4462   8194     1  0.0000000  1.0460000  1
   4457   4456   4462   8194     1  0.0000000  0.0000000  3
   4457   4456   4462   4463     1  0.0000000  0.6508444  3
   4457   4456   4462   4464     1  0.0000000  0.6508444  3
   4458   4456   4462   8194     1  0.0000000  1.0460000  1
   4458   4456   4462   8194     1  0.0000000  0.0000000  3
   4458   4456   4462   4463     1  0.0000000  0.6508444  3
   4458   4456   4462   4464     1  0.0000000  0.6508444  3
   4462   8194   8190   8193     1  0.0000000  1.6038667  3
   4463   4462   8194   8190     1  0.0000000  1.6038667  3
   4464   4462   8194   8190     1  0.0000000  1.6038667  3
   4465   8217   8213   8216     1  0.0000000  1.6038667  3
   4466   4465   8217   8213     1  0.0000000  1.6038667  3
   4467   4465   8217   8213     1  0.0000000  1.6038667  3
   4470   4471   4483   4484     1  0.0000000  0.6508444  3
   4470   4471   4483   4485     1  0.0000000  0.6508444  3
   4470   4474   4486   4487     1  0.0000000  0.6508444  3
   4470   4474   4486   4488     1  0.0000000  0.6508444  3
   4470   4477   4480   4481     1  0.0000000  0.6508444  3
   4470   4477   4480   4482     1  0.0000000  0.6508444  3
   4471   4470   4474   4475     1  0.0000000  0.6508444  3
   4471   4470   4474   4476     1  0.0000000  0.6508444  3
   4471   4470   4477   4478     1  0.0000000  0.6508444  3
   4471   4470   4477   4479     1  0.0000000  0.6508444  3
   4471   4483   4495   4496     1  0.0000000  0.6508444  3
   4471   4483   4495   4497     1  0.0000000  0.6508444  3
   4472   4471   4470   4474     1  0.0000000  0.6508444  3
   4472   4471   4470   4477     1  0.0000000  0.6508444  3
   4472   4471   4470   4499     1  0.0000000  0.6508444  3
   4472   4471   4483   4495     1  0.0000000  0.6508444  3
   4472   4471   4483   4484     1  0.0000000  0.6508444  3
   4472   4471   4483   4485     1  0.0000000  0.6508444  3
   4473   4471   4470   4474     1  0.0000000  0.6508444  3
   4473   4471   4470   4477     1  0.0000000  0.6508444  3
   4473   4471   4470   4499     1  0.0000000  0.6508444  3
   4473   4471   4483   4495     1  0.0000000  0.6508444  3
   4473   4471   4483   4484     1  0.0000000  0.6508444  3
   4473   4471   4483   4485     1  0.0000000  0.6508444  3
   4474   4470   4477   4478     1  0.0000000  0.6508444  3
   4474   4470   4477   4479     1  0.0000000  0.6508444  3
   4474   4486   4492   4493     1  0.0000000  0.6508444  3
   4474   4486   4492   4494     1  0.0000000  0.6508444  3
   4475   4474   4470   4477     1  0.0000000  0.6508444  3
   4475   4474   4470   4499     1  0.0000000  0.6508444  3
   4475   4474   4486   4492     1  0.0000000  0.6508444  3
   4475   4474   4486   4487     1  0.0000000  0.6508444  3
   4475   4474   4486   4488     1  0.0000000  0.6508444  3
   4476   4474   4470   4477     1  0.0000000  0.6508444  3
   4476   4474   4470   4499     1  0.0000000  0.6508444  3
   4476   4474   4486   4492     1  0.0000000  0.6508444  3
   4476   4474   4486   4487     1  0.0000000  0.6508444  3
   4476   4474   4486   4488     1  0.0000000  0.6508444  3
   4477   4480   4489   4490     1  0.0000000  0.6508444  3
   4477   4480   4489   4491     1  0.0000000  0.6508444  3
   4478   4477   4470   4499     1  0.0000000  0.6508444  3
   4478   4477   4480   4489     1  0.0000000  0.6508444  3
   4478   4477   4480   4481     1  0.0000000  0.6508444  3
   4478   4477   4480   4482     1  0.0000000  0.6508444  3
   4479   4477   4470   4499     1  0.0000000  0.6508444  3
   4479   4477   4480   4489     1  0.0000000  0.6508444  3
   4479   4477   4480   4481     1  0.0000000  0.6508444  3
   4479   4477   4480   4482     1  0.0000000  0.6508444  3
   4480   4477   4470   4499     1  0.0000000  0.6508444  3
   4481   4480   4489   4498     1  0.0000000  1.0460000  1
   4481   4480   4489   4498     1  0.0000000  0.0000000  3
   4481   4480   4489   4490     1  0.0000000  0.6508444  3
   4481   4480   4489   4491     1  0.0000000  0.6508444  3
   4482   4480   4489   4498     1  0.0000000  1.0460000  1
   4482   4480   4489   4498     1  0.0000000  0.0000000  3
   4482   4480   4489   4490     1  0.0000000  0.6508444  3
   4482   4480   4489   4491     1  0.0000000  0.6508444  3
   4483   4471   4470   4499     1  0.0000000  0.6508444  3
   4484   4483   4495   8263     1  0.0000000  1.0460000  1
   4484   4483   4495   8263     1  0.0000000  0.0000000  3
   4484   4483   4495   4496     1  0.0000000  0.6508444  3
   4484   4483   4495   4497     1  0.0000000  0.6508444  3
   4485   4483   4495   8263     1  0.0000000  1.0460000  1
   4485   4483   4495   8263     1  0.0000000  0.0000000  3
   4485   4483   4495   4496     1  0.0000000  0.6508444  3
   4485   4483   4495   4497     1  0.0000000  0.6508444  3
   4486   4474   4470   4499     1  0.0000000  0.6508444  3
   4487   4486   4492   8240     1  0.0000000  1.0460000  1
   4487   4486   4492   8240     1  0.0000000  0.0000000  3
   4487   4486   4492   4493     1  0.0000000  0.6508444  3
   4487   4486   4492   4494     1  0.0000000  0.6508444  3
   4488   4486   4492   8240     1  0.0000000  1.0460000  1
   4488   4486   4492   8240     1  0.0000000  0.0000000  3
   4488   4486   4492   4493     1  0.0000000  0.6508444  3
   4488   4486   4492   4494     1  0.0000000  0.6508444  3
   4492   8240   8236   8239     1  0.0000000  1.6038667  3
   4493   4492   8240   8236     1  0.0000000  1.6038667  3
   4494   4492   8240   8236     1  0.0000000  1.6038667  3
   4495   8263   8259   8262     1  0.0000000  1.6038667  3
   4496   4495   8263   8259     1  0.0000000  1.6038667  3
   4497   4495   8263   8259     1  0.0000000  1.6038667  3
   4500   4501   4513   4514     1  0.0000000  0.6508444  3
   4500   4501   4513   4515     1  0.0000000  0.6508444  3
   4500   4504   4516   4517     1  0.0000000  0.6508444  3
   4500   4504   4516   4518     1  0.0000000  0.6508444  3
   4500   4507   4510   4511     1  0.0000000  0.6508444  3
   4500   4507   4510   4512     1  0.0000000  0.6508444  3
   4501   4500   4504   4505     1  0.0000000  0.6508444  3
   4501   4500   4504   4506     1  0.0000000  0.6508444  3
   4501   4500   4507   4508     1  0.0000000  0.6508444  3
   4501   4500   4507   4509     1  0.0000000  0.6508444  3
   4501   4513   4525   4526     1  0.0000000  0.6508444  3
   4501   4513   4525   4527     1  0.0000000  0.6508444  3
   4502   4501   4500   4504     1  0.0000000  0.6508444  3
   4502   4501   4500   4507     1  0.0000000  0.6508444  3
   4502   4501   4500   4529     1  0.0000000  0.6508444  3
   4502   4501   4513   4525     1  0.0000000  0.6508444  3
   4502   4501   4513   4514     1  0.0000000  0.6508444  3
   4502   4501   4513   4515     1  0.0000000  0.6508444  3
   4503   4501   4500   4504     1  0.0000000  0.6508444  3
   4503   4501   4500   4507     1  0.0000000  0.6508444  3
   4503   4501   4500   4529     1  0.0000000  0.6508444  3
   4503   4501   4513   4525     1  0.0000000  0.6508444  3
   4503   4501   4513   4514     1  0.0000000  0.6508444  3
   4503   4501   4513   4515     1  0.0000000  0.6508444  3
   4504   4500   4507   4508     1  0.0000000  0.6508444  3
   4504   4500   4507   4509     1  0.0000000  0.6508444  3
   4504   4516   4522   4523     1  0.0000000  0.6508444  3
   4504   4516   4522   4524     1  0.0000000  0.6508444  3
   4505   4504   4500   4507     1  0.0000000  0.6508444  3
   4505   4504   4500   4529     1  0.0000000  0.6508444  3
   4505   4504   4516   4522     1  0.0000000  0.6508444  3
   4505   4504   4516   4517     1  0.0000000  0.6508444  3
   4505   4504   4516   4518     1  0.0000000  0.6508444  3
   4506   4504   4500   4507     1  0.0000000  0.6508444  3
   4506   4504   4500   4529     1  0.0000000  0.6508444  3
   4506   4504   4516   4522     1  0.0000000  0.6508444  3
   4506   4504   4516   4517     1  0.0000000  0.6508444  3
   4506   4504   4516   4518     1  0.0000000  0.6508444  3
   4507   4510   4519   4520     1  0.0000000  0.6508444  3
   4507   4510   4519   4521     1  0.0000000  0.6508444  3
   4508   4507   4500   4529     1  0.0000000  0.6508444  3
   4508   4507   4510   4519     1  0.0000000  0.6508444  3
   4508   4507   4510   4511     1  0.0000000  0.6508444  3
   4508   4507   4510   4512     1  0.0000000  0.6508444  3
   4509   4507   4500   4529     1  0.0000000  0.6508444  3
   4509   4507   4510   4519     1  0.0000000  0.6508444  3
   4509   4507   4510   4511     1  0.0000000  0.6508444  3
   4509   4507   4510   4512     1  0.0000000  0.6508444  3
   4510   4507   4500   4529     1  0.0000000  0.6508444  3
   4511   4510   4519   4528     1  0.0000000  1.0460000  1
   4511   4510   4519   4528     1  0.0000000  0.0000000  3
   4511   4510   4519   4520     1  0.0000000  0.6508444  3
   4511   4510   4519   4521     1  0.0000000  0.6508444  3
   4512   4510   4519   4528     1  0.0000000  1.0460000  1
   4512   4510   4519   4528     1  0.0000000  0.0000000  3
   4512   4510   4519   4520     1  0.0000000  0.6508444  3
   4512   4510   4519   4521     1  0.0000000  0.6508444  3
   4513   4501   4500   4529     1  0.0000000  0.6508444  3
   4514   4513   4525   8309     1  0.0000000  1.0460000  1
   4514   4513   4525   8309     1  0.0000000  0.0000000  3
   4514   4513   4525   4526     1  0.0000000  0.6508444  3
   4514   4513   4525   4527     1  0.0000000  0.6508444  3
   4515   4513   4525   8309     1  0.0000000  1.0460000  1
   4515   4513   4525   8309     1  0.0000000  0.0000000  3
   4515   4513   4525   4526     1  0.0000000  0.6508444  3
   4515   4513   4525   4527     1  0.0000000  0.6508444  3
   4516   4504   4500   4529     1  0.0000000  0.6508444  3
   4517   4516   4522   8286     1  0.0000000  1.0460000  1
   4517   4516   4522   8286     1  0.0000000  0.0000000  3
   4517   4516   4522   4523     1  0.0000000  0.6508444  3
   4517   4516   4522   4524     1  0.0000000  0.6508444  3
   4518   4516   4522   8286     1  0.0000000  1.0460000  1
   4518   4516   4522   8286     1  0.0000000  0.0000000  3
   4518   4516   4522   4523     1  0.0000000  0.6508444  3
   4518   4516   4522   4524     1  0.0000000  0.6508444  3
   4522   8286   8282   8285     1  0.0000000  1.6038667  3
   4523   4522   8286   8282     1  0.0000000  1.6038667  3
   4524   4522   8286   8282     1  0.0000000  1.6038667  3
   4525   8309   8305   8308     1  0.0000000  1.6038667  3
   4526   4525   8309   8305     1  0.0000000  1.6038667  3
   4527   4525   8309   8305     1  0.0000000  1.6038667  3
   4530   4531   4543   4544     1  0.0000000  0.6508444  3
   4530   4531   4543   4545     1  0.0000000  0.6508444  3
   4530   4534   4546   4547     1  0.0000000  0.6508444  3
   4530   4534   4546   4548     1  0.0000000  0.6508444  3
   4530   4537   4540   4541     1  0.0000000  0.6508444  3
   4530   4537   4540   4542     1  0.0000000  0.6508444  3
   4531   4530   4534   4535     1  0.0000000  0.6508444  3
   4531   4530   4534   4536     1  0.0000000  0.6508444  3
   4531   4530   4537   4538     1  0.0000000  0.6508444  3
   4531   4530   4537   4539     1  0.0000000  0.6508444  3
   4531   4543   4555   4556     1  0.0000000  0.6508444  3
   4531   4543   4555   4557     1  0.0000000  0.6508444  3
   4532   4531   4530   4534     1  0.0000000  0.6508444  3
   4532   4531   4530   4537     1  0.0000000  0.6508444  3
   4532   4531   4530   4559     1  0.0000000  0.6508444  3
   4532   4531   4543   4555     1  0.0000000  0.6508444  3
   4532   4531   4543   4544     1  0.0000000  0.6508444  3
   4532   4531   4543   4545     1  0.0000000  0.6508444  3
   4533   4531   4530   4534     1  0.0000000  0.6508444  3
   4533   4531   4530   4537     1  0.0000000  0.6508444  3
   4533   4531   4530   4559     1  0.0000000  0.6508444  3
   4533   4531   4543   4555     1  0.0000000  0.6508444  3
   4533   4531   4543   4544     1  0.0000000  0.6508444  3
   4533   4531   4543   4545     1  0.0000000  0.6508444  3
   4534   4530   4537   4538     1  0.0000000  0.6508444  3
   4534   4530   4537   4539     1  0.0000000  0.6508444  3
   4534   4546   4552   4553     1  0.0000000  0.6508444  3
   4534   4546   4552   4554     1  0.0000000  0.6508444  3
   4535   4534   4530   4537     1  0.0000000  0.6508444  3
   4535   4534   4530   4559     1  0.0000000  0.6508444  3
   4535   4534   4546   4552     1  0.0000000  0.6508444  3
   4535   4534   4546   4547     1  0.0000000  0.6508444  3
   4535   4534   4546   4548     1  0.0000000  0.6508444  3
   4536   4534   4530   4537     1  0.0000000  0.6508444  3
   4536   4534   4530   4559     1  0.0000000  0.6508444  3
   4536   4534   4546   4552     1  0.0000000  0.6508444  3
   4536   4534   4546   4547     1  0.0000000  0.6508444  3
   4536   4534   4546   4548     1  0.0000000  0.6508444  3
   4537   4540   4549   4550     1  0.0000000  0.6508444  3
   4537   4540   4549   4551     1  0.0000000  0.6508444  3
   4538   4537   4530   4559     1  0.0000000  0.6508444  3
   4538   4537   4540   4549     1  0.0000000  0.6508444  3
   4538   4537   4540   4541     1  0.0000000  0.6508444  3
   4538   4537   4540   4542     1  0.0000000  0.6508444  3
   4539   4537   4530   4559     1  0.0000000  0.6508444  3
   4539   4537   4540   4549     1  0.0000000  0.6508444  3
   4539   4537   4540   4541     1  0.0000000  0.6508444  3
   4539   4537   4540   4542     1  0.0000000  0.6508444  3
   4540   4537   4530   4559     1  0.0000000  0.6508444  3
   4541   4540   4549   4558     1  0.0000000  1.0460000  1
   4541   4540   4549   4558     1  0.0000000  0.0000000  3
   4541   4540   4549   4550     1  0.0000000  0.6508444  3
   4541   4540   4549   4551     1  0.0000000  0.6508444  3
   4542   4540   4549   4558     1  0.0000000  1.0460000  1
   4542   4540   4549   4558     1  0.0000000  0.0000000  3
   4542   4540   4549   4550     1  0.0000000  0.6508444  3
   4542   4540   4549   4551     1  0.0000000  0.6508444  3
   4543   4531   4530   4559     1  0.0000000  0.6508444  3
   4544   4543   4555   8355     1  0.0000000  1.0460000  1
   4544   4543   4555   8355     1  0.0000000  0.0000000  3
   4544   4543   4555   4556     1  0.0000000  0.6508444  3
   4544   4543   4555   4557     1  0.0000000  0.6508444  3
   4545   4543   4555   8355     1  0.0000000  1.0460000  1
   4545   4543   4555   8355     1  0.0000000  0.0000000  3
   4545   4543   4555   4556     1  0.0000000  0.6508444  3
   4545   4543   4555   4557     1  0.0000000  0.6508444  3
   4546   4534   4530   4559     1  0.0000000  0.6508444  3
   4547   4546   4552   8332     1  0.0000000  1.0460000  1
   4547   4546   4552   8332     1  0.0000000  0.0000000  3
   4547   4546   4552   4553     1  0.0000000  0.6508444  3
   4547   4546   4552   4554     1  0.0000000  0.6508444  3
   4548   4546   4552   8332     1  0.0000000  1.0460000  1
   4548   4546   4552   8332     1  0.0000000  0.0000000  3
   4548   4546   4552   4553     1  0.0000000  0.6508444  3
   4548   4546   4552   4554     1  0.0000000  0.6508444  3
   4552   8332   8328   8331     1  0.0000000  1.6038667  3
   4553   4552   8332   8328     1  0.0000000  1.6038667  3
   4554   4552   8332   8328     1  0.0000000  1.6038667  3
   4555   8355   8351   8354     1  0.0000000  1.6038667  3
   4556   4555   8355   8351     1  0.0000000  1.6038667  3
   4557   4555   8355   8351     1  0.0000000  1.6038667  3
   4560   4561   4573   4574     1  0.0000000  0.6508444  3
   4560   4561   4573   4575     1  0.0000000  0.6508444  3
   4560   4564   4576   4577     1  0.0000000  0.6508444  3
   4560   4564   4576   4578     1  0.0000000  0.6508444  3
   4560   4567   4570   4571     1  0.0000000  0.6508444  3
   4560   4567   4570   4572     1  0.0000000  0.6508444  3
   4561   4560   4564   4565     1  0.0000000  0.6508444  3
   4561   4560   4564   4566     1  0.0000000  0.6508444  3
   4561   4560   4567   4568     1  0.0000000  0.6508444  3
   4561   4560   4567   4569     1  0.0000000  0.6508444  3
   4561   4573   4585   4586     1  0.0000000  0.6508444  3
   4561   4573   4585   4587     1  0.0000000  0.6508444  3
   4562   4561   4560   4564     1  0.0000000  0.6508444  3
   4562   4561   4560   4567     1  0.0000000  0.6508444  3
   4562   4561   4560   4589     1  0.0000000  0.6508444  3
   4562   4561   4573   4585     1  0.0000000  0.6508444  3
   4562   4561   4573   4574     1  0.0000000  0.6508444  3
   4562   4561   4573   4575     1  0.0000000  0.6508444  3
   4563   4561   4560   4564     1  0.0000000  0.6508444  3
   4563   4561   4560   4567     1  0.0000000  0.6508444  3
   4563   4561   4560   4589     1  0.0000000  0.6508444  3
   4563   4561   4573   4585     1  0.0000000  0.6508444  3
   4563   4561   4573   4574     1  0.0000000  0.6508444  3
   4563   4561   4573   4575     1  0.0000000  0.6508444  3
   4564   4560   4567   4568     1  0.0000000  0.6508444  3
   4564   4560   4567   4569     1  0.0000000  0.6508444  3
   4564   4576   4582   4583     1  0.0000000  0.6508444  3
   4564   4576   4582   4584     1  0.0000000  0.6508444  3
   4565   4564   4560   4567     1  0.0000000  0.6508444  3
   4565   4564   4560   4589     1  0.0000000  0.6508444  3
   4565   4564   4576   4582     1  0.0000000  0.6508444  3
   4565   4564   4576   4577     1  0.0000000  0.6508444  3
   4565   4564   4576   4578     1  0.0000000  0.6508444  3
   4566   4564   4560   4567     1  0.0000000  0.6508444  3
   4566   4564   4560   4589     1  0.0000000  0.6508444  3
   4566   4564   4576   4582     1  0.0000000  0.6508444  3
   4566   4564   4576   4577     1  0.0000000  0.6508444  3
   4566   4564   4576   4578     1  0.0000000  0.6508444  3
   4567   4570   4579   4580     1  0.0000000  0.6508444  3
   4567   4570   4579   4581     1  0.0000000  0.6508444  3
   4568   4567   4560   4589     1  0.0000000  0.6508444  3
   4568   4567   4570   4579     1  0.0000000  0.6508444  3
   4568   4567   4570   4571     1  0.0000000  0.6508444  3
   4568   4567   4570   4572     1  0.0000000  0.6508444  3
   4569   4567   4560   4589     1  0.0000000  0.6508444  3
   4569   4567   4570   4579     1  0.0000000  0.6508444  3
   4569   4567   4570   4571     1  0.0000000  0.6508444  3
   4569   4567   4570   4572     1  0.0000000  0.6508444  3
   4570   4567   4560   4589     1  0.0000000  0.6508444  3
   4571   4570   4579   4588     1  0.0000000  1.0460000  1
   4571   4570   4579   4588     1  0.0000000  0.0000000  3
   4571   4570   4579   4580     1  0.0000000  0.6508444  3
   4571   4570   4579   4581     1  0.0000000  0.6508444  3
   4572   4570   4579   4588     1  0.0000000  1.0460000  1
   4572   4570   4579   4588     1  0.0000000  0.0000000  3
   4572   4570   4579   4580     1  0.0000000  0.6508444  3
   4572   4570   4579   4581     1  0.0000000  0.6508444  3
   4573   4561   4560   4589     1  0.0000000  0.6508444  3
   4574   4573   4585   8401     1  0.0000000  1.0460000  1
   4574   4573   4585   8401     1  0.0000000  0.0000000  3
   4574   4573   4585   4586     1  0.0000000  0.6508444  3
   4574   4573   4585   4587     1  0.0000000  0.6508444  3
   4575   4573   4585   8401     1  0.0000000  1.0460000  1
   4575   4573   4585   8401     1  0.0000000  0.0000000  3
   4575   4573   4585   4586     1  0.0000000  0.6508444  3
   4575   4573   4585   4587     1  0.0000000  0.6508444  3
   4576   4564   4560   4589     1  0.0000000  0.6508444  3
   4577   4576   4582   8378     1  0.0000000  1.0460000  1
   4577   4576   4582   8378     1  0.0000000  0.0000000  3
   4577   4576   4582   4583     1  0.0000000  0.6508444  3
   4577   4576   4582   4584     1  0.0000000  0.6508444  3
   4578   4576   4582   8378     1  0.0000000  1.0460000  1
   4578   4576   4582   8378     1  0.0000000  0.0000000  3
   4578   4576   4582   4583     1  0.0000000  0.6508444  3
   4578   4576   4582   4584     1  0.0000000  0.6508444  3
   4582   8378   8374   8377     1  0.0000000  1.6038667  3
   4583   4582   8378   8374     1  0.0000000  1.6038667  3
   4584   4582   8378   8374     1  0.0000000  1.6038667  3
   4585   8401   8397   8400     1  0.0000000  1.6038667  3
   4586   4585   8401   8397     1  0.0000000  1.6038667  3
   4587   4585   8401   8397     1  0.0000000  1.6038667  3
   4590   4591   4603   4604     1  0.0000000  0.6508444  3
   4590   4591   4603   4605     1  0.0000000  0.6508444  3
   4590   4594   4606   4607     1  0.0000000  0.6508444  3
   4590   4594   4606   4608     1  0.0000000  0.6508444  3
   4590   4597   4600   4601     1  0.0000000  0.6508444  3
   4590   4597   4600   4602     1  0.0000000  0.6508444  3
   4591   4590   4594   4595     1  0.0000000  0.6508444  3
   4591   4590   4594   4596     1  0.0000000  0.6508444  3
   4591   4590   4597   4598     1  0.0000000  0.6508444  3
   4591   4590   4597   4599     1  0.0000000  0.6508444  3
   4591   4603   4615   4616     1  0.0000000  0.6508444  3
   4591   4603   4615   4617     1  0.0000000  0.6508444  3
   4592   4591   4590   4594     1  0.0000000  0.6508444  3
   4592   4591   4590   4597     1  0.0000000  0.6508444  3
   4592   4591   4590   4619     1  0.0000000  0.6508444  3
   4592   4591   4603   4615     1  0.0000000  0.6508444  3
   4592   4591   4603   4604     1  0.0000000  0.6508444  3
   4592   4591   4603   4605     1  0.0000000  0.6508444  3
   4593   4591   4590   4594     1  0.0000000  0.6508444  3
   4593   4591   4590   4597     1  0.0000000  0.6508444  3
   4593   4591   4590   4619     1  0.0000000  0.6508444  3
   4593   4591   4603   4615     1  0.0000000  0.6508444  3
   4593   4591   4603   4604     1  0.0000000  0.6508444  3
   4593   4591   4603   4605     1  0.0000000  0.6508444  3
   4594   4590   4597   4598     1  0.0000000  0.6508444  3
   4594   4590   4597   4599     1  0.0000000  0.6508444  3
   4594   4606   4612   4613     1  0.0000000  0.6508444  3
   4594   4606   4612   4614     1  0.0000000  0.6508444  3
   4595   4594   4590   4597     1  0.0000000  0.6508444  3
   4595   4594   4590   4619     1  0.0000000  0.6508444  3
   4595   4594   4606   4612     1  0.0000000  0.6508444  3
   4595   4594   4606   4607     1  0.0000000  0.6508444  3
   4595   4594   4606   4608     1  0.0000000  0.6508444  3
   4596   4594   4590   4597     1  0.0000000  0.6508444  3
   4596   4594   4590   4619     1  0.0000000  0.6508444  3
   4596   4594   4606   4612     1  0.0000000  0.6508444  3
   4596   4594   4606   4607     1  0.0000000  0.6508444  3
   4596   4594   4606   4608     1  0.0000000  0.6508444  3
   4597   4600   4609   4610     1  0.0000000  0.6508444  3
   4597   4600   4609   4611     1  0.0000000  0.6508444  3
   4598   4597   4590   4619     1  0.0000000  0.6508444  3
   4598   4597   4600   4609     1  0.0000000  0.6508444  3
   4598   4597   4600   4601     1  0.0000000  0.6508444  3
   4598   4597   4600   4602     1  0.0000000  0.6508444  3
   4599   4597   4590   4619     1  0.0000000  0.6508444  3
   4599   4597   4600   4609     1  0.0000000  0.6508444  3
   4599   4597   4600   4601     1  0.0000000  0.6508444  3
   4599   4597   4600   4602     1  0.0000000  0.6508444  3
   4600   4597   4590   4619     1  0.0000000  0.6508444  3
   4601   4600   4609   4618     1  0.0000000  1.0460000  1
   4601   4600   4609   4618     1  0.0000000  0.0000000  3
   4601   4600   4609   4610     1  0.0000000  0.6508444  3
   4601   4600   4609   4611     1  0.0000000  0.6508444  3
   4602   4600   4609   4618     1  0.0000000  1.0460000  1
   4602   4600   4609   4618     1  0.0000000  0.0000000  3
   4602   4600   4609   4610     1  0.0000000  0.6508444  3
   4602   4600   4609   4611     1  0.0000000  0.6508444  3
   4603   4591   4590   4619     1  0.0000000  0.6508444  3
   4604   4603   4615   8447     1  0.0000000  1.0460000  1
   4604   4603   4615   8447     1  0.0000000  0.0000000  3
   4604   4603   4615   4616     1  0.0000000  0.6508444  3
   4604   4603   4615   4617     1  0.0000000  0.6508444  3
   4605   4603   4615   8447     1  0.0000000  1.0460000  1
   4605   4603   4615   8447     1  0.0000000  0.0000000  3
   4605   4603   4615   4616     1  0.0000000  0.6508444  3
   4605   4603   4615   4617     1  0.0000000  0.6508444  3
   4606   4594   4590   4619     1  0.0000000  0.6508444  3
   4607   4606   4612   8424     1  0.0000000  1.0460000  1
   4607   4606   4612   8424     1  0.0000000  0.0000000  3
   4607   4606   4612   4613     1  0.0000000  0.6508444  3
   4607   4606   4612   4614     1  0.0000000  0.6508444  3
   4608   4606   4612   8424     1  0.0000000  1.0460000  1
   4608   4606   4612   8424     1  0.0000000  0.0000000  3
   4608   4606   4612   4613     1  0.0000000  0.6508444  3
   4608   4606   4612   4614     1  0.0000000  0.6508444  3
   4612   8424   8420   8423     1  0.0000000  1.6038667  3
   4613   4612   8424   8420     1  0.0000000  1.6038667  3
   4614   4612   8424   8420     1  0.0000000  1.6038667  3
   4615   8447   8443   8446     1  0.0000000  1.6038667  3
   4616   4615   8447   8443     1  0.0000000  1.6038667  3
   4617   4615   8447   8443     1  0.0000000  1.6038667  3
   4620   4621   4633   4634     1  0.0000000  0.6508444  3
   4620   4621   4633   4635     1  0.0000000  0.6508444  3
   4620   4624   4636   4637     1  0.0000000  0.6508444  3
   4620   4624   4636   4638     1  0.0000000  0.6508444  3
   4620   4627   4630   4631     1  0.0000000  0.6508444  3
   4620   4627   4630   4632     1  0.0000000  0.6508444  3
   4621   4620   4624   4625     1  0.0000000  0.6508444  3
   4621   4620   4624   4626     1  0.0000000  0.6508444  3
   4621   4620   4627   4628     1  0.0000000  0.6508444  3
   4621   4620   4627   4629     1  0.0000000  0.6508444  3
   4621   4633   4645   4646     1  0.0000000  0.6508444  3
   4621   4633   4645   4647     1  0.0000000  0.6508444  3
   4622   4621   4620   4624     1  0.0000000  0.6508444  3
   4622   4621   4620   4627     1  0.0000000  0.6508444  3
   4622   4621   4620   4649     1  0.0000000  0.6508444  3
   4622   4621   4633   4645     1  0.0000000  0.6508444  3
   4622   4621   4633   4634     1  0.0000000  0.6508444  3
   4622   4621   4633   4635     1  0.0000000  0.6508444  3
   4623   4621   4620   4624     1  0.0000000  0.6508444  3
   4623   4621   4620   4627     1  0.0000000  0.6508444  3
   4623   4621   4620   4649     1  0.0000000  0.6508444  3
   4623   4621   4633   4645     1  0.0000000  0.6508444  3
   4623   4621   4633   4634     1  0.0000000  0.6508444  3
   4623   4621   4633   4635     1  0.0000000  0.6508444  3
   4624   4620   4627   4628     1  0.0000000  0.6508444  3
   4624   4620   4627   4629     1  0.0000000  0.6508444  3
   4624   4636   4642   4643     1  0.0000000  0.6508444  3
   4624   4636   4642   4644     1  0.0000000  0.6508444  3
   4625   4624   4620   4627     1  0.0000000  0.6508444  3
   4625   4624   4620   4649     1  0.0000000  0.6508444  3
   4625   4624   4636   4642     1  0.0000000  0.6508444  3
   4625   4624   4636   4637     1  0.0000000  0.6508444  3
   4625   4624   4636   4638     1  0.0000000  0.6508444  3
   4626   4624   4620   4627     1  0.0000000  0.6508444  3
   4626   4624   4620   4649     1  0.0000000  0.6508444  3
   4626   4624   4636   4642     1  0.0000000  0.6508444  3
   4626   4624   4636   4637     1  0.0000000  0.6508444  3
   4626   4624   4636   4638     1  0.0000000  0.6508444  3
   4627   4630   4639   4640     1  0.0000000  0.6508444  3
   4627   4630   4639   4641     1  0.0000000  0.6508444  3
   4628   4627   4620   4649     1  0.0000000  0.6508444  3
   4628   4627   4630   4639     1  0.0000000  0.6508444  3
   4628   4627   4630   4631     1  0.0000000  0.6508444  3
   4628   4627   4630   4632     1  0.0000000  0.6508444  3
   4629   4627   4620   4649     1  0.0000000  0.6508444  3
   4629   4627   4630   4639     1  0.0000000  0.6508444  3
   4629   4627   4630   4631     1  0.0000000  0.6508444  3
   4629   4627   4630   4632     1  0.0000000  0.6508444  3
   4630   4627   4620   4649     1  0.0000000  0.6508444  3
   4631   4630   4639   4648     1  0.0000000  1.0460000  1
   4631   4630   4639   4648     1  0.0000000  0.0000000  3
   4631   4630   4639   4640     1  0.0000000  0.6508444  3
   4631   4630   4639   4641     1  0.0000000  0.6508444  3
   4632   4630   4639   4648     1  0.0000000  1.0460000  1
   4632   4630   4639   4648     1  0.0000000  0.0000000  3
   4632   4630   4639   4640     1  0.0000000  0.6508444  3
   4632   4630   4639   4641     1  0.0000000  0.6508444  3
   4633   4621   4620   4649     1  0.0000000  0.6508444  3
   4634   4633   4645   8493     1  0.0000000  1.0460000  1
   4634   4633   4645   8493     1  0.0000000  0.0000000  3
   4634   4633   4645   4646     1  0.0000000  0.6508444  3
   4634   4633   4645   4647     1  0.0000000  0.6508444  3
   4635   4633   4645   8493     1  0.0000000  1.0460000  1
   4635   4633   4645   8493     1  0.0000000  0.0000000  3
   4635   4633   4645   4646     1  0.0000000  0.6508444  3
   4635   4633   4645   4647     1  0.0000000  0.6508444  3
   4636   4624   4620   4649     1  0.0000000  0.6508444  3
   4637   4636   4642   8470     1  0.0000000  1.0460000  1
   4637   4636   4642   8470     1  0.0000000  0.0000000  3
   4637   4636   4642   4643     1  0.0000000  0.6508444  3
   4637   4636   4642   4644     1  0.0000000  0.6508444  3
   4638   4636   4642   8470     1  0.0000000  1.0460000  1
   4638   4636   4642   8470     1  0.0000000  0.0000000  3
   4638   4636   4642   4643     1  0.0000000  0.6508444  3
   4638   4636   4642   4644     1  0.0000000  0.6508444  3
   4642   8470   8466   8469     1  0.0000000  1.6038667  3
   4643   4642   8470   8466     1  0.0000000  1.6038667  3
   4644   4642   8470   8466     1  0.0000000  1.6038667  3
   4645   8493   8489   8492     1  0.0000000  1.6038667  3
   4646   4645   8493   8489     1  0.0000000  1.6038667  3
   4647   4645   8493   8489     1  0.0000000  1.6038667  3
   4650   4651   4663   4664     1  0.0000000  0.6508444  3
   4650   4651   4663   4665     1  0.0000000  0.6508444  3
   4650   4654   4666   4667     1  0.0000000  0.6508444  3
   4650   4654   4666   4668     1  0.0000000  0.6508444  3
   4650   4657   4660   4661     1  0.0000000  0.6508444  3
   4650   4657   4660   4662     1  0.0000000  0.6508444  3
   4651   4650   4654   4655     1  0.0000000  0.6508444  3
   4651   4650   4654   4656     1  0.0000000  0.6508444  3
   4651   4650   4657   4658     1  0.0000000  0.6508444  3
   4651   4650   4657   4659     1  0.0000000  0.6508444  3
   4651   4663   4675   4676     1  0.0000000  0.6508444  3
   4651   4663   4675   4677     1  0.0000000  0.6508444  3
   4652   4651   4650   4654     1  0.0000000  0.6508444  3
   4652   4651   4650   4657     1  0.0000000  0.6508444  3
   4652   4651   4650   4679     1  0.0000000  0.6508444  3
   4652   4651   4663   4675     1  0.0000000  0.6508444  3
   4652   4651   4663   4664     1  0.0000000  0.6508444  3
   4652   4651   4663   4665     1  0.0000000  0.6508444  3
   4653   4651   4650   4654     1  0.0000000  0.6508444  3
   4653   4651   4650   4657     1  0.0000000  0.6508444  3
   4653   4651   4650   4679     1  0.0000000  0.6508444  3
   4653   4651   4663   4675     1  0.0000000  0.6508444  3
   4653   4651   4663   4664     1  0.0000000  0.6508444  3
   4653   4651   4663   4665     1  0.0000000  0.6508444  3
   4654   4650   4657   4658     1  0.0000000  0.6508444  3
   4654   4650   4657   4659     1  0.0000000  0.6508444  3
   4654   4666   4672   4673     1  0.0000000  0.6508444  3
   4654   4666   4672   4674     1  0.0000000  0.6508444  3
   4655   4654   4650   4657     1  0.0000000  0.6508444  3
   4655   4654   4650   4679     1  0.0000000  0.6508444  3
   4655   4654   4666   4672     1  0.0000000  0.6508444  3
   4655   4654   4666   4667     1  0.0000000  0.6508444  3
   4655   4654   4666   4668     1  0.0000000  0.6508444  3
   4656   4654   4650   4657     1  0.0000000  0.6508444  3
   4656   4654   4650   4679     1  0.0000000  0.6508444  3
   4656   4654   4666   4672     1  0.0000000  0.6508444  3
   4656   4654   4666   4667     1  0.0000000  0.6508444  3
   4656   4654   4666   4668     1  0.0000000  0.6508444  3
   4657   4660   4669   4670     1  0.0000000  0.6508444  3
   4657   4660   4669   4671     1  0.0000000  0.6508444  3
   4658   4657   4650   4679     1  0.0000000  0.6508444  3
   4658   4657   4660   4669     1  0.0000000  0.6508444  3
   4658   4657   4660   4661     1  0.0000000  0.6508444  3
   4658   4657   4660   4662     1  0.0000000  0.6508444  3
   4659   4657   4650   4679     1  0.0000000  0.6508444  3
   4659   4657   4660   4669     1  0.0000000  0.6508444  3
   4659   4657   4660   4661     1  0.0000000  0.6508444  3
   4659   4657   4660   4662     1  0.0000000  0.6508444  3
   4660   4657   4650   4679     1  0.0000000  0.6508444  3
   4661   4660   4669   4678     1  0.0000000  1.0460000  1
   4661   4660   4669   4678     1  0.0000000  0.0000000  3
   4661   4660   4669   4670     1  0.0000000  0.6508444  3
   4661   4660   4669   4671     1  0.0000000  0.6508444  3
   4662   4660   4669   4678     1  0.0000000  1.0460000  1
   4662   4660   4669   4678     1  0.0000000  0.0000000  3
   4662   4660   4669   4670     1  0.0000000  0.6508444  3
   4662   4660   4669   4671     1  0.0000000  0.6508444  3
   4663   4651   4650   4679     1  0.0000000  0.6508444  3
   4664   4663   4675   8539     1  0.0000000  1.0460000  1
   4664   4663   4675   8539     1  0.0000000  0.0000000  3
   4664   4663   4675   4676     1  0.0000000  0.6508444  3
   4664   4663   4675   4677     1  0.0000000  0.6508444  3
   4665   4663   4675   8539     1  0.0000000  1.0460000  1
   4665   4663   4675   8539     1  0.0000000  0.0000000  3
   4665   4663   4675   4676     1  0.0000000  0.6508444  3
   4665   4663   4675   4677     1  0.0000000  0.6508444  3
   4666   4654   4650   4679     1  0.0000000  0.6508444  3
   4667   4666   4672   8516     1  0.0000000  1.0460000  1
   4667   4666   4672   8516     1  0.0000000  0.0000000  3
   4667   4666   4672   4673     1  0.0000000  0.6508444  3
   4667   4666   4672   4674     1  0.0000000  0.6508444  3
   4668   4666   4672   8516     1  0.0000000  1.0460000  1
   4668   4666   4672   8516     1  0.0000000  0.0000000  3
   4668   4666   4672   4673     1  0.0000000  0.6508444  3
   4668   4666   4672   4674     1  0.0000000  0.6508444  3
   4672   8516   8512   8515     1  0.0000000  1.6038667  3
   4673   4672   8516   8512     1  0.0000000  1.6038667  3
   4674   4672   8516   8512     1  0.0000000  1.6038667  3
   4675   8539   8535   8538     1  0.0000000  1.6038667  3
   4676   4675   8539   8535     1  0.0000000  1.6038667  3
   4677   4675   8539   8535     1  0.0000000  1.6038667  3
   4680   4681   4693   4694     1  0.0000000  0.6508444  3
   4680   4681   4693   4695     1  0.0000000  0.6508444  3
   4680   4684   4696   4697     1  0.0000000  0.6508444  3
   4680   4684   4696   4698     1  0.0000000  0.6508444  3
   4680   4687   4690   4691     1  0.0000000  0.6508444  3
   4680   4687   4690   4692     1  0.0000000  0.6508444  3
   4681   4680   4684   4685     1  0.0000000  0.6508444  3
   4681   4680   4684   4686     1  0.0000000  0.6508444  3
   4681   4680   4687   4688     1  0.0000000  0.6508444  3
   4681   4680   4687   4689     1  0.0000000  0.6508444  3
   4681   4693   4705   4706     1  0.0000000  0.6508444  3
   4681   4693   4705   4707     1  0.0000000  0.6508444  3
   4682   4681   4680   4684     1  0.0000000  0.6508444  3
   4682   4681   4680   4687     1  0.0000000  0.6508444  3
   4682   4681   4680   4709     1  0.0000000  0.6508444  3
   4682   4681   4693   4705     1  0.0000000  0.6508444  3
   4682   4681   4693   4694     1  0.0000000  0.6508444  3
   4682   4681   4693   4695     1  0.0000000  0.6508444  3
   4683   4681   4680   4684     1  0.0000000  0.6508444  3
   4683   4681   4680   4687     1  0.0000000  0.6508444  3
   4683   4681   4680   4709     1  0.0000000  0.6508444  3
   4683   4681   4693   4705     1  0.0000000  0.6508444  3
   4683   4681   4693   4694     1  0.0000000  0.6508444  3
   4683   4681   4693   4695     1  0.0000000  0.6508444  3
   4684   4680   4687   4688     1  0.0000000  0.6508444  3
   4684   4680   4687   4689     1  0.0000000  0.6508444  3
   4684   4696   4702   4703     1  0.0000000  0.6508444  3
   4684   4696   4702   4704     1  0.0000000  0.6508444  3
   4685   4684   4680   4687     1  0.0000000  0.6508444  3
   4685   4684   4680   4709     1  0.0000000  0.6508444  3
   4685   4684   4696   4702     1  0.0000000  0.6508444  3
   4685   4684   4696   4697     1  0.0000000  0.6508444  3
   4685   4684   4696   4698     1  0.0000000  0.6508444  3
   4686   4684   4680   4687     1  0.0000000  0.6508444  3
   4686   4684   4680   4709     1  0.0000000  0.6508444  3
   4686   4684   4696   4702     1  0.0000000  0.6508444  3
   4686   4684   4696   4697     1  0.0000000  0.6508444  3
   4686   4684   4696   4698     1  0.0000000  0.6508444  3
   4687   4690   4699   4700     1  0.0000000  0.6508444  3
   4687   4690   4699   4701     1  0.0000000  0.6508444  3
   4688   4687   4680   4709     1  0.0000000  0.6508444  3
   4688   4687   4690   4699     1  0.0000000  0.6508444  3
   4688   4687   4690   4691     1  0.0000000  0.6508444  3
   4688   4687   4690   4692     1  0.0000000  0.6508444  3
   4689   4687   4680   4709     1  0.0000000  0.6508444  3
   4689   4687   4690   4699     1  0.0000000  0.6508444  3
   4689   4687   4690   4691     1  0.0000000  0.6508444  3
   4689   4687   4690   4692     1  0.0000000  0.6508444  3
   4690   4687   4680   4709     1  0.0000000  0.6508444  3
   4691   4690   4699   4708     1  0.0000000  1.0460000  1
   4691   4690   4699   4708     1  0.0000000  0.0000000  3
   4691   4690   4699   4700     1  0.0000000  0.6508444  3
   4691   4690   4699   4701     1  0.0000000  0.6508444  3
   4692   4690   4699   4708     1  0.0000000  1.0460000  1
   4692   4690   4699   4708     1  0.0000000  0.0000000  3
   4692   4690   4699   4700     1  0.0000000  0.6508444  3
   4692   4690   4699   4701     1  0.0000000  0.6508444  3
   4693   4681   4680   4709     1  0.0000000  0.6508444  3
   4694   4693   4705   8585     1  0.0000000  1.0460000  1
   4694   4693   4705   8585     1  0.0000000  0.0000000  3
   4694   4693   4705   4706     1  0.0000000  0.6508444  3
   4694   4693   4705   4707     1  0.0000000  0.6508444  3
   4695   4693   4705   8585     1  0.0000000  1.0460000  1
   4695   4693   4705   8585     1  0.0000000  0.0000000  3
   4695   4693   4705   4706     1  0.0000000  0.6508444  3
   4695   4693   4705   4707     1  0.0000000  0.6508444  3
   4696   4684   4680   4709     1  0.0000000  0.6508444  3
   4697   4696   4702   8562     1  0.0000000  1.0460000  1
   4697   4696   4702   8562     1  0.0000000  0.0000000  3
   4697   4696   4702   4703     1  0.0000000  0.6508444  3
   4697   4696   4702   4704     1  0.0000000  0.6508444  3
   4698   4696   4702   8562     1  0.0000000  1.0460000  1
   4698   4696   4702   8562     1  0.0000000  0.0000000  3
   4698   4696   4702   4703     1  0.0000000  0.6508444  3
   4698   4696   4702   4704     1  0.0000000  0.6508444  3
   4702   8562   8558   8561     1  0.0000000  1.6038667  3
   4703   4702   8562   8558     1  0.0000000  1.6038667  3
   4704   4702   8562   8558     1  0.0000000  1.6038667  3
   4705   8585   8581   8584     1  0.0000000  1.6038667  3
   4706   4705   8585   8581     1  0.0000000  1.6038667  3
   4707   4705   8585   8581     1  0.0000000  1.6038667  3
   4710   4711   4723   4724     1  0.0000000  0.6508444  3
   4710   4711   4723   4725     1  0.0000000  0.6508444  3
   4710   4714   4726   4727     1  0.0000000  0.6508444  3
   4710   4714   4726   4728     1  0.0000000  0.6508444  3
   4710   4717   4720   4721     1  0.0000000  0.6508444  3
   4710   4717   4720   4722     1  0.0000000  0.6508444  3
   4711   4710   4714   4715     1  0.0000000  0.6508444  3
   4711   4710   4714   4716     1  0.0000000  0.6508444  3
   4711   4710   4717   4718     1  0.0000000  0.6508444  3
   4711   4710   4717   4719     1  0.0000000  0.6508444  3
   4711   4723   4735   4736     1  0.0000000  0.6508444  3
   4711   4723   4735   4737     1  0.0000000  0.6508444  3
   4712   4711   4710   4714     1  0.0000000  0.6508444  3
   4712   4711   4710   4717     1  0.0000000  0.6508444  3
   4712   4711   4710   4739     1  0.0000000  0.6508444  3
   4712   4711   4723   4735     1  0.0000000  0.6508444  3
   4712   4711   4723   4724     1  0.0000000  0.6508444  3
   4712   4711   4723   4725     1  0.0000000  0.6508444  3
   4713   4711   4710   4714     1  0.0000000  0.6508444  3
   4713   4711   4710   4717     1  0.0000000  0.6508444  3
   4713   4711   4710   4739     1  0.0000000  0.6508444  3
   4713   4711   4723   4735     1  0.0000000  0.6508444  3
   4713   4711   4723   4724     1  0.0000000  0.6508444  3
   4713   4711   4723   4725     1  0.0000000  0.6508444  3
   4714   4710   4717   4718     1  0.0000000  0.6508444  3
   4714   4710   4717   4719     1  0.0000000  0.6508444  3
   4714   4726   4732   4733     1  0.0000000  0.6508444  3
   4714   4726   4732   4734     1  0.0000000  0.6508444  3
   4715   4714   4710   4717     1  0.0000000  0.6508444  3
   4715   4714   4710   4739     1  0.0000000  0.6508444  3
   4715   4714   4726   4732     1  0.0000000  0.6508444  3
   4715   4714   4726   4727     1  0.0000000  0.6508444  3
   4715   4714   4726   4728     1  0.0000000  0.6508444  3
   4716   4714   4710   4717     1  0.0000000  0.6508444  3
   4716   4714   4710   4739     1  0.0000000  0.6508444  3
   4716   4714   4726   4732     1  0.0000000  0.6508444  3
   4716   4714   4726   4727     1  0.0000000  0.6508444  3
   4716   4714   4726   4728     1  0.0000000  0.6508444  3
   4717   4720   4729   4730     1  0.0000000  0.6508444  3
   4717   4720   4729   4731     1  0.0000000  0.6508444  3
   4718   4717   4710   4739     1  0.0000000  0.6508444  3
   4718   4717   4720   4729     1  0.0000000  0.6508444  3
   4718   4717   4720   4721     1  0.0000000  0.6508444  3
   4718   4717   4720   4722     1  0.0000000  0.6508444  3
   4719   4717   4710   4739     1  0.0000000  0.6508444  3
   4719   4717   4720   4729     1  0.0000000  0.6508444  3
   4719   4717   4720   4721     1  0.0000000  0.6508444  3
   4719   4717   4720   4722     1  0.0000000  0.6508444  3
   4720   4717   4710   4739     1  0.0000000  0.6508444  3
   4721   4720   4729   4738     1  0.0000000  1.0460000  1
   4721   4720   4729   4738     1  0.0000000  0.0000000  3
   4721   4720   4729   4730     1  0.0000000  0.6508444  3
   4721   4720   4729   4731     1  0.0000000  0.6508444  3
   4722   4720   4729   4738     1  0.0000000  1.0460000  1
   4722   4720   4729   4738     1  0.0000000  0.0000000  3
   4722   4720   4729   4730     1  0.0000000  0.6508444  3
   4722   4720   4729   4731     1  0.0000000  0.6508444  3
   4723   4711   4710   4739     1  0.0000000  0.6508444  3
   4724   4723   4735   8631     1  0.0000000  1.0460000  1
   4724   4723   4735   8631     1  0.0000000  0.0000000  3
   4724   4723   4735   4736     1  0.0000000  0.6508444  3
   4724   4723   4735   4737     1  0.0000000  0.6508444  3
   4725   4723   4735   8631     1  0.0000000  1.0460000  1
   4725   4723   4735   8631     1  0.0000000  0.0000000  3
   4725   4723   4735   4736     1  0.0000000  0.6508444  3
   4725   4723   4735   4737     1  0.0000000  0.6508444  3
   4726   4714   4710   4739     1  0.0000000  0.6508444  3
   4727   4726   4732   8608     1  0.0000000  1.0460000  1
   4727   4726   4732   8608     1  0.0000000  0.0000000  3
   4727   4726   4732   4733     1  0.0000000  0.6508444  3
   4727   4726   4732   4734     1  0.0000000  0.6508444  3
   4728   4726   4732   8608     1  0.0000000  1.0460000  1
   4728   4726   4732   8608     1  0.0000000  0.0000000  3
   4728   4726   4732   4733     1  0.0000000  0.6508444  3
   4728   4726   4732   4734     1  0.0000000  0.6508444  3
   4732   8608   8604   8607     1  0.0000000  1.6038667  3
   4733   4732   8608   8604     1  0.0000000  1.6038667  3
   4734   4732   8608   8604     1  0.0000000  1.6038667  3
   4735   8631   8627   8630     1  0.0000000  1.6038667  3
   4736   4735   8631   8627     1  0.0000000  1.6038667  3
   4737   4735   8631   8627     1  0.0000000  1.6038667  3
   4740   4741   4753   4754     1  0.0000000  0.6508444  3
   4740   4741   4753   4755     1  0.0000000  0.6508444  3
   4740   4744   4756   4757     1  0.0000000  0.6508444  3
   4740   4744   4756   4758     1  0.0000000  0.6508444  3
   4740   4747   4750   4751     1  0.0000000  0.6508444  3
   4740   4747   4750   4752     1  0.0000000  0.6508444  3
   4741   4740   4744   4745     1  0.0000000  0.6508444  3
   4741   4740   4744   4746     1  0.0000000  0.6508444  3
   4741   4740   4747   4748     1  0.0000000  0.6508444  3
   4741   4740   4747   4749     1  0.0000000  0.6508444  3
   4741   4753   4765   4766     1  0.0000000  0.6508444  3
   4741   4753   4765   4767     1  0.0000000  0.6508444  3
   4742   4741   4740   4744     1  0.0000000  0.6508444  3
   4742   4741   4740   4747     1  0.0000000  0.6508444  3
   4742   4741   4740   4769     1  0.0000000  0.6508444  3
   4742   4741   4753   4765     1  0.0000000  0.6508444  3
   4742   4741   4753   4754     1  0.0000000  0.6508444  3
   4742   4741   4753   4755     1  0.0000000  0.6508444  3
   4743   4741   4740   4744     1  0.0000000  0.6508444  3
   4743   4741   4740   4747     1  0.0000000  0.6508444  3
   4743   4741   4740   4769     1  0.0000000  0.6508444  3
   4743   4741   4753   4765     1  0.0000000  0.6508444  3
   4743   4741   4753   4754     1  0.0000000  0.6508444  3
   4743   4741   4753   4755     1  0.0000000  0.6508444  3
   4744   4740   4747   4748     1  0.0000000  0.6508444  3
   4744   4740   4747   4749     1  0.0000000  0.6508444  3
   4744   4756   4762   4763     1  0.0000000  0.6508444  3
   4744   4756   4762   4764     1  0.0000000  0.6508444  3
   4745   4744   4740   4747     1  0.0000000  0.6508444  3
   4745   4744   4740   4769     1  0.0000000  0.6508444  3
   4745   4744   4756   4762     1  0.0000000  0.6508444  3
   4745   4744   4756   4757     1  0.0000000  0.6508444  3
   4745   4744   4756   4758     1  0.0000000  0.6508444  3
   4746   4744   4740   4747     1  0.0000000  0.6508444  3
   4746   4744   4740   4769     1  0.0000000  0.6508444  3
   4746   4744   4756   4762     1  0.0000000  0.6508444  3
   4746   4744   4756   4757     1  0.0000000  0.6508444  3
   4746   4744   4756   4758     1  0.0000000  0.6508444  3
   4747   4750   4759   4760     1  0.0000000  0.6508444  3
   4747   4750   4759   4761     1  0.0000000  0.6508444  3
   4748   4747   4740   4769     1  0.0000000  0.6508444  3
   4748   4747   4750   4759     1  0.0000000  0.6508444  3
   4748   4747   4750   4751     1  0.0000000  0.6508444  3
   4748   4747   4750   4752     1  0.0000000  0.6508444  3
   4749   4747   4740   4769     1  0.0000000  0.6508444  3
   4749   4747   4750   4759     1  0.0000000  0.6508444  3
   4749   4747   4750   4751     1  0.0000000  0.6508444  3
   4749   4747   4750   4752     1  0.0000000  0.6508444  3
   4750   4747   4740   4769     1  0.0000000  0.6508444  3
   4751   4750   4759   4768     1  0.0000000  1.0460000  1
   4751   4750   4759   4768     1  0.0000000  0.0000000  3
   4751   4750   4759   4760     1  0.0000000  0.6508444  3
   4751   4750   4759   4761     1  0.0000000  0.6508444  3
   4752   4750   4759   4768     1  0.0000000  1.0460000  1
   4752   4750   4759   4768     1  0.0000000  0.0000000  3
   4752   4750   4759   4760     1  0.0000000  0.6508444  3
   4752   4750   4759   4761     1  0.0000000  0.6508444  3
   4753   4741   4740   4769     1  0.0000000  0.6508444  3
   4754   4753   4765   8677     1  0.0000000  1.0460000  1
   4754   4753   4765   8677     1  0.0000000  0.0000000  3
   4754   4753   4765   4766     1  0.0000000  0.6508444  3
   4754   4753   4765   4767     1  0.0000000  0.6508444  3
   4755   4753   4765   8677     1  0.0000000  1.0460000  1
   4755   4753   4765   8677     1  0.0000000  0.0000000  3
   4755   4753   4765   4766     1  0.0000000  0.6508444  3
   4755   4753   4765   4767     1  0.0000000  0.6508444  3
   4756   4744   4740   4769     1  0.0000000  0.6508444  3
   4757   4756   4762   8654     1  0.0000000  1.0460000  1
   4757   4756   4762   8654     1  0.0000000  0.0000000  3
   4757   4756   4762   4763     1  0.0000000  0.6508444  3
   4757   4756   4762   4764     1  0.0000000  0.6508444  3
   4758   4756   4762   8654     1  0.0000000  1.0460000  1
   4758   4756   4762   8654     1  0.0000000  0.0000000  3
   4758   4756   4762   4763     1  0.0000000  0.6508444  3
   4758   4756   4762   4764     1  0.0000000  0.6508444  3
   4762   8654   8650   8653     1  0.0000000  1.6038667  3
   4763   4762   8654   8650     1  0.0000000  1.6038667  3
   4764   4762   8654   8650     1  0.0000000  1.6038667  3
   4765   8677   8673   8676     1  0.0000000  1.6038667  3
   4766   4765   8677   8673     1  0.0000000  1.6038667  3
   4767   4765   8677   8673     1  0.0000000  1.6038667  3
   4770   4771   4783   4784     1  0.0000000  0.6508444  3
   4770   4771   4783   4785     1  0.0000000  0.6508444  3
   4770   4774   4786   4787     1  0.0000000  0.6508444  3
   4770   4774   4786   4788     1  0.0000000  0.6508444  3
   4770   4777   4780   4781     1  0.0000000  0.6508444  3
   4770   4777   4780   4782     1  0.0000000  0.6508444  3
   4771   4770   4774   4775     1  0.0000000  0.6508444  3
   4771   4770   4774   4776     1  0.0000000  0.6508444  3
   4771   4770   4777   4778     1  0.0000000  0.6508444  3
   4771   4770   4777   4779     1  0.0000000  0.6508444  3
   4771   4783   4795   4796     1  0.0000000  0.6508444  3
   4771   4783   4795   4797     1  0.0000000  0.6508444  3
   4772   4771   4770   4774     1  0.0000000  0.6508444  3
   4772   4771   4770   4777     1  0.0000000  0.6508444  3
   4772   4771   4770   4799     1  0.0000000  0.6508444  3
   4772   4771   4783   4795     1  0.0000000  0.6508444  3
   4772   4771   4783   4784     1  0.0000000  0.6508444  3
   4772   4771   4783   4785     1  0.0000000  0.6508444  3
   4773   4771   4770   4774     1  0.0000000  0.6508444  3
   4773   4771   4770   4777     1  0.0000000  0.6508444  3
   4773   4771   4770   4799     1  0.0000000  0.6508444  3
   4773   4771   4783   4795     1  0.0000000  0.6508444  3
   4773   4771   4783   4784     1  0.0000000  0.6508444  3
   4773   4771   4783   4785     1  0.0000000  0.6508444  3
   4774   4770   4777   4778     1  0.0000000  0.6508444  3
   4774   4770   4777   4779     1  0.0000000  0.6508444  3
   4774   4786   4792   4793     1  0.0000000  0.6508444  3
   4774   4786   4792   4794     1  0.0000000  0.6508444  3
   4775   4774   4770   4777     1  0.0000000  0.6508444  3
   4775   4774   4770   4799     1  0.0000000  0.6508444  3
   4775   4774   4786   4792     1  0.0000000  0.6508444  3
   4775   4774   4786   4787     1  0.0000000  0.6508444  3
   4775   4774   4786   4788     1  0.0000000  0.6508444  3
   4776   4774   4770   4777     1  0.0000000  0.6508444  3
   4776   4774   4770   4799     1  0.0000000  0.6508444  3
   4776   4774   4786   4792     1  0.0000000  0.6508444  3
   4776   4774   4786   4787     1  0.0000000  0.6508444  3
   4776   4774   4786   4788     1  0.0000000  0.6508444  3
   4777   4780   4789   4790     1  0.0000000  0.6508444  3
   4777   4780   4789   4791     1  0.0000000  0.6508444  3
   4778   4777   4770   4799     1  0.0000000  0.6508444  3
   4778   4777   4780   4789     1  0.0000000  0.6508444  3
   4778   4777   4780   4781     1  0.0000000  0.6508444  3
   4778   4777   4780   4782     1  0.0000000  0.6508444  3
   4779   4777   4770   4799     1  0.0000000  0.6508444  3
   4779   4777   4780   4789     1  0.0000000  0.6508444  3
   4779   4777   4780   4781     1  0.0000000  0.6508444  3
   4779   4777   4780   4782     1  0.0000000  0.6508444  3
   4780   4777   4770   4799     1  0.0000000  0.6508444  3
   4781   4780   4789   4798     1  0.0000000  1.0460000  1
   4781   4780   4789   4798     1  0.0000000  0.0000000  3
   4781   4780   4789   4790     1  0.0000000  0.6508444  3
   4781   4780   4789   4791     1  0.0000000  0.6508444  3
   4782   4780   4789   4798     1  0.0000000  1.0460000  1
   4782   4780   4789   4798     1  0.0000000  0.0000000  3
   4782   4780   4789   4790     1  0.0000000  0.6508444  3
   4782   4780   4789   4791     1  0.0000000  0.6508444  3
   4783   4771   4770   4799     1  0.0000000  0.6508444  3
   4784   4783   4795   8723     1  0.0000000  1.0460000  1
   4784   4783   4795   8723     1  0.0000000  0.0000000  3
   4784   4783   4795   4796     1  0.0000000  0.6508444  3
   4784   4783   4795   4797     1  0.0000000  0.6508444  3
   4785   4783   4795   8723     1  0.0000000  1.0460000  1
   4785   4783   4795   8723     1  0.0000000  0.0000000  3
   4785   4783   4795   4796     1  0.0000000  0.6508444  3
   4785   4783   4795   4797     1  0.0000000  0.6508444  3
   4786   4774   4770   4799     1  0.0000000  0.6508444  3
   4787   4786   4792   8700     1  0.0000000  1.0460000  1
   4787   4786   4792   8700     1  0.0000000  0.0000000  3
   4787   4786   4792   4793     1  0.0000000  0.6508444  3
   4787   4786   4792   4794     1  0.0000000  0.6508444  3
   4788   4786   4792   8700     1  0.0000000  1.0460000  1
   4788   4786   4792   8700     1  0.0000000  0.0000000  3
   4788   4786   4792   4793     1  0.0000000  0.6508444  3
   4788   4786   4792   4794     1  0.0000000  0.6508444  3
   4792   8700   8696   8699     1  0.0000000  1.6038667  3
   4793   4792   8700   8696     1  0.0000000  1.6038667  3
   4794   4792   8700   8696     1  0.0000000  1.6038667  3
   4795   8723   8719   8722     1  0.0000000  1.6038667  3
   4796   4795   8723   8719     1  0.0000000  1.6038667  3
   4797   4795   8723   8719     1  0.0000000  1.6038667  3
   4800   4801   4813   4814     1  0.0000000  0.6508444  3
   4800   4801   4813   4815     1  0.0000000  0.6508444  3
   4800   4804   4816   4817     1  0.0000000  0.6508444  3
   4800   4804   4816   4818     1  0.0000000  0.6508444  3
   4800   4807   4810   4811     1  0.0000000  0.6508444  3
   4800   4807   4810   4812     1  0.0000000  0.6508444  3
   4801   4800   4804   4805     1  0.0000000  0.6508444  3
   4801   4800   4804   4806     1  0.0000000  0.6508444  3
   4801   4800   4807   4808     1  0.0000000  0.6508444  3
   4801   4800   4807   4809     1  0.0000000  0.6508444  3
   4801   4813   4825   4826     1  0.0000000  0.6508444  3
   4801   4813   4825   4827     1  0.0000000  0.6508444  3
   4802   4801   4800   4804     1  0.0000000  0.6508444  3
   4802   4801   4800   4807     1  0.0000000  0.6508444  3
   4802   4801   4800   4829     1  0.0000000  0.6508444  3
   4802   4801   4813   4825     1  0.0000000  0.6508444  3
   4802   4801   4813   4814     1  0.0000000  0.6508444  3
   4802   4801   4813   4815     1  0.0000000  0.6508444  3
   4803   4801   4800   4804     1  0.0000000  0.6508444  3
   4803   4801   4800   4807     1  0.0000000  0.6508444  3
   4803   4801   4800   4829     1  0.0000000  0.6508444  3
   4803   4801   4813   4825     1  0.0000000  0.6508444  3
   4803   4801   4813   4814     1  0.0000000  0.6508444  3
   4803   4801   4813   4815     1  0.0000000  0.6508444  3
   4804   4800   4807   4808     1  0.0000000  0.6508444  3
   4804   4800   4807   4809     1  0.0000000  0.6508444  3
   4804   4816   4822   4823     1  0.0000000  0.6508444  3
   4804   4816   4822   4824     1  0.0000000  0.6508444  3
   4805   4804   4800   4807     1  0.0000000  0.6508444  3
   4805   4804   4800   4829     1  0.0000000  0.6508444  3
   4805   4804   4816   4822     1  0.0000000  0.6508444  3
   4805   4804   4816   4817     1  0.0000000  0.6508444  3
   4805   4804   4816   4818     1  0.0000000  0.6508444  3
   4806   4804   4800   4807     1  0.0000000  0.6508444  3
   4806   4804   4800   4829     1  0.0000000  0.6508444  3
   4806   4804   4816   4822     1  0.0000000  0.6508444  3
   4806   4804   4816   4817     1  0.0000000  0.6508444  3
   4806   4804   4816   4818     1  0.0000000  0.6508444  3
   4807   4810   4819   4820     1  0.0000000  0.6508444  3
   4807   4810   4819   4821     1  0.0000000  0.6508444  3
   4808   4807   4800   4829     1  0.0000000  0.6508444  3
   4808   4807   4810   4819     1  0.0000000  0.6508444  3
   4808   4807   4810   4811     1  0.0000000  0.6508444  3
   4808   4807   4810   4812     1  0.0000000  0.6508444  3
   4809   4807   4800   4829     1  0.0000000  0.6508444  3
   4809   4807   4810   4819     1  0.0000000  0.6508444  3
   4809   4807   4810   4811     1  0.0000000  0.6508444  3
   4809   4807   4810   4812     1  0.0000000  0.6508444  3
   4810   4807   4800   4829     1  0.0000000  0.6508444  3
   4811   4810   4819   4828     1  0.0000000  1.0460000  1
   4811   4810   4819   4828     1  0.0000000  0.0000000  3
   4811   4810   4819   4820     1  0.0000000  0.6508444  3
   4811   4810   4819   4821     1  0.0000000  0.6508444  3
   4812   4810   4819   4828     1  0.0000000  1.0460000  1
   4812   4810   4819   4828     1  0.0000000  0.0000000  3
   4812   4810   4819   4820     1  0.0000000  0.6508444  3
   4812   4810   4819   4821     1  0.0000000  0.6508444  3
   4813   4801   4800   4829     1  0.0000000  0.6508444  3
   4814   4813   4825   8769     1  0.0000000  1.0460000  1
   4814   4813   4825   8769     1  0.0000000  0.0000000  3
   4814   4813   4825   4826     1  0.0000000  0.6508444  3
   4814   4813   4825   4827     1  0.0000000  0.6508444  3
   4815   4813   4825   8769     1  0.0000000  1.0460000  1
   4815   4813   4825   8769     1  0.0000000  0.0000000  3
   4815   4813   4825   4826     1  0.0000000  0.6508444  3
   4815   4813   4825   4827     1  0.0000000  0.6508444  3
   4816   4804   4800   4829     1  0.0000000  0.6508444  3
   4817   4816   4822   8746     1  0.0000000  1.0460000  1
   4817   4816   4822   8746     1  0.0000000  0.0000000  3
   4817   4816   4822   4823     1  0.0000000  0.6508444  3
   4817   4816   4822   4824     1  0.0000000  0.6508444  3
   4818   4816   4822   8746     1  0.0000000  1.0460000  1
   4818   4816   4822   8746     1  0.0000000  0.0000000  3
   4818   4816   4822   4823     1  0.0000000  0.6508444  3
   4818   4816   4822   4824     1  0.0000000  0.6508444  3
   4822   8746   8742   8745     1  0.0000000  1.6038667  3
   4823   4822   8746   8742     1  0.0000000  1.6038667  3
   4824   4822   8746   8742     1  0.0000000  1.6038667  3
   4825   8769   8765   8768     1  0.0000000  1.6038667  3
   4826   4825   8769   8765     1  0.0000000  1.6038667  3
   4827   4825   8769   8765     1  0.0000000  1.6038667  3
   4830   4831   4843   4844     1  0.0000000  0.6508444  3
   4830   4831   4843   4845     1  0.0000000  0.6508444  3
   4830   4834   4846   4847     1  0.0000000  0.6508444  3
   4830   4834   4846   4848     1  0.0000000  0.6508444  3
   4830   4837   4840   4841     1  0.0000000  0.6508444  3
   4830   4837   4840   4842     1  0.0000000  0.6508444  3
   4831   4830   4834   4835     1  0.0000000  0.6508444  3
   4831   4830   4834   4836     1  0.0000000  0.6508444  3
   4831   4830   4837   4838     1  0.0000000  0.6508444  3
   4831   4830   4837   4839     1  0.0000000  0.6508444  3
   4831   4843   4855   4856     1  0.0000000  0.6508444  3
   4831   4843   4855   4857     1  0.0000000  0.6508444  3
   4832   4831   4830   4834     1  0.0000000  0.6508444  3
   4832   4831   4830   4837     1  0.0000000  0.6508444  3
   4832   4831   4830   4859     1  0.0000000  0.6508444  3
   4832   4831   4843   4855     1  0.0000000  0.6508444  3
   4832   4831   4843   4844     1  0.0000000  0.6508444  3
   4832   4831   4843   4845     1  0.0000000  0.6508444  3
   4833   4831   4830   4834     1  0.0000000  0.6508444  3
   4833   4831   4830   4837     1  0.0000000  0.6508444  3
   4833   4831   4830   4859     1  0.0000000  0.6508444  3
   4833   4831   4843   4855     1  0.0000000  0.6508444  3
   4833   4831   4843   4844     1  0.0000000  0.6508444  3
   4833   4831   4843   4845     1  0.0000000  0.6508444  3
   4834   4830   4837   4838     1  0.0000000  0.6508444  3
   4834   4830   4837   4839     1  0.0000000  0.6508444  3
   4834   4846   4852   4853     1  0.0000000  0.6508444  3
   4834   4846   4852   4854     1  0.0000000  0.6508444  3
   4835   4834   4830   4837     1  0.0000000  0.6508444  3
   4835   4834   4830   4859     1  0.0000000  0.6508444  3
   4835   4834   4846   4852     1  0.0000000  0.6508444  3
   4835   4834   4846   4847     1  0.0000000  0.6508444  3
   4835   4834   4846   4848     1  0.0000000  0.6508444  3
   4836   4834   4830   4837     1  0.0000000  0.6508444  3
   4836   4834   4830   4859     1  0.0000000  0.6508444  3
   4836   4834   4846   4852     1  0.0000000  0.6508444  3
   4836   4834   4846   4847     1  0.0000000  0.6508444  3
   4836   4834   4846   4848     1  0.0000000  0.6508444  3
   4837   4840   4849   4850     1  0.0000000  0.6508444  3
   4837   4840   4849   4851     1  0.0000000  0.6508444  3
   4838   4837   4830   4859     1  0.0000000  0.6508444  3
   4838   4837   4840   4849     1  0.0000000  0.6508444  3
   4838   4837   4840   4841     1  0.0000000  0.6508444  3
   4838   4837   4840   4842     1  0.0000000  0.6508444  3
   4839   4837   4830   4859     1  0.0000000  0.6508444  3
   4839   4837   4840   4849     1  0.0000000  0.6508444  3
   4839   4837   4840   4841     1  0.0000000  0.6508444  3
   4839   4837   4840   4842     1  0.0000000  0.6508444  3
   4840   4837   4830   4859     1  0.0000000  0.6508444  3
   4841   4840   4849   4858     1  0.0000000  1.0460000  1
   4841   4840   4849   4858     1  0.0000000  0.0000000  3
   4841   4840   4849   4850     1  0.0000000  0.6508444  3
   4841   4840   4849   4851     1  0.0000000  0.6508444  3
   4842   4840   4849   4858     1  0.0000000  1.0460000  1
   4842   4840   4849   4858     1  0.0000000  0.0000000  3
   4842   4840   4849   4850     1  0.0000000  0.6508444  3
   4842   4840   4849   4851     1  0.0000000  0.6508444  3
   4843   4831   4830   4859     1  0.0000000  0.6508444  3
   4844   4843   4855   8815     1  0.0000000  1.0460000  1
   4844   4843   4855   8815     1  0.0000000  0.0000000  3
   4844   4843   4855   4856     1  0.0000000  0.6508444  3
   4844   4843   4855   4857     1  0.0000000  0.6508444  3
   4845   4843   4855   8815     1  0.0000000  1.0460000  1
   4845   4843   4855   8815     1  0.0000000  0.0000000  3
   4845   4843   4855   4856     1  0.0000000  0.6508444  3
   4845   4843   4855   4857     1  0.0000000  0.6508444  3
   4846   4834   4830   4859     1  0.0000000  0.6508444  3
   4847   4846   4852   8792     1  0.0000000  1.0460000  1
   4847   4846   4852   8792     1  0.0000000  0.0000000  3
   4847   4846   4852   4853     1  0.0000000  0.6508444  3
   4847   4846   4852   4854     1  0.0000000  0.6508444  3
   4848   4846   4852   8792     1  0.0000000  1.0460000  1
   4848   4846   4852   8792     1  0.0000000  0.0000000  3
   4848   4846   4852   4853     1  0.0000000  0.6508444  3
   4848   4846   4852   4854     1  0.0000000  0.6508444  3
   4852   8792   8788   8791     1  0.0000000  1.6038667  3
   4853   4852   8792   8788     1  0.0000000  1.6038667  3
   4854   4852   8792   8788     1  0.0000000  1.6038667  3
   4855   8815   8811   8814     1  0.0000000  1.6038667  3
   4856   4855   8815   8811     1  0.0000000  1.6038667  3
   4857   4855   8815   8811     1  0.0000000  1.6038667  3
   4860   4861   4873   4874     1  0.0000000  0.6508444  3
   4860   4861   4873   4875     1  0.0000000  0.6508444  3
   4860   4864   4876   4877     1  0.0000000  0.6508444  3
   4860   4864   4876   4878     1  0.0000000  0.6508444  3
   4860   4867   4870   4871     1  0.0000000  0.6508444  3
   4860   4867   4870   4872     1  0.0000000  0.6508444  3
   4861   4860   4864   4865     1  0.0000000  0.6508444  3
   4861   4860   4864   4866     1  0.0000000  0.6508444  3
   4861   4860   4867   4868     1  0.0000000  0.6508444  3
   4861   4860   4867   4869     1  0.0000000  0.6508444  3
   4861   4873   4885   4886     1  0.0000000  0.6508444  3
   4861   4873   4885   4887     1  0.0000000  0.6508444  3
   4862   4861   4860   4864     1  0.0000000  0.6508444  3
   4862   4861   4860   4867     1  0.0000000  0.6508444  3
   4862   4861   4860   4889     1  0.0000000  0.6508444  3
   4862   4861   4873   4885     1  0.0000000  0.6508444  3
   4862   4861   4873   4874     1  0.0000000  0.6508444  3
   4862   4861   4873   4875     1  0.0000000  0.6508444  3
   4863   4861   4860   4864     1  0.0000000  0.6508444  3
   4863   4861   4860   4867     1  0.0000000  0.6508444  3
   4863   4861   4860   4889     1  0.0000000  0.6508444  3
   4863   4861   4873   4885     1  0.0000000  0.6508444  3
   4863   4861   4873   4874     1  0.0000000  0.6508444  3
   4863   4861   4873   4875     1  0.0000000  0.6508444  3
   4864   4860   4867   4868     1  0.0000000  0.6508444  3
   4864   4860   4867   4869     1  0.0000000  0.6508444  3
   4864   4876   4882   4883     1  0.0000000  0.6508444  3
   4864   4876   4882   4884     1  0.0000000  0.6508444  3
   4865   4864   4860   4867     1  0.0000000  0.6508444  3
   4865   4864   4860   4889     1  0.0000000  0.6508444  3
   4865   4864   4876   4882     1  0.0000000  0.6508444  3
   4865   4864   4876   4877     1  0.0000000  0.6508444  3
   4865   4864   4876   4878     1  0.0000000  0.6508444  3
   4866   4864   4860   4867     1  0.0000000  0.6508444  3
   4866   4864   4860   4889     1  0.0000000  0.6508444  3
   4866   4864   4876   4882     1  0.0000000  0.6508444  3
   4866   4864   4876   4877     1  0.0000000  0.6508444  3
   4866   4864   4876   4878     1  0.0000000  0.6508444  3
   4867   4870   4879   4880     1  0.0000000  0.6508444  3
   4867   4870   4879   4881     1  0.0000000  0.6508444  3
   4868   4867   4860   4889     1  0.0000000  0.6508444  3
   4868   4867   4870   4879     1  0.0000000  0.6508444  3
   4868   4867   4870   4871     1  0.0000000  0.6508444  3
   4868   4867   4870   4872     1  0.0000000  0.6508444  3
   4869   4867   4860   4889     1  0.0000000  0.6508444  3
   4869   4867   4870   4879     1  0.0000000  0.6508444  3
   4869   4867   4870   4871     1  0.0000000  0.6508444  3
   4869   4867   4870   4872     1  0.0000000  0.6508444  3
   4870   4867   4860   4889     1  0.0000000  0.6508444  3
   4871   4870   4879   4888     1  0.0000000  1.0460000  1
   4871   4870   4879   4888     1  0.0000000  0.0000000  3
   4871   4870   4879   4880     1  0.0000000  0.6508444  3
   4871   4870   4879   4881     1  0.0000000  0.6508444  3
   4872   4870   4879   4888     1  0.0000000  1.0460000  1
   4872   4870   4879   4888     1  0.0000000  0.0000000  3
   4872   4870   4879   4880     1  0.0000000  0.6508444  3
   4872   4870   4879   4881     1  0.0000000  0.6508444  3
   4873   4861   4860   4889     1  0.0000000  0.6508444  3
   4874   4873   4885   8861     1  0.0000000  1.0460000  1
   4874   4873   4885   8861     1  0.0000000  0.0000000  3
   4874   4873   4885   4886     1  0.0000000  0.6508444  3
   4874   4873   4885   4887     1  0.0000000  0.6508444  3
   4875   4873   4885   8861     1  0.0000000  1.0460000  1
   4875   4873   4885   8861     1  0.0000000  0.0000000  3
   4875   4873   4885   4886     1  0.0000000  0.6508444  3
   4875   4873   4885   4887     1  0.0000000  0.6508444  3
   4876   4864   4860   4889     1  0.0000000  0.6508444  3
   4877   4876   4882   8838     1  0.0000000  1.0460000  1
   4877   4876   4882   8838     1  0.0000000  0.0000000  3
   4877   4876   4882   4883     1  0.0000000  0.6508444  3
   4877   4876   4882   4884     1  0.0000000  0.6508444  3
   4878   4876   4882   8838     1  0.0000000  1.0460000  1
   4878   4876   4882   8838     1  0.0000000  0.0000000  3
   4878   4876   4882   4883     1  0.0000000  0.6508444  3
   4878   4876   4882   4884     1  0.0000000  0.6508444  3
   4882   8838   8834   8837     1  0.0000000  1.6038667  3
   4883   4882   8838   8834     1  0.0000000  1.6038667  3
   4884   4882   8838   8834     1  0.0000000  1.6038667  3
   4885   8861   8857   8860     1  0.0000000  1.6038667  3
   4886   4885   8861   8857     1  0.0000000  1.6038667  3
   4887   4885   8861   8857     1  0.0000000  1.6038667  3
   4890   4891   4903   4904     1  0.0000000  0.6508444  3
   4890   4891   4903   4905     1  0.0000000  0.6508444  3
   4890   4894   4906   4907     1  0.0000000  0.6508444  3
   4890   4894   4906   4908     1  0.0000000  0.6508444  3
   4890   4897   4900   4901     1  0.0000000  0.6508444  3
   4890   4897   4900   4902     1  0.0000000  0.6508444  3
   4891   4890   4894   4895     1  0.0000000  0.6508444  3
   4891   4890   4894   4896     1  0.0000000  0.6508444  3
   4891   4890   4897   4898     1  0.0000000  0.6508444  3
   4891   4890   4897   4899     1  0.0000000  0.6508444  3
   4891   4903   4915   4916     1  0.0000000  0.6508444  3
   4891   4903   4915   4917     1  0.0000000  0.6508444  3
   4892   4891   4890   4894     1  0.0000000  0.6508444  3
   4892   4891   4890   4897     1  0.0000000  0.6508444  3
   4892   4891   4890   4919     1  0.0000000  0.6508444  3
   4892   4891   4903   4915     1  0.0000000  0.6508444  3
   4892   4891   4903   4904     1  0.0000000  0.6508444  3
   4892   4891   4903   4905     1  0.0000000  0.6508444  3
   4893   4891   4890   4894     1  0.0000000  0.6508444  3
   4893   4891   4890   4897     1  0.0000000  0.6508444  3
   4893   4891   4890   4919     1  0.0000000  0.6508444  3
   4893   4891   4903   4915     1  0.0000000  0.6508444  3
   4893   4891   4903   4904     1  0.0000000  0.6508444  3
   4893   4891   4903   4905     1  0.0000000  0.6508444  3
   4894   4890   4897   4898     1  0.0000000  0.6508444  3
   4894   4890   4897   4899     1  0.0000000  0.6508444  3
   4894   4906   4912   4913     1  0.0000000  0.6508444  3
   4894   4906   4912   4914     1  0.0000000  0.6508444  3
   4895   4894   4890   4897     1  0.0000000  0.6508444  3
   4895   4894   4890   4919     1  0.0000000  0.6508444  3
   4895   4894   4906   4912     1  0.0000000  0.6508444  3
   4895   4894   4906   4907     1  0.0000000  0.6508444  3
   4895   4894   4906   4908     1  0.0000000  0.6508444  3
   4896   4894   4890   4897     1  0.0000000  0.6508444  3
   4896   4894   4890   4919     1  0.0000000  0.6508444  3
   4896   4894   4906   4912     1  0.0000000  0.6508444  3
   4896   4894   4906   4907     1  0.0000000  0.6508444  3
   4896   4894   4906   4908     1  0.0000000  0.6508444  3
   4897   4900   4909   4910     1  0.0000000  0.6508444  3
   4897   4900   4909   4911     1  0.0000000  0.6508444  3
   4898   4897   4890   4919     1  0.0000000  0.6508444  3
   4898   4897   4900   4909     1  0.0000000  0.6508444  3
   4898   4897   4900   4901     1  0.0000000  0.6508444  3
   4898   4897   4900   4902     1  0.0000000  0.6508444  3
   4899   4897   4890   4919     1  0.0000000  0.6508444  3
   4899   4897   4900   4909     1  0.0000000  0.6508444  3
   4899   4897   4900   4901     1  0.0000000  0.6508444  3
   4899   4897   4900   4902     1  0.0000000  0.6508444  3
   4900   4897   4890   4919     1  0.0000000  0.6508444  3
   4901   4900   4909   4918     1  0.0000000  1.0460000  1
   4901   4900   4909   4918     1  0.0000000  0.0000000  3
   4901   4900   4909   4910     1  0.0000000  0.6508444  3
   4901   4900   4909   4911     1  0.0000000  0.6508444  3
   4902   4900   4909   4918     1  0.0000000  1.0460000  1
   4902   4900   4909   4918     1  0.0000000  0.0000000  3
   4902   4900   4909   4910     1  0.0000000  0.6508444  3
   4902   4900   4909   4911     1  0.0000000  0.6508444  3
   4903   4891   4890   4919     1  0.0000000  0.6508444  3
   4904   4903   4915   8907     1  0.0000000  1.0460000  1
   4904   4903   4915   8907     1  0.0000000  0.0000000  3
   4904   4903   4915   4916     1  0.0000000  0.6508444  3
   4904   4903   4915   4917     1  0.0000000  0.6508444  3
   4905   4903   4915   8907     1  0.0000000  1.0460000  1
   4905   4903   4915   8907     1  0.0000000  0.0000000  3
   4905   4903   4915   4916     1  0.0000000  0.6508444  3
   4905   4903   4915   4917     1  0.0000000  0.6508444  3
   4906   4894   4890   4919     1  0.0000000  0.6508444  3
   4907   4906   4912   8884     1  0.0000000  1.0460000  1
   4907   4906   4912   8884     1  0.0000000  0.0000000  3
   4907   4906   4912   4913     1  0.0000000  0.6508444  3
   4907   4906   4912   4914     1  0.0000000  0.6508444  3
   4908   4906   4912   8884     1  0.0000000  1.0460000  1
   4908   4906   4912   8884     1  0.0000000  0.0000000  3
   4908   4906   4912   4913     1  0.0000000  0.6508444  3
   4908   4906   4912   4914     1  0.0000000  0.6508444  3
   4912   8884   8880   8883     1  0.0000000  1.6038667  3
   4913   4912   8884   8880     1  0.0000000  1.6038667  3
   4914   4912   8884   8880     1  0.0000000  1.6038667  3
   4915   8907   8903   8906     1  0.0000000  1.6038667  3
   4916   4915   8907   8903     1  0.0000000  1.6038667  3
   4917   4915   8907   8903     1  0.0000000  1.6038667  3
   4920   4921   4933   4934     1  0.0000000  0.6508444  3
   4920   4921   4933   4935     1  0.0000000  0.6508444  3
   4920   4924   4936   4937     1  0.0000000  0.6508444  3
   4920   4924   4936   4938     1  0.0000000  0.6508444  3
   4920   4927   4930   4931     1  0.0000000  0.6508444  3
   4920   4927   4930   4932     1  0.0000000  0.6508444  3
   4921   4920   4924   4925     1  0.0000000  0.6508444  3
   4921   4920   4924   4926     1  0.0000000  0.6508444  3
   4921   4920   4927   4928     1  0.0000000  0.6508444  3
   4921   4920   4927   4929     1  0.0000000  0.6508444  3
   4921   4933   4945   4946     1  0.0000000  0.6508444  3
   4921   4933   4945   4947     1  0.0000000  0.6508444  3
   4922   4921   4920   4924     1  0.0000000  0.6508444  3
   4922   4921   4920   4927     1  0.0000000  0.6508444  3
   4922   4921   4920   4949     1  0.0000000  0.6508444  3
   4922   4921   4933   4945     1  0.0000000  0.6508444  3
   4922   4921   4933   4934     1  0.0000000  0.6508444  3
   4922   4921   4933   4935     1  0.0000000  0.6508444  3
   4923   4921   4920   4924     1  0.0000000  0.6508444  3
   4923   4921   4920   4927     1  0.0000000  0.6508444  3
   4923   4921   4920   4949     1  0.0000000  0.6508444  3
   4923   4921   4933   4945     1  0.0000000  0.6508444  3
   4923   4921   4933   4934     1  0.0000000  0.6508444  3
   4923   4921   4933   4935     1  0.0000000  0.6508444  3
   4924   4920   4927   4928     1  0.0000000  0.6508444  3
   4924   4920   4927   4929     1  0.0000000  0.6508444  3
   4924   4936   4942   4943     1  0.0000000  0.6508444  3
   4924   4936   4942   4944     1  0.0000000  0.6508444  3
   4925   4924   4920   4927     1  0.0000000  0.6508444  3
   4925   4924   4920   4949     1  0.0000000  0.6508444  3
   4925   4924   4936   4942     1  0.0000000  0.6508444  3
   4925   4924   4936   4937     1  0.0000000  0.6508444  3
   4925   4924   4936   4938     1  0.0000000  0.6508444  3
   4926   4924   4920   4927     1  0.0000000  0.6508444  3
   4926   4924   4920   4949     1  0.0000000  0.6508444  3
   4926   4924   4936   4942     1  0.0000000  0.6508444  3
   4926   4924   4936   4937     1  0.0000000  0.6508444  3
   4926   4924   4936   4938     1  0.0000000  0.6508444  3
   4927   4930   4939   4940     1  0.0000000  0.6508444  3
   4927   4930   4939   4941     1  0.0000000  0.6508444  3
   4928   4927   4920   4949     1  0.0000000  0.6508444  3
   4928   4927   4930   4939     1  0.0000000  0.6508444  3
   4928   4927   4930   4931     1  0.0000000  0.6508444  3
   4928   4927   4930   4932     1  0.0000000  0.6508444  3
   4929   4927   4920   4949     1  0.0000000  0.6508444  3
   4929   4927   4930   4939     1  0.0000000  0.6508444  3
   4929   4927   4930   4931     1  0.0000000  0.6508444  3
   4929   4927   4930   4932     1  0.0000000  0.6508444  3
   4930   4927   4920   4949     1  0.0000000  0.6508444  3
   4931   4930   4939   4948     1  0.0000000  1.0460000  1
   4931   4930   4939   4948     1  0.0000000  0.0000000  3
   4931   4930   4939   4940     1  0.0000000  0.6508444  3
   4931   4930   4939   4941     1  0.0000000  0.6508444  3
   4932   4930   4939   4948     1  0.0000000  1.0460000  1
   4932   4930   4939   4948     1  0.0000000  0.0000000  3
   4932   4930   4939   4940     1  0.0000000  0.6508444  3
   4932   4930   4939   4941     1  0.0000000  0.6508444  3
   4933   4921   4920   4949     1  0.0000000  0.6508444  3
   4934   4933   4945   8953     1  0.0000000  1.0460000  1
   4934   4933   4945   8953     1  0.0000000  0.0000000  3
   4934   4933   4945   4946     1  0.0000000  0.6508444  3
   4934   4933   4945   4947     1  0.0000000  0.6508444  3
   4935   4933   4945   8953     1  0.0000000  1.0460000  1
   4935   4933   4945   8953     1  0.0000000  0.0000000  3
   4935   4933   4945   4946     1  0.0000000  0.6508444  3
   4935   4933   4945   4947     1  0.0000000  0.6508444  3
   4936   4924   4920   4949     1  0.0000000  0.6508444  3
   4937   4936   4942   8930     1  0.0000000  1.0460000  1
   4937   4936   4942   8930     1  0.0000000  0.0000000  3
   4937   4936   4942   4943     1  0.0000000  0.6508444  3
   4937   4936   4942   4944     1  0.0000000  0.6508444  3
   4938   4936   4942   8930     1  0.0000000  1.0460000  1
   4938   4936   4942   8930     1  0.0000000  0.0000000  3
   4938   4936   4942   4943     1  0.0000000  0.6508444  3
   4938   4936   4942   4944     1  0.0000000  0.6508444  3
   4942   8930   8926   8929     1  0.0000000  1.6038667  3
   4943   4942   8930   8926     1  0.0000000  1.6038667  3
   4944   4942   8930   8926     1  0.0000000  1.6038667  3
   4945   8953   8949   8952     1  0.0000000  1.6038667  3
   4946   4945   8953   8949     1  0.0000000  1.6038667  3
   4947   4945   8953   8949     1  0.0000000  1.6038667  3
   4950   4951   4963   4964     1  0.0000000  0.6508444  3
   4950   4951   4963   4965     1  0.0000000  0.6508444  3
   4950   4954   4966   4967     1  0.0000000  0.6508444  3
   4950   4954   4966   4968     1  0.0000000  0.6508444  3
   4950   4957   4960   4961     1  0.0000000  0.6508444  3
   4950   4957   4960   4962     1  0.0000000  0.6508444  3
   4951   4950   4954   4955     1  0.0000000  0.6508444  3
   4951   4950   4954   4956     1  0.0000000  0.6508444  3
   4951   4950   4957   4958     1  0.0000000  0.6508444  3
   4951   4950   4957   4959     1  0.0000000  0.6508444  3
   4951   4963   4975   4976     1  0.0000000  0.6508444  3
   4951   4963   4975   4977     1  0.0000000  0.6508444  3
   4952   4951   4950   4954     1  0.0000000  0.6508444  3
   4952   4951   4950   4957     1  0.0000000  0.6508444  3
   4952   4951   4950   4979     1  0.0000000  0.6508444  3
   4952   4951   4963   4975     1  0.0000000  0.6508444  3
   4952   4951   4963   4964     1  0.0000000  0.6508444  3
   4952   4951   4963   4965     1  0.0000000  0.6508444  3
   4953   4951   4950   4954     1  0.0000000  0.6508444  3
   4953   4951   4950   4957     1  0.0000000  0.6508444  3
   4953   4951   4950   4979     1  0.0000000  0.6508444  3
   4953   4951   4963   4975     1  0.0000000  0.6508444  3
   4953   4951   4963   4964     1  0.0000000  0.6508444  3
   4953   4951   4963   4965     1  0.0000000  0.6508444  3
   4954   4950   4957   4958     1  0.0000000  0.6508444  3
   4954   4950   4957   4959     1  0.0000000  0.6508444  3
   4954   4966   4972   4973     1  0.0000000  0.6508444  3
   4954   4966   4972   4974     1  0.0000000  0.6508444  3
   4955   4954   4950   4957     1  0.0000000  0.6508444  3
   4955   4954   4950   4979     1  0.0000000  0.6508444  3
   4955   4954   4966   4972     1  0.0000000  0.6508444  3
   4955   4954   4966   4967     1  0.0000000  0.6508444  3
   4955   4954   4966   4968     1  0.0000000  0.6508444  3
   4956   4954   4950   4957     1  0.0000000  0.6508444  3
   4956   4954   4950   4979     1  0.0000000  0.6508444  3
   4956   4954   4966   4972     1  0.0000000  0.6508444  3
   4956   4954   4966   4967     1  0.0000000  0.6508444  3
   4956   4954   4966   4968     1  0.0000000  0.6508444  3
   4957   4960   4969   4970     1  0.0000000  0.6508444  3
   4957   4960   4969   4971     1  0.0000000  0.6508444  3
   4958   4957   4950   4979     1  0.0000000  0.6508444  3
   4958   4957   4960   4969     1  0.0000000  0.6508444  3
   4958   4957   4960   4961     1  0.0000000  0.6508444  3
   4958   4957   4960   4962     1  0.0000000  0.6508444  3
   4959   4957   4950   4979     1  0.0000000  0.6508444  3
   4959   4957   4960   4969     1  0.0000000  0.6508444  3
   4959   4957   4960   4961     1  0.0000000  0.6508444  3
   4959   4957   4960   4962     1  0.0000000  0.6508444  3
   4960   4957   4950   4979     1  0.0000000  0.6508444  3
   4961   4960   4969   4978     1  0.0000000  1.0460000  1
   4961   4960   4969   4978     1  0.0000000  0.0000000  3
   4961   4960   4969   4970     1  0.0000000  0.6508444  3
   4961   4960   4969   4971     1  0.0000000  0.6508444  3
   4962   4960   4969   4978     1  0.0000000  1.0460000  1
   4962   4960   4969   4978     1  0.0000000  0.0000000  3
   4962   4960   4969   4970     1  0.0000000  0.6508444  3
   4962   4960   4969   4971     1  0.0000000  0.6508444  3
   4963   4951   4950   4979     1  0.0000000  0.6508444  3
   4964   4963   4975   8999     1  0.0000000  1.0460000  1
   4964   4963   4975   8999     1  0.0000000  0.0000000  3
   4964   4963   4975   4976     1  0.0000000  0.6508444  3
   4964   4963   4975   4977     1  0.0000000  0.6508444  3
   4965   4963   4975   8999     1  0.0000000  1.0460000  1
   4965   4963   4975   8999     1  0.0000000  0.0000000  3
   4965   4963   4975   4976     1  0.0000000  0.6508444  3
   4965   4963   4975   4977     1  0.0000000  0.6508444  3
   4966   4954   4950   4979     1  0.0000000  0.6508444  3
   4967   4966   4972   8976     1  0.0000000  1.0460000  1
   4967   4966   4972   8976     1  0.0000000  0.0000000  3
   4967   4966   4972   4973     1  0.0000000  0.6508444  3
   4967   4966   4972   4974     1  0.0000000  0.6508444  3
   4968   4966   4972   8976     1  0.0000000  1.0460000  1
   4968   4966   4972   8976     1  0.0000000  0.0000000  3
   4968   4966   4972   4973     1  0.0000000  0.6508444  3
   4968   4966   4972   4974     1  0.0000000  0.6508444  3
   4972   8976   8972   8975     1  0.0000000  1.6038667  3
   4973   4972   8976   8972     1  0.0000000  1.6038667  3
   4974   4972   8976   8972     1  0.0000000  1.6038667  3
   4975   8999   8995   8998     1  0.0000000  1.6038667  3
   4976   4975   8999   8995     1  0.0000000  1.6038667  3
   4977   4975   8999   8995     1  0.0000000  1.6038667  3
   4980   4981   4993   4994     1  0.0000000  0.6508444  3
   4980   4981   4993   4995     1  0.0000000  0.6508444  3
   4980   4984   4996   4997     1  0.0000000  0.6508444  3
   4980   4984   4996   4998     1  0.0000000  0.6508444  3
   4980   4987   4990   4991     1  0.0000000  0.6508444  3
   4980   4987   4990   4992     1  0.0000000  0.6508444  3
   4981   4980   4984   4985     1  0.0000000  0.6508444  3
   4981   4980   4984   4986     1  0.0000000  0.6508444  3
   4981   4980   4987   4988     1  0.0000000  0.6508444  3
   4981   4980   4987   4989     1  0.0000000  0.6508444  3
   4981   4993   5005   5006     1  0.0000000  0.6508444  3
   4981   4993   5005   5007     1  0.0000000  0.6508444  3
   4982   4981   4980   4984     1  0.0000000  0.6508444  3
   4982   4981   4980   4987     1  0.0000000  0.6508444  3
   4982   4981   4980   5009     1  0.0000000  0.6508444  3
   4982   4981   4993   5005     1  0.0000000  0.6508444  3
   4982   4981   4993   4994     1  0.0000000  0.6508444  3
   4982   4981   4993   4995     1  0.0000000  0.6508444  3
   4983   4981   4980   4984     1  0.0000000  0.6508444  3
   4983   4981   4980   4987     1  0.0000000  0.6508444  3
   4983   4981   4980   5009     1  0.0000000  0.6508444  3
   4983   4981   4993   5005     1  0.0000000  0.6508444  3
   4983   4981   4993   4994     1  0.0000000  0.6508444  3
   4983   4981   4993   4995     1  0.0000000  0.6508444  3
   4984   4980   4987   4988     1  0.0000000  0.6508444  3
   4984   4980   4987   4989     1  0.0000000  0.6508444  3
   4984   4996   5002   5003     1  0.0000000  0.6508444  3
   4984   4996   5002   5004     1  0.0000000  0.6508444  3
   4985   4984   4980   4987     1  0.0000000  0.6508444  3
   4985   4984   4980   5009     1  0.0000000  0.6508444  3
   4985   4984   4996   5002     1  0.0000000  0.6508444  3
   4985   4984   4996   4997     1  0.0000000  0.6508444  3
   4985   4984   4996   4998     1  0.0000000  0.6508444  3
   4986   4984   4980   4987     1  0.0000000  0.6508444  3
   4986   4984   4980   5009     1  0.0000000  0.6508444  3
   4986   4984   4996   5002     1  0.0000000  0.6508444  3
   4986   4984   4996   4997     1  0.0000000  0.6508444  3
   4986   4984   4996   4998     1  0.0000000  0.6508444  3
   4987   4990   4999   5000     1  0.0000000  0.6508444  3
   4987   4990   4999   5001     1  0.0000000  0.6508444  3
   4988   4987   4980   5009     1  0.0000000  0.6508444  3
   4988   4987   4990   4999     1  0.0000000  0.6508444  3
   4988   4987   4990   4991     1  0.0000000  0.6508444  3
   4988   4987   4990   4992     1  0.0000000  0.6508444  3
   4989   4987   4980   5009     1  0.0000000  0.6508444  3
   4989   4987   4990   4999     1  0.0000000  0.6508444  3
   4989   4987   4990   4991     1  0.0000000  0.6508444  3
   4989   4987   4990   4992     1  0.0000000  0.6508444  3
   4990   4987   4980   5009     1  0.0000000  0.6508444  3
   4991   4990   4999   5008     1  0.0000000  1.0460000  1
   4991   4990   4999   5008     1  0.0000000  0.0000000  3
   4991   4990   4999   5000     1  0.0000000  0.6508444  3
   4991   4990   4999   5001     1  0.0000000  0.6508444  3
   4992   4990   4999   5008     1  0.0000000  1.0460000  1
   4992   4990   4999   5008     1  0.0000000  0.0000000  3
   4992   4990   4999   5000     1  0.0000000  0.6508444  3
   4992   4990   4999   5001     1  0.0000000  0.6508444  3
   4993   4981   4980   5009     1  0.0000000  0.6508444  3
   4994   4993   5005   9045     1  0.0000000  1.0460000  1
   4994   4993   5005   9045     1  0.0000000  0.0000000  3
   4994   4993   5005   5006     1  0.0000000  0.6508444  3
   4994   4993   5005   5007     1  0.0000000  0.6508444  3
   4995   4993   5005   9045     1  0.0000000  1.0460000  1
   4995   4993   5005   9045     1  0.0000000  0.0000000  3
   4995   4993   5005   5006     1  0.0000000  0.6508444  3
   4995   4993   5005   5007     1  0.0000000  0.6508444  3
   4996   4984   4980   5009     1  0.0000000  0.6508444  3
   4997   4996   5002   9022     1  0.0000000  1.0460000  1
   4997   4996   5002   9022     1  0.0000000  0.0000000  3
   4997   4996   5002   5003     1  0.0000000  0.6508444  3
   4997   4996   5002   5004     1  0.0000000  0.6508444  3
   4998   4996   5002   9022     1  0.0000000  1.0460000  1
   4998   4996   5002   9022     1  0.0000000  0.0000000  3
   4998   4996   5002   5003     1  0.0000000  0.6508444  3
   4998   4996   5002   5004     1  0.0000000  0.6508444  3
   5002   9022   9018   9021     1  0.0000000  1.6038667  3
   5003   5002   9022   9018     1  0.0000000  1.6038667  3
   5004   5002   9022   9018     1  0.0000000  1.6038667  3
   5005   9045   9041   9044     1  0.0000000  1.6038667  3
   5006   5005   9045   9041     1  0.0000000  1.6038667  3
   5007   5005   9045   9041     1  0.0000000  1.6038667  3
   5010   5011   5023   5024     1  0.0000000  0.6508444  3
   5010   5011   5023   5025     1  0.0000000  0.6508444  3
   5010   5014   5026   5027     1  0.0000000  0.6508444  3
   5010   5014   5026   5028     1  0.0000000  0.6508444  3
   5010   5017   5020   5021     1  0.0000000  0.6508444  3
   5010   5017   5020   5022     1  0.0000000  0.6508444  3
   5011   5010   5014   5015     1  0.0000000  0.6508444  3
   5011   5010   5014   5016     1  0.0000000  0.6508444  3
   5011   5010   5017   5018     1  0.0000000  0.6508444  3
   5011   5010   5017   5019     1  0.0000000  0.6508444  3
   5011   5023   5035   5036     1  0.0000000  0.6508444  3
   5011   5023   5035   5037     1  0.0000000  0.6508444  3
   5012   5011   5010   5014     1  0.0000000  0.6508444  3
   5012   5011   5010   5017     1  0.0000000  0.6508444  3
   5012   5011   5010   5039     1  0.0000000  0.6508444  3
   5012   5011   5023   5035     1  0.0000000  0.6508444  3
   5012   5011   5023   5024     1  0.0000000  0.6508444  3
   5012   5011   5023   5025     1  0.0000000  0.6508444  3
   5013   5011   5010   5014     1  0.0000000  0.6508444  3
   5013   5011   5010   5017     1  0.0000000  0.6508444  3
   5013   5011   5010   5039     1  0.0000000  0.6508444  3
   5013   5011   5023   5035     1  0.0000000  0.6508444  3
   5013   5011   5023   5024     1  0.0000000  0.6508444  3
   5013   5011   5023   5025     1  0.0000000  0.6508444  3
   5014   5010   5017   5018     1  0.0000000  0.6508444  3
   5014   5010   5017   5019     1  0.0000000  0.6508444  3
   5014   5026   5032   5033     1  0.0000000  0.6508444  3
   5014   5026   5032   5034     1  0.0000000  0.6508444  3
   5015   5014   5010   5017     1  0.0000000  0.6508444  3
   5015   5014   5010   5039     1  0.0000000  0.6508444  3
   5015   5014   5026   5032     1  0.0000000  0.6508444  3
   5015   5014   5026   5027     1  0.0000000  0.6508444  3
   5015   5014   5026   5028     1  0.0000000  0.6508444  3
   5016   5014   5010   5017     1  0.0000000  0.6508444  3
   5016   5014   5010   5039     1  0.0000000  0.6508444  3
   5016   5014   5026   5032     1  0.0000000  0.6508444  3
   5016   5014   5026   5027     1  0.0000000  0.6508444  3
   5016   5014   5026   5028     1  0.0000000  0.6508444  3
   5017   5020   5029   5030     1  0.0000000  0.6508444  3
   5017   5020   5029   5031     1  0.0000000  0.6508444  3
   5018   5017   5010   5039     1  0.0000000  0.6508444  3
   5018   5017   5020   5029     1  0.0000000  0.6508444  3
   5018   5017   5020   5021     1  0.0000000  0.6508444  3
   5018   5017   5020   5022     1  0.0000000  0.6508444  3
   5019   5017   5010   5039     1  0.0000000  0.6508444  3
   5019   5017   5020   5029     1  0.0000000  0.6508444  3
   5019   5017   5020   5021     1  0.0000000  0.6508444  3
   5019   5017   5020   5022     1  0.0000000  0.6508444  3
   5020   5017   5010   5039     1  0.0000000  0.6508444  3
   5021   5020   5029   5038     1  0.0000000  1.0460000  1
   5021   5020   5029   5038     1  0.0000000  0.0000000  3
   5021   5020   5029   5030     1  0.0000000  0.6508444  3
   5021   5020   5029   5031     1  0.0000000  0.6508444  3
   5022   5020   5029   5038     1  0.0000000  1.0460000  1
   5022   5020   5029   5038     1  0.0000000  0.0000000  3
   5022   5020   5029   5030     1  0.0000000  0.6508444  3
   5022   5020   5029   5031     1  0.0000000  0.6508444  3
   5023   5011   5010   5039     1  0.0000000  0.6508444  3
   5024   5023   5035   9091     1  0.0000000  1.0460000  1
   5024   5023   5035   9091     1  0.0000000  0.0000000  3
   5024   5023   5035   5036     1  0.0000000  0.6508444  3
   5024   5023   5035   5037     1  0.0000000  0.6508444  3
   5025   5023   5035   9091     1  0.0000000  1.0460000  1
   5025   5023   5035   9091     1  0.0000000  0.0000000  3
   5025   5023   5035   5036     1  0.0000000  0.6508444  3
   5025   5023   5035   5037     1  0.0000000  0.6508444  3
   5026   5014   5010   5039     1  0.0000000  0.6508444  3
   5027   5026   5032   9068     1  0.0000000  1.0460000  1
   5027   5026   5032   9068     1  0.0000000  0.0000000  3
   5027   5026   5032   5033     1  0.0000000  0.6508444  3
   5027   5026   5032   5034     1  0.0000000  0.6508444  3
   5028   5026   5032   9068     1  0.0000000  1.0460000  1
   5028   5026   5032   9068     1  0.0000000  0.0000000  3
   5028   5026   5032   5033     1  0.0000000  0.6508444  3
   5028   5026   5032   5034     1  0.0000000  0.6508444  3
   5032   9068   9064   9067     1  0.0000000  1.6038667  3
   5033   5032   9068   9064     1  0.0000000  1.6038667  3
   5034   5032   9068   9064     1  0.0000000  1.6038667  3
   5035   9091   9087   9090     1  0.0000000  1.6038667  3
   5036   5035   9091   9087     1  0.0000000  1.6038667  3
   5037   5035   9091   9087     1  0.0000000  1.6038667  3
   5040   5041   5053   5054     1  0.0000000  0.6508444  3
   5040   5041   5053   5055     1  0.0000000  0.6508444  3
   5040   5044   5056   5057     1  0.0000000  0.6508444  3
   5040   5044   5056   5058     1  0.0000000  0.6508444  3
   5040   5047   5050   5051     1  0.0000000  0.6508444  3
   5040   5047   5050   5052     1  0.0000000  0.6508444  3
   5041   5040   5044   5045     1  0.0000000  0.6508444  3
   5041   5040   5044   5046     1  0.0000000  0.6508444  3
   5041   5040   5047   5048     1  0.0000000  0.6508444  3
   5041   5040   5047   5049     1  0.0000000  0.6508444  3
   5041   5053   5065   5066     1  0.0000000  0.6508444  3
   5041   5053   5065   5067     1  0.0000000  0.6508444  3
   5042   5041   5040   5044     1  0.0000000  0.6508444  3
   5042   5041   5040   5047     1  0.0000000  0.6508444  3
   5042   5041   5040   5069     1  0.0000000  0.6508444  3
   5042   5041   5053   5065     1  0.0000000  0.6508444  3
   5042   5041   5053   5054     1  0.0000000  0.6508444  3
   5042   5041   5053   5055     1  0.0000000  0.6508444  3
   5043   5041   5040   5044     1  0.0000000  0.6508444  3
   5043   5041   5040   5047     1  0.0000000  0.6508444  3
   5043   5041   5040   5069     1  0.0000000  0.6508444  3
   5043   5041   5053   5065     1  0.0000000  0.6508444  3
   5043   5041   5053   5054     1  0.0000000  0.6508444  3
   5043   5041   5053   5055     1  0.0000000  0.6508444  3
   5044   5040   5047   5048     1  0.0000000  0.6508444  3
   5044   5040   5047   5049     1  0.0000000  0.6508444  3
   5044   5056   5062   5063     1  0.0000000  0.6508444  3
   5044   5056   5062   5064     1  0.0000000  0.6508444  3
   5045   5044   5040   5047     1  0.0000000  0.6508444  3
   5045   5044   5040   5069     1  0.0000000  0.6508444  3
   5045   5044   5056   5062     1  0.0000000  0.6508444  3
   5045   5044   5056   5057     1  0.0000000  0.6508444  3
   5045   5044   5056   5058     1  0.0000000  0.6508444  3
   5046   5044   5040   5047     1  0.0000000  0.6508444  3
   5046   5044   5040   5069     1  0.0000000  0.6508444  3
   5046   5044   5056   5062     1  0.0000000  0.6508444  3
   5046   5044   5056   5057     1  0.0000000  0.6508444  3
   5046   5044   5056   5058     1  0.0000000  0.6508444  3
   5047   5050   5059   5060     1  0.0000000  0.6508444  3
   5047   5050   5059   5061     1  0.0000000  0.6508444  3
   5048   5047   5040   5069     1  0.0000000  0.6508444  3
   5048   5047   5050   5059     1  0.0000000  0.6508444  3
   5048   5047   5050   5051     1  0.0000000  0.6508444  3
   5048   5047   5050   5052     1  0.0000000  0.6508444  3
   5049   5047   5040   5069     1  0.0000000  0.6508444  3
   5049   5047   5050   5059     1  0.0000000  0.6508444  3
   5049   5047   5050   5051     1  0.0000000  0.6508444  3
   5049   5047   5050   5052     1  0.0000000  0.6508444  3
   5050   5047   5040   5069     1  0.0000000  0.6508444  3
   5051   5050   5059   5068     1  0.0000000  1.0460000  1
   5051   5050   5059   5068     1  0.0000000  0.0000000  3
   5051   5050   5059   5060     1  0.0000000  0.6508444  3
   5051   5050   5059   5061     1  0.0000000  0.6508444  3
   5052   5050   5059   5068     1  0.0000000  1.0460000  1
   5052   5050   5059   5068     1  0.0000000  0.0000000  3
   5052   5050   5059   5060     1  0.0000000  0.6508444  3
   5052   5050   5059   5061     1  0.0000000  0.6508444  3
   5053   5041   5040   5069     1  0.0000000  0.6508444  3
   5054   5053   5065   9137     1  0.0000000  1.0460000  1
   5054   5053   5065   9137     1  0.0000000  0.0000000  3
   5054   5053   5065   5066     1  0.0000000  0.6508444  3
   5054   5053   5065   5067     1  0.0000000  0.6508444  3
   5055   5053   5065   9137     1  0.0000000  1.0460000  1
   5055   5053   5065   9137     1  0.0000000  0.0000000  3
   5055   5053   5065   5066     1  0.0000000  0.6508444  3
   5055   5053   5065   5067     1  0.0000000  0.6508444  3
   5056   5044   5040   5069     1  0.0000000  0.6508444  3
   5057   5056   5062   9114     1  0.0000000  1.0460000  1
   5057   5056   5062   9114     1  0.0000000  0.0000000  3
   5057   5056   5062   5063     1  0.0000000  0.6508444  3
   5057   5056   5062   5064     1  0.0000000  0.6508444  3
   5058   5056   5062   9114     1  0.0000000  1.0460000  1
   5058   5056   5062   9114     1  0.0000000  0.0000000  3
   5058   5056   5062   5063     1  0.0000000  0.6508444  3
   5058   5056   5062   5064     1  0.0000000  0.6508444  3
   5062   9114   9110   9113     1  0.0000000  1.6038667  3
   5063   5062   9114   9110     1  0.0000000  1.6038667  3
   5064   5062   9114   9110     1  0.0000000  1.6038667  3
   5065   9137   9133   9136     1  0.0000000  1.6038667  3
   5066   5065   9137   9133     1  0.0000000  1.6038667  3
   5067   5065   9137   9133     1  0.0000000  1.6038667  3
   5070   5071   5083   5084     1  0.0000000  0.6508444  3
   5070   5071   5083   5085     1  0.0000000  0.6508444  3
   5070   5074   5086   5087     1  0.0000000  0.6508444  3
   5070   5074   5086   5088     1  0.0000000  0.6508444  3
   5070   5077   5080   5081     1  0.0000000  0.6508444  3
   5070   5077   5080   5082     1  0.0000000  0.6508444  3
   5071   5070   5074   5075     1  0.0000000  0.6508444  3
   5071   5070   5074   5076     1  0.0000000  0.6508444  3
   5071   5070   5077   5078     1  0.0000000  0.6508444  3
   5071   5070   5077   5079     1  0.0000000  0.6508444  3
   5071   5083   5095   5096     1  0.0000000  0.6508444  3
   5071   5083   5095   5097     1  0.0000000  0.6508444  3
   5072   5071   5070   5074     1  0.0000000  0.6508444  3
   5072   5071   5070   5077     1  0.0000000  0.6508444  3
   5072   5071   5070   5099     1  0.0000000  0.6508444  3
   5072   5071   5083   5095     1  0.0000000  0.6508444  3
   5072   5071   5083   5084     1  0.0000000  0.6508444  3
   5072   5071   5083   5085     1  0.0000000  0.6508444  3
   5073   5071   5070   5074     1  0.0000000  0.6508444  3
   5073   5071   5070   5077     1  0.0000000  0.6508444  3
   5073   5071   5070   5099     1  0.0000000  0.6508444  3
   5073   5071   5083   5095     1  0.0000000  0.6508444  3
   5073   5071   5083   5084     1  0.0000000  0.6508444  3
   5073   5071   5083   5085     1  0.0000000  0.6508444  3
   5074   5070   5077   5078     1  0.0000000  0.6508444  3
   5074   5070   5077   5079     1  0.0000000  0.6508444  3
   5074   5086   5092   5093     1  0.0000000  0.6508444  3
   5074   5086   5092   5094     1  0.0000000  0.6508444  3
   5075   5074   5070   5077     1  0.0000000  0.6508444  3
   5075   5074   5070   5099     1  0.0000000  0.6508444  3
   5075   5074   5086   5092     1  0.0000000  0.6508444  3
   5075   5074   5086   5087     1  0.0000000  0.6508444  3
   5075   5074   5086   5088     1  0.0000000  0.6508444  3
   5076   5074   5070   5077     1  0.0000000  0.6508444  3
   5076   5074   5070   5099     1  0.0000000  0.6508444  3
   5076   5074   5086   5092     1  0.0000000  0.6508444  3
   5076   5074   5086   5087     1  0.0000000  0.6508444  3
   5076   5074   5086   5088     1  0.0000000  0.6508444  3
   5077   5080   5089   5090     1  0.0000000  0.6508444  3
   5077   5080   5089   5091     1  0.0000000  0.6508444  3
   5078   5077   5070   5099     1  0.0000000  0.6508444  3
   5078   5077   5080   5089     1  0.0000000  0.6508444  3
   5078   5077   5080   5081     1  0.0000000  0.6508444  3
   5078   5077   5080   5082     1  0.0000000  0.6508444  3
   5079   5077   5070   5099     1  0.0000000  0.6508444  3
   5079   5077   5080   5089     1  0.0000000  0.6508444  3
   5079   5077   5080   5081     1  0.0000000  0.6508444  3
   5079   5077   5080   5082     1  0.0000000  0.6508444  3
   5080   5077   5070   5099     1  0.0000000  0.6508444  3
   5081   5080   5089   5098     1  0.0000000  1.0460000  1
   5081   5080   5089   5098     1  0.0000000  0.0000000  3
   5081   5080   5089   5090     1  0.0000000  0.6508444  3
   5081   5080   5089   5091     1  0.0000000  0.6508444  3
   5082   5080   5089   5098     1  0.0000000  1.0460000  1
   5082   5080   5089   5098     1  0.0000000  0.0000000  3
   5082   5080   5089   5090     1  0.0000000  0.6508444  3
   5082   5080   5089   5091     1  0.0000000  0.6508444  3
   5083   5071   5070   5099     1  0.0000000  0.6508444  3
   5084   5083   5095   9183     1  0.0000000  1.0460000  1
   5084   5083   5095   9183     1  0.0000000  0.0000000  3
   5084   5083   5095   5096     1  0.0000000  0.6508444  3
   5084   5083   5095   5097     1  0.0000000  0.6508444  3
   5085   5083   5095   9183     1  0.0000000  1.0460000  1
   5085   5083   5095   9183     1  0.0000000  0.0000000  3
   5085   5083   5095   5096     1  0.0000000  0.6508444  3
   5085   5083   5095   5097     1  0.0000000  0.6508444  3
   5086   5074   5070   5099     1  0.0000000  0.6508444  3
   5087   5086   5092   9160     1  0.0000000  1.0460000  1
   5087   5086   5092   9160     1  0.0000000  0.0000000  3
   5087   5086   5092   5093     1  0.0000000  0.6508444  3
   5087   5086   5092   5094     1  0.0000000  0.6508444  3
   5088   5086   5092   9160     1  0.0000000  1.0460000  1
   5088   5086   5092   9160     1  0.0000000  0.0000000  3
   5088   5086   5092   5093     1  0.0000000  0.6508444  3
   5088   5086   5092   5094     1  0.0000000  0.6508444  3
   5092   9160   9156   9159     1  0.0000000  1.6038667  3
   5093   5092   9160   9156     1  0.0000000  1.6038667  3
   5094   5092   9160   9156     1  0.0000000  1.6038667  3
   5095   9183   9179   9182     1  0.0000000  1.6038667  3
   5096   5095   9183   9179     1  0.0000000  1.6038667  3
   5097   5095   9183   9179     1  0.0000000  1.6038667  3
   5100   5101   5113   5114     1  0.0000000  0.6508444  3
   5100   5101   5113   5115     1  0.0000000  0.6508444  3
   5100   5104   5116   5117     1  0.0000000  0.6508444  3
   5100   5104   5116   5118     1  0.0000000  0.6508444  3
   5100   5107   5110   5111     1  0.0000000  0.6508444  3
   5100   5107   5110   5112     1  0.0000000  0.6508444  3
   5101   5100   5104   5105     1  0.0000000  0.6508444  3
   5101   5100   5104   5106     1  0.0000000  0.6508444  3
   5101   5100   5107   5108     1  0.0000000  0.6508444  3
   5101   5100   5107   5109     1  0.0000000  0.6508444  3
   5101   5113   5125   5126     1  0.0000000  0.6508444  3
   5101   5113   5125   5127     1  0.0000000  0.6508444  3
   5102   5101   5100   5104     1  0.0000000  0.6508444  3
   5102   5101   5100   5107     1  0.0000000  0.6508444  3
   5102   5101   5100   5129     1  0.0000000  0.6508444  3
   5102   5101   5113   5125     1  0.0000000  0.6508444  3
   5102   5101   5113   5114     1  0.0000000  0.6508444  3
   5102   5101   5113   5115     1  0.0000000  0.6508444  3
   5103   5101   5100   5104     1  0.0000000  0.6508444  3
   5103   5101   5100   5107     1  0.0000000  0.6508444  3
   5103   5101   5100   5129     1  0.0000000  0.6508444  3
   5103   5101   5113   5125     1  0.0000000  0.6508444  3
   5103   5101   5113   5114     1  0.0000000  0.6508444  3
   5103   5101   5113   5115     1  0.0000000  0.6508444  3
   5104   5100   5107   5108     1  0.0000000  0.6508444  3
   5104   5100   5107   5109     1  0.0000000  0.6508444  3
   5104   5116   5122   5123     1  0.0000000  0.6508444  3
   5104   5116   5122   5124     1  0.0000000  0.6508444  3
   5105   5104   5100   5107     1  0.0000000  0.6508444  3
   5105   5104   5100   5129     1  0.0000000  0.6508444  3
   5105   5104   5116   5122     1  0.0000000  0.6508444  3
   5105   5104   5116   5117     1  0.0000000  0.6508444  3
   5105   5104   5116   5118     1  0.0000000  0.6508444  3
   5106   5104   5100   5107     1  0.0000000  0.6508444  3
   5106   5104   5100   5129     1  0.0000000  0.6508444  3
   5106   5104   5116   5122     1  0.0000000  0.6508444  3
   5106   5104   5116   5117     1  0.0000000  0.6508444  3
   5106   5104   5116   5118     1  0.0000000  0.6508444  3
   5107   5110   5119   5120     1  0.0000000  0.6508444  3
   5107   5110   5119   5121     1  0.0000000  0.6508444  3
   5108   5107   5100   5129     1  0.0000000  0.6508444  3
   5108   5107   5110   5119     1  0.0000000  0.6508444  3
   5108   5107   5110   5111     1  0.0000000  0.6508444  3
   5108   5107   5110   5112     1  0.0000000  0.6508444  3
   5109   5107   5100   5129     1  0.0000000  0.6508444  3
   5109   5107   5110   5119     1  0.0000000  0.6508444  3
   5109   5107   5110   5111     1  0.0000000  0.6508444  3
   5109   5107   5110   5112     1  0.0000000  0.6508444  3
   5110   5107   5100   5129     1  0.0000000  0.6508444  3
   5111   5110   5119   5128     1  0.0000000  1.0460000  1
   5111   5110   5119   5128     1  0.0000000  0.0000000  3
   5111   5110   5119   5120     1  0.0000000  0.6508444  3
   5111   5110   5119   5121     1  0.0000000  0.6508444  3
   5112   5110   5119   5128     1  0.0000000  1.0460000  1
   5112   5110   5119   5128     1  0.0000000  0.0000000  3
   5112   5110   5119   5120     1  0.0000000  0.6508444  3
   5112   5110   5119   5121     1  0.0000000  0.6508444  3
   5113   5101   5100   5129     1  0.0000000  0.6508444  3
   5114   5113   5125   9229     1  0.0000000  1.0460000  1
   5114   5113   5125   9229     1  0.0000000  0.0000000  3
   5114   5113   5125   5126     1  0.0000000  0.6508444  3
   5114   5113   5125   5127     1  0.0000000  0.6508444  3
   5115   5113   5125   9229     1  0.0000000  1.0460000  1
   5115   5113   5125   9229     1  0.0000000  0.0000000  3
   5115   5113   5125   5126     1  0.0000000  0.6508444  3
   5115   5113   5125   5127     1  0.0000000  0.6508444  3
   5116   5104   5100   5129     1  0.0000000  0.6508444  3
   5117   5116   5122   9206     1  0.0000000  1.0460000  1
   5117   5116   5122   9206     1  0.0000000  0.0000000  3
   5117   5116   5122   5123     1  0.0000000  0.6508444  3
   5117   5116   5122   5124     1  0.0000000  0.6508444  3
   5118   5116   5122   9206     1  0.0000000  1.0460000  1
   5118   5116   5122   9206     1  0.0000000  0.0000000  3
   5118   5116   5122   5123     1  0.0000000  0.6508444  3
   5118   5116   5122   5124     1  0.0000000  0.6508444  3
   5122   9206   9202   9205     1  0.0000000  1.6038667  3
   5123   5122   9206   9202     1  0.0000000  1.6038667  3
   5124   5122   9206   9202     1  0.0000000  1.6038667  3
   5125   9229   9225   9228     1  0.0000000  1.6038667  3
   5126   5125   9229   9225     1  0.0000000  1.6038667  3
   5127   5125   9229   9225     1  0.0000000  1.6038667  3
   5130   5131   5143   5144     1  0.0000000  0.6508444  3
   5130   5131   5143   5145     1  0.0000000  0.6508444  3
   5130   5134   5146   5147     1  0.0000000  0.6508444  3
   5130   5134   5146   5148     1  0.0000000  0.6508444  3
   5130   5137   5140   5141     1  0.0000000  0.6508444  3
   5130   5137   5140   5142     1  0.0000000  0.6508444  3
   5131   5130   5134   5135     1  0.0000000  0.6508444  3
   5131   5130   5134   5136     1  0.0000000  0.6508444  3
   5131   5130   5137   5138     1  0.0000000  0.6508444  3
   5131   5130   5137   5139     1  0.0000000  0.6508444  3
   5131   5143   5155   5156     1  0.0000000  0.6508444  3
   5131   5143   5155   5157     1  0.0000000  0.6508444  3
   5132   5131   5130   5134     1  0.0000000  0.6508444  3
   5132   5131   5130   5137     1  0.0000000  0.6508444  3
   5132   5131   5130   5159     1  0.0000000  0.6508444  3
   5132   5131   5143   5155     1  0.0000000  0.6508444  3
   5132   5131   5143   5144     1  0.0000000  0.6508444  3
   5132   5131   5143   5145     1  0.0000000  0.6508444  3
   5133   5131   5130   5134     1  0.0000000  0.6508444  3
   5133   5131   5130   5137     1  0.0000000  0.6508444  3
   5133   5131   5130   5159     1  0.0000000  0.6508444  3
   5133   5131   5143   5155     1  0.0000000  0.6508444  3
   5133   5131   5143   5144     1  0.0000000  0.6508444  3
   5133   5131   5143   5145     1  0.0000000  0.6508444  3
   5134   5130   5137   5138     1  0.0000000  0.6508444  3
   5134   5130   5137   5139     1  0.0000000  0.6508444  3
   5134   5146   5152   5153     1  0.0000000  0.6508444  3
   5134   5146   5152   5154     1  0.0000000  0.6508444  3
   5135   5134   5130   5137     1  0.0000000  0.6508444  3
   5135   5134   5130   5159     1  0.0000000  0.6508444  3
   5135   5134   5146   5152     1  0.0000000  0.6508444  3
   5135   5134   5146   5147     1  0.0000000  0.6508444  3
   5135   5134   5146   5148     1  0.0000000  0.6508444  3
   5136   5134   5130   5137     1  0.0000000  0.6508444  3
   5136   5134   5130   5159     1  0.0000000  0.6508444  3
   5136   5134   5146   5152     1  0.0000000  0.6508444  3
   5136   5134   5146   5147     1  0.0000000  0.6508444  3
   5136   5134   5146   5148     1  0.0000000  0.6508444  3
   5137   5140   5149   5150     1  0.0000000  0.6508444  3
   5137   5140   5149   5151     1  0.0000000  0.6508444  3
   5138   5137   5130   5159     1  0.0000000  0.6508444  3
   5138   5137   5140   5149     1  0.0000000  0.6508444  3
   5138   5137   5140   5141     1  0.0000000  0.6508444  3
   5138   5137   5140   5142     1  0.0000000  0.6508444  3
   5139   5137   5130   5159     1  0.0000000  0.6508444  3
   5139   5137   5140   5149     1  0.0000000  0.6508444  3
   5139   5137   5140   5141     1  0.0000000  0.6508444  3
   5139   5137   5140   5142     1  0.0000000  0.6508444  3
   5140   5137   5130   5159     1  0.0000000  0.6508444  3
   5141   5140   5149   5158     1  0.0000000  1.0460000  1
   5141   5140   5149   5158     1  0.0000000  0.0000000  3
   5141   5140   5149   5150     1  0.0000000  0.6508444  3
   5141   5140   5149   5151     1  0.0000000  0.6508444  3
   5142   5140   5149   5158     1  0.0000000  1.0460000  1
   5142   5140   5149   5158     1  0.0000000  0.0000000  3
   5142   5140   5149   5150     1  0.0000000  0.6508444  3
   5142   5140   5149   5151     1  0.0000000  0.6508444  3
   5143   5131   5130   5159     1  0.0000000  0.6508444  3
   5144   5143   5155   9275     1  0.0000000  1.0460000  1
   5144   5143   5155   9275     1  0.0000000  0.0000000  3
   5144   5143   5155   5156     1  0.0000000  0.6508444  3
   5144   5143   5155   5157     1  0.0000000  0.6508444  3
   5145   5143   5155   9275     1  0.0000000  1.0460000  1
   5145   5143   5155   9275     1  0.0000000  0.0000000  3
   5145   5143   5155   5156     1  0.0000000  0.6508444  3
   5145   5143   5155   5157     1  0.0000000  0.6508444  3
   5146   5134   5130   5159     1  0.0000000  0.6508444  3
   5147   5146   5152   9252     1  0.0000000  1.0460000  1
   5147   5146   5152   9252     1  0.0000000  0.0000000  3
   5147   5146   5152   5153     1  0.0000000  0.6508444  3
   5147   5146   5152   5154     1  0.0000000  0.6508444  3
   5148   5146   5152   9252     1  0.0000000  1.0460000  1
   5148   5146   5152   9252     1  0.0000000  0.0000000  3
   5148   5146   5152   5153     1  0.0000000  0.6508444  3
   5148   5146   5152   5154     1  0.0000000  0.6508444  3
   5152   9252   9248   9251     1  0.0000000  1.6038667  3
   5153   5152   9252   9248     1  0.0000000  1.6038667  3
   5154   5152   9252   9248     1  0.0000000  1.6038667  3
   5155   9275   9271   9274     1  0.0000000  1.6038667  3
   5156   5155   9275   9271     1  0.0000000  1.6038667  3
   5157   5155   9275   9271     1  0.0000000  1.6038667  3
   5160   5161   5173   5174     1  0.0000000  0.6508444  3
   5160   5161   5173   5175     1  0.0000000  0.6508444  3
   5160   5164   5176   5177     1  0.0000000  0.6508444  3
   5160   5164   5176   5178     1  0.0000000  0.6508444  3
   5160   5167   5170   5171     1  0.0000000  0.6508444  3
   5160   5167   5170   5172     1  0.0000000  0.6508444  3
   5161   5160   5164   5165     1  0.0000000  0.6508444  3
   5161   5160   5164   5166     1  0.0000000  0.6508444  3
   5161   5160   5167   5168     1  0.0000000  0.6508444  3
   5161   5160   5167   5169     1  0.0000000  0.6508444  3
   5161   5173   5185   5186     1  0.0000000  0.6508444  3
   5161   5173   5185   5187     1  0.0000000  0.6508444  3
   5162   5161   5160   5164     1  0.0000000  0.6508444  3
   5162   5161   5160   5167     1  0.0000000  0.6508444  3
   5162   5161   5160   5189     1  0.0000000  0.6508444  3
   5162   5161   5173   5185     1  0.0000000  0.6508444  3
   5162   5161   5173   5174     1  0.0000000  0.6508444  3
   5162   5161   5173   5175     1  0.0000000  0.6508444  3
   5163   5161   5160   5164     1  0.0000000  0.6508444  3
   5163   5161   5160   5167     1  0.0000000  0.6508444  3
   5163   5161   5160   5189     1  0.0000000  0.6508444  3
   5163   5161   5173   5185     1  0.0000000  0.6508444  3
   5163   5161   5173   5174     1  0.0000000  0.6508444  3
   5163   5161   5173   5175     1  0.0000000  0.6508444  3
   5164   5160   5167   5168     1  0.0000000  0.6508444  3
   5164   5160   5167   5169     1  0.0000000  0.6508444  3
   5164   5176   5182   5183     1  0.0000000  0.6508444  3
   5164   5176   5182   5184     1  0.0000000  0.6508444  3
   5165   5164   5160   5167     1  0.0000000  0.6508444  3
   5165   5164   5160   5189     1  0.0000000  0.6508444  3
   5165   5164   5176   5182     1  0.0000000  0.6508444  3
   5165   5164   5176   5177     1  0.0000000  0.6508444  3
   5165   5164   5176   5178     1  0.0000000  0.6508444  3
   5166   5164   5160   5167     1  0.0000000  0.6508444  3
   5166   5164   5160   5189     1  0.0000000  0.6508444  3
   5166   5164   5176   5182     1  0.0000000  0.6508444  3
   5166   5164   5176   5177     1  0.0000000  0.6508444  3
   5166   5164   5176   5178     1  0.0000000  0.6508444  3
   5167   5170   5179   5180     1  0.0000000  0.6508444  3
   5167   5170   5179   5181     1  0.0000000  0.6508444  3
   5168   5167   5160   5189     1  0.0000000  0.6508444  3
   5168   5167   5170   5179     1  0.0000000  0.6508444  3
   5168   5167   5170   5171     1  0.0000000  0.6508444  3
   5168   5167   5170   5172     1  0.0000000  0.6508444  3
   5169   5167   5160   5189     1  0.0000000  0.6508444  3
   5169   5167   5170   5179     1  0.0000000  0.6508444  3
   5169   5167   5170   5171     1  0.0000000  0.6508444  3
   5169   5167   5170   5172     1  0.0000000  0.6508444  3
   5170   5167   5160   5189     1  0.0000000  0.6508444  3
   5171   5170   5179   5188     1  0.0000000  1.0460000  1
   5171   5170   5179   5188     1  0.0000000  0.0000000  3
   5171   5170   5179   5180     1  0.0000000  0.6508444  3
   5171   5170   5179   5181     1  0.0000000  0.6508444  3
   5172   5170   5179   5188     1  0.0000000  1.0460000  1
   5172   5170   5179   5188     1  0.0000000  0.0000000  3
   5172   5170   5179   5180     1  0.0000000  0.6508444  3
   5172   5170   5179   5181     1  0.0000000  0.6508444  3
   5173   5161   5160   5189     1  0.0000000  0.6508444  3
   5174   5173   5185   9321     1  0.0000000  1.0460000  1
   5174   5173   5185   9321     1  0.0000000  0.0000000  3
   5174   5173   5185   5186     1  0.0000000  0.6508444  3
   5174   5173   5185   5187     1  0.0000000  0.6508444  3
   5175   5173   5185   9321     1  0.0000000  1.0460000  1
   5175   5173   5185   9321     1  0.0000000  0.0000000  3
   5175   5173   5185   5186     1  0.0000000  0.6508444  3
   5175   5173   5185   5187     1  0.0000000  0.6508444  3
   5176   5164   5160   5189     1  0.0000000  0.6508444  3
   5177   5176   5182   9298     1  0.0000000  1.0460000  1
   5177   5176   5182   9298     1  0.0000000  0.0000000  3
   5177   5176   5182   5183     1  0.0000000  0.6508444  3
   5177   5176   5182   5184     1  0.0000000  0.6508444  3
   5178   5176   5182   9298     1  0.0000000  1.0460000  1
   5178   5176   5182   9298     1  0.0000000  0.0000000  3
   5178   5176   5182   5183     1  0.0000000  0.6508444  3
   5178   5176   5182   5184     1  0.0000000  0.6508444  3
   5182   9298   9294   9297     1  0.0000000  1.6038667  3
   5183   5182   9298   9294     1  0.0000000  1.6038667  3
   5184   5182   9298   9294     1  0.0000000  1.6038667  3
   5185   9321   9317   9320     1  0.0000000  1.6038667  3
   5186   5185   9321   9317     1  0.0000000  1.6038667  3
   5187   5185   9321   9317     1  0.0000000  1.6038667  3
   5190   5191   5203   5204     1  0.0000000  0.6508444  3
   5190   5191   5203   5205     1  0.0000000  0.6508444  3
   5190   5194   5206   5207     1  0.0000000  0.6508444  3
   5190   5194   5206   5208     1  0.0000000  0.6508444  3
   5190   5197   5200   5201     1  0.0000000  0.6508444  3
   5190   5197   5200   5202     1  0.0000000  0.6508444  3
   5191   5190   5194   5195     1  0.0000000  0.6508444  3
   5191   5190   5194   5196     1  0.0000000  0.6508444  3
   5191   5190   5197   5198     1  0.0000000  0.6508444  3
   5191   5190   5197   5199     1  0.0000000  0.6508444  3
   5191   5203   5215   5216     1  0.0000000  0.6508444  3
   5191   5203   5215   5217     1  0.0000000  0.6508444  3
   5192   5191   5190   5194     1  0.0000000  0.6508444  3
   5192   5191   5190   5197     1  0.0000000  0.6508444  3
   5192   5191   5190   5219     1  0.0000000  0.6508444  3
   5192   5191   5203   5215     1  0.0000000  0.6508444  3
   5192   5191   5203   5204     1  0.0000000  0.6508444  3
   5192   5191   5203   5205     1  0.0000000  0.6508444  3
   5193   5191   5190   5194     1  0.0000000  0.6508444  3
   5193   5191   5190   5197     1  0.0000000  0.6508444  3
   5193   5191   5190   5219     1  0.0000000  0.6508444  3
   5193   5191   5203   5215     1  0.0000000  0.6508444  3
   5193   5191   5203   5204     1  0.0000000  0.6508444  3
   5193   5191   5203   5205     1  0.0000000  0.6508444  3
   5194   5190   5197   5198     1  0.0000000  0.6508444  3
   5194   5190   5197   5199     1  0.0000000  0.6508444  3
   5194   5206   5212   5213     1  0.0000000  0.6508444  3
   5194   5206   5212   5214     1  0.0000000  0.6508444  3
   5195   5194   5190   5197     1  0.0000000  0.6508444  3
   5195   5194   5190   5219     1  0.0000000  0.6508444  3
   5195   5194   5206   5212     1  0.0000000  0.6508444  3
   5195   5194   5206   5207     1  0.0000000  0.6508444  3
   5195   5194   5206   5208     1  0.0000000  0.6508444  3
   5196   5194   5190   5197     1  0.0000000  0.6508444  3
   5196   5194   5190   5219     1  0.0000000  0.6508444  3
   5196   5194   5206   5212     1  0.0000000  0.6508444  3
   5196   5194   5206   5207     1  0.0000000  0.6508444  3
   5196   5194   5206   5208     1  0.0000000  0.6508444  3
   5197   5200   5209   5210     1  0.0000000  0.6508444  3
   5197   5200   5209   5211     1  0.0000000  0.6508444  3
   5198   5197   5190   5219     1  0.0000000  0.6508444  3
   5198   5197   5200   5209     1  0.0000000  0.6508444  3
   5198   5197   5200   5201     1  0.0000000  0.6508444  3
   5198   5197   5200   5202     1  0.0000000  0.6508444  3
   5199   5197   5190   5219     1  0.0000000  0.6508444  3
   5199   5197   5200   5209     1  0.0000000  0.6508444  3
   5199   5197   5200   5201     1  0.0000000  0.6508444  3
   5199   5197   5200   5202     1  0.0000000  0.6508444  3
   5200   5197   5190   5219     1  0.0000000  0.6508444  3
   5201   5200   5209   5218     1  0.0000000  1.0460000  1
   5201   5200   5209   5218     1  0.0000000  0.0000000  3
   5201   5200   5209   5210     1  0.0000000  0.6508444  3
   5201   5200   5209   5211     1  0.0000000  0.6508444  3
   5202   5200   5209   5218     1  0.0000000  1.0460000  1
   5202   5200   5209   5218     1  0.0000000  0.0000000  3
   5202   5200   5209   5210     1  0.0000000  0.6508444  3
   5202   5200   5209   5211     1  0.0000000  0.6508444  3
   5203   5191   5190   5219     1  0.0000000  0.6508444  3
   5204   5203   5215   9367     1  0.0000000  1.0460000  1
   5204   5203   5215   9367     1  0.0000000  0.0000000  3
   5204   5203   5215   5216     1  0.0000000  0.6508444  3
   5204   5203   5215   5217     1  0.0000000  0.6508444  3
   5205   5203   5215   9367     1  0.0000000  1.0460000  1
   5205   5203   5215   9367     1  0.0000000  0.0000000  3
   5205   5203   5215   5216     1  0.0000000  0.6508444  3
   5205   5203   5215   5217     1  0.0000000  0.6508444  3
   5206   5194   5190   5219     1  0.0000000  0.6508444  3
   5207   5206   5212   9344     1  0.0000000  1.0460000  1
   5207   5206   5212   9344     1  0.0000000  0.0000000  3
   5207   5206   5212   5213     1  0.0000000  0.6508444  3
   5207   5206   5212   5214     1  0.0000000  0.6508444  3
   5208   5206   5212   9344     1  0.0000000  1.0460000  1
   5208   5206   5212   9344     1  0.0000000  0.0000000  3
   5208   5206   5212   5213     1  0.0000000  0.6508444  3
   5208   5206   5212   5214     1  0.0000000  0.6508444  3
   5212   9344   9340   9343     1  0.0000000  1.6038667  3
   5213   5212   9344   9340     1  0.0000000  1.6038667  3
   5214   5212   9344   9340     1  0.0000000  1.6038667  3
   5215   9367   9363   9366     1  0.0000000  1.6038667  3
   5216   5215   9367   9363     1  0.0000000  1.6038667  3
   5217   5215   9367   9363     1  0.0000000  1.6038667  3
   5220   5221   5233   5234     1  0.0000000  0.6508444  3
   5220   5221   5233   5235     1  0.0000000  0.6508444  3
   5220   5224   5236   5237     1  0.0000000  0.6508444  3
   5220   5224   5236   5238     1  0.0000000  0.6508444  3
   5220   5227   5230   5231     1  0.0000000  0.6508444  3
   5220   5227   5230   5232     1  0.0000000  0.6508444  3
   5221   5220   5224   5225     1  0.0000000  0.6508444  3
   5221   5220   5224   5226     1  0.0000000  0.6508444  3
   5221   5220   5227   5228     1  0.0000000  0.6508444  3
   5221   5220   5227   5229     1  0.0000000  0.6508444  3
   5221   5233   5245   5246     1  0.0000000  0.6508444  3
   5221   5233   5245   5247     1  0.0000000  0.6508444  3
   5222   5221   5220   5224     1  0.0000000  0.6508444  3
   5222   5221   5220   5227     1  0.0000000  0.6508444  3
   5222   5221   5220   5249     1  0.0000000  0.6508444  3
   5222   5221   5233   5245     1  0.0000000  0.6508444  3
   5222   5221   5233   5234     1  0.0000000  0.6508444  3
   5222   5221   5233   5235     1  0.0000000  0.6508444  3
   5223   5221   5220   5224     1  0.0000000  0.6508444  3
   5223   5221   5220   5227     1  0.0000000  0.6508444  3
   5223   5221   5220   5249     1  0.0000000  0.6508444  3
   5223   5221   5233   5245     1  0.0000000  0.6508444  3
   5223   5221   5233   5234     1  0.0000000  0.6508444  3
   5223   5221   5233   5235     1  0.0000000  0.6508444  3
   5224   5220   5227   5228     1  0.0000000  0.6508444  3
   5224   5220   5227   5229     1  0.0000000  0.6508444  3
   5224   5236   5242   5243     1  0.0000000  0.6508444  3
   5224   5236   5242   5244     1  0.0000000  0.6508444  3
   5225   5224   5220   5227     1  0.0000000  0.6508444  3
   5225   5224   5220   5249     1  0.0000000  0.6508444  3
   5225   5224   5236   5242     1  0.0000000  0.6508444  3
   5225   5224   5236   5237     1  0.0000000  0.6508444  3
   5225   5224   5236   5238     1  0.0000000  0.6508444  3
   5226   5224   5220   5227     1  0.0000000  0.6508444  3
   5226   5224   5220   5249     1  0.0000000  0.6508444  3
   5226   5224   5236   5242     1  0.0000000  0.6508444  3
   5226   5224   5236   5237     1  0.0000000  0.6508444  3
   5226   5224   5236   5238     1  0.0000000  0.6508444  3
   5227   5230   5239   5240     1  0.0000000  0.6508444  3
   5227   5230   5239   5241     1  0.0000000  0.6508444  3
   5228   5227   5220   5249     1  0.0000000  0.6508444  3
   5228   5227   5230   5239     1  0.0000000  0.6508444  3
   5228   5227   5230   5231     1  0.0000000  0.6508444  3
   5228   5227   5230   5232     1  0.0000000  0.6508444  3
   5229   5227   5220   5249     1  0.0000000  0.6508444  3
   5229   5227   5230   5239     1  0.0000000  0.6508444  3
   5229   5227   5230   5231     1  0.0000000  0.6508444  3
   5229   5227   5230   5232     1  0.0000000  0.6508444  3
   5230   5227   5220   5249     1  0.0000000  0.6508444  3
   5231   5230   5239   5248     1  0.0000000  1.0460000  1
   5231   5230   5239   5248     1  0.0000000  0.0000000  3
   5231   5230   5239   5240     1  0.0000000  0.6508444  3
   5231   5230   5239   5241     1  0.0000000  0.6508444  3
   5232   5230   5239   5248     1  0.0000000  1.0460000  1
   5232   5230   5239   5248     1  0.0000000  0.0000000  3
   5232   5230   5239   5240     1  0.0000000  0.6508444  3
   5232   5230   5239   5241     1  0.0000000  0.6508444  3
   5233   5221   5220   5249     1  0.0000000  0.6508444  3
   5234   5233   5245   9413     1  0.0000000  1.0460000  1
   5234   5233   5245   9413     1  0.0000000  0.0000000  3
   5234   5233   5245   5246     1  0.0000000  0.6508444  3
   5234   5233   5245   5247     1  0.0000000  0.6508444  3
   5235   5233   5245   9413     1  0.0000000  1.0460000  1
   5235   5233   5245   9413     1  0.0000000  0.0000000  3
   5235   5233   5245   5246     1  0.0000000  0.6508444  3
   5235   5233   5245   5247     1  0.0000000  0.6508444  3
   5236   5224   5220   5249     1  0.0000000  0.6508444  3
   5237   5236   5242   9390     1  0.0000000  1.0460000  1
   5237   5236   5242   9390     1  0.0000000  0.0000000  3
   5237   5236   5242   5243     1  0.0000000  0.6508444  3
   5237   5236   5242   5244     1  0.0000000  0.6508444  3
   5238   5236   5242   9390     1  0.0000000  1.0460000  1
   5238   5236   5242   9390     1  0.0000000  0.0000000  3
   5238   5236   5242   5243     1  0.0000000  0.6508444  3
   5238   5236   5242   5244     1  0.0000000  0.6508444  3
   5242   9390   9386   9389     1  0.0000000  1.6038667  3
   5243   5242   9390   9386     1  0.0000000  1.6038667  3
   5244   5242   9390   9386     1  0.0000000  1.6038667  3
   5245   9413   9409   9412     1  0.0000000  1.6038667  3
   5246   5245   9413   9409     1  0.0000000  1.6038667  3
   5247   5245   9413   9409     1  0.0000000  1.6038667  3
   5250   5251   5263   5264     1  0.0000000  0.6508444  3
   5250   5251   5263   5265     1  0.0000000  0.6508444  3
   5250   5254   5266   5267     1  0.0000000  0.6508444  3
   5250   5254   5266   5268     1  0.0000000  0.6508444  3
   5250   5257   5260   5261     1  0.0000000  0.6508444  3
   5250   5257   5260   5262     1  0.0000000  0.6508444  3
   5251   5250   5254   5255     1  0.0000000  0.6508444  3
   5251   5250   5254   5256     1  0.0000000  0.6508444  3
   5251   5250   5257   5258     1  0.0000000  0.6508444  3
   5251   5250   5257   5259     1  0.0000000  0.6508444  3
   5251   5263   5275   5276     1  0.0000000  0.6508444  3
   5251   5263   5275   5277     1  0.0000000  0.6508444  3
   5252   5251   5250   5254     1  0.0000000  0.6508444  3
   5252   5251   5250   5257     1  0.0000000  0.6508444  3
   5252   5251   5250   5279     1  0.0000000  0.6508444  3
   5252   5251   5263   5275     1  0.0000000  0.6508444  3
   5252   5251   5263   5264     1  0.0000000  0.6508444  3
   5252   5251   5263   5265     1  0.0000000  0.6508444  3
   5253   5251   5250   5254     1  0.0000000  0.6508444  3
   5253   5251   5250   5257     1  0.0000000  0.6508444  3
   5253   5251   5250   5279     1  0.0000000  0.6508444  3
   5253   5251   5263   5275     1  0.0000000  0.6508444  3
   5253   5251   5263   5264     1  0.0000000  0.6508444  3
   5253   5251   5263   5265     1  0.0000000  0.6508444  3
   5254   5250   5257   5258     1  0.0000000  0.6508444  3
   5254   5250   5257   5259     1  0.0000000  0.6508444  3
   5254   5266   5272   5273     1  0.0000000  0.6508444  3
   5254   5266   5272   5274     1  0.0000000  0.6508444  3
   5255   5254   5250   5257     1  0.0000000  0.6508444  3
   5255   5254   5250   5279     1  0.0000000  0.6508444  3
   5255   5254   5266   5272     1  0.0000000  0.6508444  3
   5255   5254   5266   5267     1  0.0000000  0.6508444  3
   5255   5254   5266   5268     1  0.0000000  0.6508444  3
   5256   5254   5250   5257     1  0.0000000  0.6508444  3
   5256   5254   5250   5279     1  0.0000000  0.6508444  3
   5256   5254   5266   5272     1  0.0000000  0.6508444  3
   5256   5254   5266   5267     1  0.0000000  0.6508444  3
   5256   5254   5266   5268     1  0.0000000  0.6508444  3
   5257   5260   5269   5270     1  0.0000000  0.6508444  3
   5257   5260   5269   5271     1  0.0000000  0.6508444  3
   5258   5257   5250   5279     1  0.0000000  0.6508444  3
   5258   5257   5260   5269     1  0.0000000  0.6508444  3
   5258   5257   5260   5261     1  0.0000000  0.6508444  3
   5258   5257   5260   5262     1  0.0000000  0.6508444  3
   5259   5257   5250   5279     1  0.0000000  0.6508444  3
   5259   5257   5260   5269     1  0.0000000  0.6508444  3
   5259   5257   5260   5261     1  0.0000000  0.6508444  3
   5259   5257   5260   5262     1  0.0000000  0.6508444  3
   5260   5257   5250   5279     1  0.0000000  0.6508444  3
   5261   5260   5269   5278     1  0.0000000  1.0460000  1
   5261   5260   5269   5278     1  0.0000000  0.0000000  3
   5261   5260   5269   5270     1  0.0000000  0.6508444  3
   5261   5260   5269   5271     1  0.0000000  0.6508444  3
   5262   5260   5269   5278     1  0.0000000  1.0460000  1
   5262   5260   5269   5278     1  0.0000000  0.0000000  3
   5262   5260   5269   5270     1  0.0000000  0.6508444  3
   5262   5260   5269   5271     1  0.0000000  0.6508444  3
   5263   5251   5250   5279     1  0.0000000  0.6508444  3
   5264   5263   5275   9459     1  0.0000000  1.0460000  1
   5264   5263   5275   9459     1  0.0000000  0.0000000  3
   5264   5263   5275   5276     1  0.0000000  0.6508444  3
   5264   5263   5275   5277     1  0.0000000  0.6508444  3
   5265   5263   5275   9459     1  0.0000000  1.0460000  1
   5265   5263   5275   9459     1  0.0000000  0.0000000  3
   5265   5263   5275   5276     1  0.0000000  0.6508444  3
   5265   5263   5275   5277     1  0.0000000  0.6508444  3
   5266   5254   5250   5279     1  0.0000000  0.6508444  3
   5267   5266   5272   9436     1  0.0000000  1.0460000  1
   5267   5266   5272   9436     1  0.0000000  0.0000000  3
   5267   5266   5272   5273     1  0.0000000  0.6508444  3
   5267   5266   5272   5274     1  0.0000000  0.6508444  3
   5268   5266   5272   9436     1  0.0000000  1.0460000  1
   5268   5266   5272   9436     1  0.0000000  0.0000000  3
   5268   5266   5272   5273     1  0.0000000  0.6508444  3
   5268   5266   5272   5274     1  0.0000000  0.6508444  3
   5272   9436   9432   9435     1  0.0000000  1.6038667  3
   5273   5272   9436   9432     1  0.0000000  1.6038667  3
   5274   5272   9436   9432     1  0.0000000  1.6038667  3
   5275   9459   9455   9458     1  0.0000000  1.6038667  3
   5276   5275   9459   9455     1  0.0000000  1.6038667  3
   5277   5275   9459   9455     1  0.0000000  1.6038667  3
   5280   5281   5293   5294     1  0.0000000  0.6508444  3
   5280   5281   5293   5295     1  0.0000000  0.6508444  3
   5280   5284   5296   5297     1  0.0000000  0.6508444  3
   5280   5284   5296   5298     1  0.0000000  0.6508444  3
   5280   5287   5290   5291     1  0.0000000  0.6508444  3
   5280   5287   5290   5292     1  0.0000000  0.6508444  3
   5281   5280   5284   5285     1  0.0000000  0.6508444  3
   5281   5280   5284   5286     1  0.0000000  0.6508444  3
   5281   5280   5287   5288     1  0.0000000  0.6508444  3
   5281   5280   5287   5289     1  0.0000000  0.6508444  3
   5281   5293   5305   5306     1  0.0000000  0.6508444  3
   5281   5293   5305   5307     1  0.0000000  0.6508444  3
   5282   5281   5280   5284     1  0.0000000  0.6508444  3
   5282   5281   5280   5287     1  0.0000000  0.6508444  3
   5282   5281   5280   5309     1  0.0000000  0.6508444  3
   5282   5281   5293   5305     1  0.0000000  0.6508444  3
   5282   5281   5293   5294     1  0.0000000  0.6508444  3
   5282   5281   5293   5295     1  0.0000000  0.6508444  3
   5283   5281   5280   5284     1  0.0000000  0.6508444  3
   5283   5281   5280   5287     1  0.0000000  0.6508444  3
   5283   5281   5280   5309     1  0.0000000  0.6508444  3
   5283   5281   5293   5305     1  0.0000000  0.6508444  3
   5283   5281   5293   5294     1  0.0000000  0.6508444  3
   5283   5281   5293   5295     1  0.0000000  0.6508444  3
   5284   5280   5287   5288     1  0.0000000  0.6508444  3
   5284   5280   5287   5289     1  0.0000000  0.6508444  3
   5284   5296   5302   5303     1  0.0000000  0.6508444  3
   5284   5296   5302   5304     1  0.0000000  0.6508444  3
   5285   5284   5280   5287     1  0.0000000  0.6508444  3
   5285   5284   5280   5309     1  0.0000000  0.6508444  3
   5285   5284   5296   5302     1  0.0000000  0.6508444  3
   5285   5284   5296   5297     1  0.0000000  0.6508444  3
   5285   5284   5296   5298     1  0.0000000  0.6508444  3
   5286   5284   5280   5287     1  0.0000000  0.6508444  3
   5286   5284   5280   5309     1  0.0000000  0.6508444  3
   5286   5284   5296   5302     1  0.0000000  0.6508444  3
   5286   5284   5296   5297     1  0.0000000  0.6508444  3
   5286   5284   5296   5298     1  0.0000000  0.6508444  3
   5287   5290   5299   5300     1  0.0000000  0.6508444  3
   5287   5290   5299   5301     1  0.0000000  0.6508444  3
   5288   5287   5280   5309     1  0.0000000  0.6508444  3
   5288   5287   5290   5299     1  0.0000000  0.6508444  3
   5288   5287   5290   5291     1  0.0000000  0.6508444  3
   5288   5287   5290   5292     1  0.0000000  0.6508444  3
   5289   5287   5280   5309     1  0.0000000  0.6508444  3
   5289   5287   5290   5299     1  0.0000000  0.6508444  3
   5289   5287   5290   5291     1  0.0000000  0.6508444  3
   5289   5287   5290   5292     1  0.0000000  0.6508444  3
   5290   5287   5280   5309     1  0.0000000  0.6508444  3
   5291   5290   5299   5308     1  0.0000000  1.0460000  1
   5291   5290   5299   5308     1  0.0000000  0.0000000  3
   5291   5290   5299   5300     1  0.0000000  0.6508444  3
   5291   5290   5299   5301     1  0.0000000  0.6508444  3
   5292   5290   5299   5308     1  0.0000000  1.0460000  1
   5292   5290   5299   5308     1  0.0000000  0.0000000  3
   5292   5290   5299   5300     1  0.0000000  0.6508444  3
   5292   5290   5299   5301     1  0.0000000  0.6508444  3
   5293   5281   5280   5309     1  0.0000000  0.6508444  3
   5294   5293   5305   9505     1  0.0000000  1.0460000  1
   5294   5293   5305   9505     1  0.0000000  0.0000000  3
   5294   5293   5305   5306     1  0.0000000  0.6508444  3
   5294   5293   5305   5307     1  0.0000000  0.6508444  3
   5295   5293   5305   9505     1  0.0000000  1.0460000  1
   5295   5293   5305   9505     1  0.0000000  0.0000000  3
   5295   5293   5305   5306     1  0.0000000  0.6508444  3
   5295   5293   5305   5307     1  0.0000000  0.6508444  3
   5296   5284   5280   5309     1  0.0000000  0.6508444  3
   5297   5296   5302   9482     1  0.0000000  1.0460000  1
   5297   5296   5302   9482     1  0.0000000  0.0000000  3
   5297   5296   5302   5303     1  0.0000000  0.6508444  3
   5297   5296   5302   5304     1  0.0000000  0.6508444  3
   5298   5296   5302   9482     1  0.0000000  1.0460000  1
   5298   5296   5302   9482     1  0.0000000  0.0000000  3
   5298   5296   5302   5303     1  0.0000000  0.6508444  3
   5298   5296   5302   5304     1  0.0000000  0.6508444  3
   5302   9482   9478   9481     1  0.0000000  1.6038667  3
   5303   5302   9482   9478     1  0.0000000  1.6038667  3
   5304   5302   9482   9478     1  0.0000000  1.6038667  3
   5305   9505   9501   9504     1  0.0000000  1.6038667  3
   5306   5305   9505   9501     1  0.0000000  1.6038667  3
   5307   5305   9505   9501     1  0.0000000  1.6038667  3
   5310   5311   5323   5324     1  0.0000000  0.6508444  3
   5310   5311   5323   5325     1  0.0000000  0.6508444  3
   5310   5314   5326   5327     1  0.0000000  0.6508444  3
   5310   5314   5326   5328     1  0.0000000  0.6508444  3
   5310   5317   5320   5321     1  0.0000000  0.6508444  3
   5310   5317   5320   5322     1  0.0000000  0.6508444  3
   5311   5310   5314   5315     1  0.0000000  0.6508444  3
   5311   5310   5314   5316     1  0.0000000  0.6508444  3
   5311   5310   5317   5318     1  0.0000000  0.6508444  3
   5311   5310   5317   5319     1  0.0000000  0.6508444  3
   5311   5323   5335   5336     1  0.0000000  0.6508444  3
   5311   5323   5335   5337     1  0.0000000  0.6508444  3
   5312   5311   5310   5314     1  0.0000000  0.6508444  3
   5312   5311   5310   5317     1  0.0000000  0.6508444  3
   5312   5311   5310   5339     1  0.0000000  0.6508444  3
   5312   5311   5323   5335     1  0.0000000  0.6508444  3
   5312   5311   5323   5324     1  0.0000000  0.6508444  3
   5312   5311   5323   5325     1  0.0000000  0.6508444  3
   5313   5311   5310   5314     1  0.0000000  0.6508444  3
   5313   5311   5310   5317     1  0.0000000  0.6508444  3
   5313   5311   5310   5339     1  0.0000000  0.6508444  3
   5313   5311   5323   5335     1  0.0000000  0.6508444  3
   5313   5311   5323   5324     1  0.0000000  0.6508444  3
   5313   5311   5323   5325     1  0.0000000  0.6508444  3
   5314   5310   5317   5318     1  0.0000000  0.6508444  3
   5314   5310   5317   5319     1  0.0000000  0.6508444  3
   5314   5326   5332   5333     1  0.0000000  0.6508444  3
   5314   5326   5332   5334     1  0.0000000  0.6508444  3
   5315   5314   5310   5317     1  0.0000000  0.6508444  3
   5315   5314   5310   5339     1  0.0000000  0.6508444  3
   5315   5314   5326   5332     1  0.0000000  0.6508444  3
   5315   5314   5326   5327     1  0.0000000  0.6508444  3
   5315   5314   5326   5328     1  0.0000000  0.6508444  3
   5316   5314   5310   5317     1  0.0000000  0.6508444  3
   5316   5314   5310   5339     1  0.0000000  0.6508444  3
   5316   5314   5326   5332     1  0.0000000  0.6508444  3
   5316   5314   5326   5327     1  0.0000000  0.6508444  3
   5316   5314   5326   5328     1  0.0000000  0.6508444  3
   5317   5320   5329   5330     1  0.0000000  0.6508444  3
   5317   5320   5329   5331     1  0.0000000  0.6508444  3
   5318   5317   5310   5339     1  0.0000000  0.6508444  3
   5318   5317   5320   5329     1  0.0000000  0.6508444  3
   5318   5317   5320   5321     1  0.0000000  0.6508444  3
   5318   5317   5320   5322     1  0.0000000  0.6508444  3
   5319   5317   5310   5339     1  0.0000000  0.6508444  3
   5319   5317   5320   5329     1  0.0000000  0.6508444  3
   5319   5317   5320   5321     1  0.0000000  0.6508444  3
   5319   5317   5320   5322     1  0.0000000  0.6508444  3
   5320   5317   5310   5339     1  0.0000000  0.6508444  3
   5321   5320   5329   5338     1  0.0000000  1.0460000  1
   5321   5320   5329   5338     1  0.0000000  0.0000000  3
   5321   5320   5329   5330     1  0.0000000  0.6508444  3
   5321   5320   5329   5331     1  0.0000000  0.6508444  3
   5322   5320   5329   5338     1  0.0000000  1.0460000  1
   5322   5320   5329   5338     1  0.0000000  0.0000000  3
   5322   5320   5329   5330     1  0.0000000  0.6508444  3
   5322   5320   5329   5331     1  0.0000000  0.6508444  3
   5323   5311   5310   5339     1  0.0000000  0.6508444  3
   5324   5323   5335   9551     1  0.0000000  1.0460000  1
   5324   5323   5335   9551     1  0.0000000  0.0000000  3
   5324   5323   5335   5336     1  0.0000000  0.6508444  3
   5324   5323   5335   5337     1  0.0000000  0.6508444  3
   5325   5323   5335   9551     1  0.0000000  1.0460000  1
   5325   5323   5335   9551     1  0.0000000  0.0000000  3
   5325   5323   5335   5336     1  0.0000000  0.6508444  3
   5325   5323   5335   5337     1  0.0000000  0.6508444  3
   5326   5314   5310   5339     1  0.0000000  0.6508444  3
   5327   5326   5332   9528     1  0.0000000  1.0460000  1
   5327   5326   5332   9528     1  0.0000000  0.0000000  3
   5327   5326   5332   5333     1  0.0000000  0.6508444  3
   5327   5326   5332   5334     1  0.0000000  0.6508444  3
   5328   5326   5332   9528     1  0.0000000  1.0460000  1
   5328   5326   5332   9528     1  0.0000000  0.0000000  3
   5328   5326   5332   5333     1  0.0000000  0.6508444  3
   5328   5326   5332   5334     1  0.0000000  0.6508444  3
   5332   9528   9524   9527     1  0.0000000  1.6038667  3
   5333   5332   9528   9524     1  0.0000000  1.6038667  3
   5334   5332   9528   9524     1  0.0000000  1.6038667  3
   5335   9551   9547   9550     1  0.0000000  1.6038667  3
   5336   5335   9551   9547     1  0.0000000  1.6038667  3
   5337   5335   9551   9547     1  0.0000000  1.6038667  3
   5340   5341   5353   5354     1  0.0000000  0.6508444  3
   5340   5341   5353   5355     1  0.0000000  0.6508444  3
   5340   5344   5356   5357     1  0.0000000  0.6508444  3
   5340   5344   5356   5358     1  0.0000000  0.6508444  3
   5340   5347   5350   5351     1  0.0000000  0.6508444  3
   5340   5347   5350   5352     1  0.0000000  0.6508444  3
   5341   5340   5344   5345     1  0.0000000  0.6508444  3
   5341   5340   5344   5346     1  0.0000000  0.6508444  3
   5341   5340   5347   5348     1  0.0000000  0.6508444  3
   5341   5340   5347   5349     1  0.0000000  0.6508444  3
   5341   5353   5365   5366     1  0.0000000  0.6508444  3
   5341   5353   5365   5367     1  0.0000000  0.6508444  3
   5342   5341   5340   5344     1  0.0000000  0.6508444  3
   5342   5341   5340   5347     1  0.0000000  0.6508444  3
   5342   5341   5340   5369     1  0.0000000  0.6508444  3
   5342   5341   5353   5365     1  0.0000000  0.6508444  3
   5342   5341   5353   5354     1  0.0000000  0.6508444  3
   5342   5341   5353   5355     1  0.0000000  0.6508444  3
   5343   5341   5340   5344     1  0.0000000  0.6508444  3
   5343   5341   5340   5347     1  0.0000000  0.6508444  3
   5343   5341   5340   5369     1  0.0000000  0.6508444  3
   5343   5341   5353   5365     1  0.0000000  0.6508444  3
   5343   5341   5353   5354     1  0.0000000  0.6508444  3
   5343   5341   5353   5355     1  0.0000000  0.6508444  3
   5344   5340   5347   5348     1  0.0000000  0.6508444  3
   5344   5340   5347   5349     1  0.0000000  0.6508444  3
   5344   5356   5362   5363     1  0.0000000  0.6508444  3
   5344   5356   5362   5364     1  0.0000000  0.6508444  3
   5345   5344   5340   5347     1  0.0000000  0.6508444  3
   5345   5344   5340   5369     1  0.0000000  0.6508444  3
   5345   5344   5356   5362     1  0.0000000  0.6508444  3
   5345   5344   5356   5357     1  0.0000000  0.6508444  3
   5345   5344   5356   5358     1  0.0000000  0.6508444  3
   5346   5344   5340   5347     1  0.0000000  0.6508444  3
   5346   5344   5340   5369     1  0.0000000  0.6508444  3
   5346   5344   5356   5362     1  0.0000000  0.6508444  3
   5346   5344   5356   5357     1  0.0000000  0.6508444  3
   5346   5344   5356   5358     1  0.0000000  0.6508444  3
   5347   5350   5359   5360     1  0.0000000  0.6508444  3
   5347   5350   5359   5361     1  0.0000000  0.6508444  3
   5348   5347   5340   5369     1  0.0000000  0.6508444  3
   5348   5347   5350   5359     1  0.0000000  0.6508444  3
   5348   5347   5350   5351     1  0.0000000  0.6508444  3
   5348   5347   5350   5352     1  0.0000000  0.6508444  3
   5349   5347   5340   5369     1  0.0000000  0.6508444  3
   5349   5347   5350   5359     1  0.0000000  0.6508444  3
   5349   5347   5350   5351     1  0.0000000  0.6508444  3
   5349   5347   5350   5352     1  0.0000000  0.6508444  3
   5350   5347   5340   5369     1  0.0000000  0.6508444  3
   5351   5350   5359   5368     1  0.0000000  1.0460000  1
   5351   5350   5359   5368     1  0.0000000  0.0000000  3
   5351   5350   5359   5360     1  0.0000000  0.6508444  3
   5351   5350   5359   5361     1  0.0000000  0.6508444  3
   5352   5350   5359   5368     1  0.0000000  1.0460000  1
   5352   5350   5359   5368     1  0.0000000  0.0000000  3
   5352   5350   5359   5360     1  0.0000000  0.6508444  3
   5352   5350   5359   5361     1  0.0000000  0.6508444  3
   5353   5341   5340   5369     1  0.0000000  0.6508444  3
   5354   5353   5365   9597     1  0.0000000  1.0460000  1
   5354   5353   5365   9597     1  0.0000000  0.0000000  3
   5354   5353   5365   5366     1  0.0000000  0.6508444  3
   5354   5353   5365   5367     1  0.0000000  0.6508444  3
   5355   5353   5365   9597     1  0.0000000  1.0460000  1
   5355   5353   5365   9597     1  0.0000000  0.0000000  3
   5355   5353   5365   5366     1  0.0000000  0.6508444  3
   5355   5353   5365   5367     1  0.0000000  0.6508444  3
   5356   5344   5340   5369     1  0.0000000  0.6508444  3
   5357   5356   5362   9574     1  0.0000000  1.0460000  1
   5357   5356   5362   9574     1  0.0000000  0.0000000  3
   5357   5356   5362   5363     1  0.0000000  0.6508444  3
   5357   5356   5362   5364     1  0.0000000  0.6508444  3
   5358   5356   5362   9574     1  0.0000000  1.0460000  1
   5358   5356   5362   9574     1  0.0000000  0.0000000  3
   5358   5356   5362   5363     1  0.0000000  0.6508444  3
   5358   5356   5362   5364     1  0.0000000  0.6508444  3
   5362   9574   9570   9573     1  0.0000000  1.6038667  3
   5363   5362   9574   9570     1  0.0000000  1.6038667  3
   5364   5362   9574   9570     1  0.0000000  1.6038667  3
   5365   9597   9593   9596     1  0.0000000  1.6038667  3
   5366   5365   9597   9593     1  0.0000000  1.6038667  3
   5367   5365   9597   9593     1  0.0000000  1.6038667  3
   5370   5371   5383   5384     1  0.0000000  0.6508444  3
   5370   5371   5383   5385     1  0.0000000  0.6508444  3
   5370   5374   5386   5387     1  0.0000000  0.6508444  3
   5370   5374   5386   5388     1  0.0000000  0.6508444  3
   5370   5377   5380   5381     1  0.0000000  0.6508444  3
   5370   5377   5380   5382     1  0.0000000  0.6508444  3
   5371   5370   5374   5375     1  0.0000000  0.6508444  3
   5371   5370   5374   5376     1  0.0000000  0.6508444  3
   5371   5370   5377   5378     1  0.0000000  0.6508444  3
   5371   5370   5377   5379     1  0.0000000  0.6508444  3
   5371   5383   5395   5396     1  0.0000000  0.6508444  3
   5371   5383   5395   5397     1  0.0000000  0.6508444  3
   5372   5371   5370   5374     1  0.0000000  0.6508444  3
   5372   5371   5370   5377     1  0.0000000  0.6508444  3
   5372   5371   5370   5399     1  0.0000000  0.6508444  3
   5372   5371   5383   5395     1  0.0000000  0.6508444  3
   5372   5371   5383   5384     1  0.0000000  0.6508444  3
   5372   5371   5383   5385     1  0.0000000  0.6508444  3
   5373   5371   5370   5374     1  0.0000000  0.6508444  3
   5373   5371   5370   5377     1  0.0000000  0.6508444  3
   5373   5371   5370   5399     1  0.0000000  0.6508444  3
   5373   5371   5383   5395     1  0.0000000  0.6508444  3
   5373   5371   5383   5384     1  0.0000000  0.6508444  3
   5373   5371   5383   5385     1  0.0000000  0.6508444  3
   5374   5370   5377   5378     1  0.0000000  0.6508444  3
   5374   5370   5377   5379     1  0.0000000  0.6508444  3
   5374   5386   5392   5393     1  0.0000000  0.6508444  3
   5374   5386   5392   5394     1  0.0000000  0.6508444  3
   5375   5374   5370   5377     1  0.0000000  0.6508444  3
   5375   5374   5370   5399     1  0.0000000  0.6508444  3
   5375   5374   5386   5392     1  0.0000000  0.6508444  3
   5375   5374   5386   5387     1  0.0000000  0.6508444  3
   5375   5374   5386   5388     1  0.0000000  0.6508444  3
   5376   5374   5370   5377     1  0.0000000  0.6508444  3
   5376   5374   5370   5399     1  0.0000000  0.6508444  3
   5376   5374   5386   5392     1  0.0000000  0.6508444  3
   5376   5374   5386   5387     1  0.0000000  0.6508444  3
   5376   5374   5386   5388     1  0.0000000  0.6508444  3
   5377   5380   5389   5390     1  0.0000000  0.6508444  3
   5377   5380   5389   5391     1  0.0000000  0.6508444  3
   5378   5377   5370   5399     1  0.0000000  0.6508444  3
   5378   5377   5380   5389     1  0.0000000  0.6508444  3
   5378   5377   5380   5381     1  0.0000000  0.6508444  3
   5378   5377   5380   5382     1  0.0000000  0.6508444  3
   5379   5377   5370   5399     1  0.0000000  0.6508444  3
   5379   5377   5380   5389     1  0.0000000  0.6508444  3
   5379   5377   5380   5381     1  0.0000000  0.6508444  3
   5379   5377   5380   5382     1  0.0000000  0.6508444  3
   5380   5377   5370   5399     1  0.0000000  0.6508444  3
   5381   5380   5389   5398     1  0.0000000  1.0460000  1
   5381   5380   5389   5398     1  0.0000000  0.0000000  3
   5381   5380   5389   5390     1  0.0000000  0.6508444  3
   5381   5380   5389   5391     1  0.0000000  0.6508444  3
   5382   5380   5389   5398     1  0.0000000  1.0460000  1
   5382   5380   5389   5398     1  0.0000000  0.0000000  3
   5382   5380   5389   5390     1  0.0000000  0.6508444  3
   5382   5380   5389   5391     1  0.0000000  0.6508444  3
   5383   5371   5370   5399     1  0.0000000  0.6508444  3
   5384   5383   5395   9643     1  0.0000000  1.0460000  1
   5384   5383   5395   9643     1  0.0000000  0.0000000  3
   5384   5383   5395   5396     1  0.0000000  0.6508444  3
   5384   5383   5395   5397     1  0.0000000  0.6508444  3
   5385   5383   5395   9643     1  0.0000000  1.0460000  1
   5385   5383   5395   9643     1  0.0000000  0.0000000  3
   5385   5383   5395   5396     1  0.0000000  0.6508444  3
   5385   5383   5395   5397     1  0.0000000  0.6508444  3
   5386   5374   5370   5399     1  0.0000000  0.6508444  3
   5387   5386   5392   9620     1  0.0000000  1.0460000  1
   5387   5386   5392   9620     1  0.0000000  0.0000000  3
   5387   5386   5392   5393     1  0.0000000  0.6508444  3
   5387   5386   5392   5394     1  0.0000000  0.6508444  3
   5388   5386   5392   9620     1  0.0000000  1.0460000  1
   5388   5386   5392   9620     1  0.0000000  0.0000000  3
   5388   5386   5392   5393     1  0.0000000  0.6508444  3
   5388   5386   5392   5394     1  0.0000000  0.6508444  3
   5392   9620   9616   9619     1  0.0000000  1.6038667  3
   5393   5392   9620   9616     1  0.0000000  1.6038667  3
   5394   5392   9620   9616     1  0.0000000  1.6038667  3
   5395   9643   9639   9642     1  0.0000000  1.6038667  3
   5396   5395   9643   9639     1  0.0000000  1.6038667  3
   5397   5395   9643   9639     1  0.0000000  1.6038667  3
   5400   5401   5413   5414     1  0.0000000  0.6508444  3
   5400   5401   5413   5415     1  0.0000000  0.6508444  3
   5400   5404   5416   5417     1  0.0000000  0.6508444  3
   5400   5404   5416   5418     1  0.0000000  0.6508444  3
   5400   5407   5410   5411     1  0.0000000  0.6508444  3
   5400   5407   5410   5412     1  0.0000000  0.6508444  3
   5401   5400   5404   5405     1  0.0000000  0.6508444  3
   5401   5400   5404   5406     1  0.0000000  0.6508444  3
   5401   5400   5407   5408     1  0.0000000  0.6508444  3
   5401   5400   5407   5409     1  0.0000000  0.6508444  3
   5401   5413   5425   5426     1  0.0000000  0.6508444  3
   5401   5413   5425   5427     1  0.0000000  0.6508444  3
   5402   5401   5400   5404     1  0.0000000  0.6508444  3
   5402   5401   5400   5407     1  0.0000000  0.6508444  3
   5402   5401   5400   5429     1  0.0000000  0.6508444  3
   5402   5401   5413   5425     1  0.0000000  0.6508444  3
   5402   5401   5413   5414     1  0.0000000  0.6508444  3
   5402   5401   5413   5415     1  0.0000000  0.6508444  3
   5403   5401   5400   5404     1  0.0000000  0.6508444  3
   5403   5401   5400   5407     1  0.0000000  0.6508444  3
   5403   5401   5400   5429     1  0.0000000  0.6508444  3
   5403   5401   5413   5425     1  0.0000000  0.6508444  3
   5403   5401   5413   5414     1  0.0000000  0.6508444  3
   5403   5401   5413   5415     1  0.0000000  0.6508444  3
   5404   5400   5407   5408     1  0.0000000  0.6508444  3
   5404   5400   5407   5409     1  0.0000000  0.6508444  3
   5404   5416   5422   5423     1  0.0000000  0.6508444  3
   5404   5416   5422   5424     1  0.0000000  0.6508444  3
   5405   5404   5400   5407     1  0.0000000  0.6508444  3
   5405   5404   5400   5429     1  0.0000000  0.6508444  3
   5405   5404   5416   5422     1  0.0000000  0.6508444  3
   5405   5404   5416   5417     1  0.0000000  0.6508444  3
   5405   5404   5416   5418     1  0.0000000  0.6508444  3
   5406   5404   5400   5407     1  0.0000000  0.6508444  3
   5406   5404   5400   5429     1  0.0000000  0.6508444  3
   5406   5404   5416   5422     1  0.0000000  0.6508444  3
   5406   5404   5416   5417     1  0.0000000  0.6508444  3
   5406   5404   5416   5418     1  0.0000000  0.6508444  3
   5407   5410   5419   5420     1  0.0000000  0.6508444  3
   5407   5410   5419   5421     1  0.0000000  0.6508444  3
   5408   5407   5400   5429     1  0.0000000  0.6508444  3
   5408   5407   5410   5419     1  0.0000000  0.6508444  3
   5408   5407   5410   5411     1  0.0000000  0.6508444  3
   5408   5407   5410   5412     1  0.0000000  0.6508444  3
   5409   5407   5400   5429     1  0.0000000  0.6508444  3
   5409   5407   5410   5419     1  0.0000000  0.6508444  3
   5409   5407   5410   5411     1  0.0000000  0.6508444  3
   5409   5407   5410   5412     1  0.0000000  0.6508444  3
   5410   5407   5400   5429     1  0.0000000  0.6508444  3
   5411   5410   5419   5428     1  0.0000000  1.0460000  1
   5411   5410   5419   5428     1  0.0000000  0.0000000  3
   5411   5410   5419   5420     1  0.0000000  0.6508444  3
   5411   5410   5419   5421     1  0.0000000  0.6508444  3
   5412   5410   5419   5428     1  0.0000000  1.0460000  1
   5412   5410   5419   5428     1  0.0000000  0.0000000  3
   5412   5410   5419   5420     1  0.0000000  0.6508444  3
   5412   5410   5419   5421     1  0.0000000  0.6508444  3
   5413   5401   5400   5429     1  0.0000000  0.6508444  3
   5414   5413   5425   9689     1  0.0000000  1.0460000  1
   5414   5413   5425   9689     1  0.0000000  0.0000000  3
   5414   5413   5425   5426     1  0.0000000  0.6508444  3
   5414   5413   5425   5427     1  0.0000000  0.6508444  3
   5415   5413   5425   9689     1  0.0000000  1.0460000  1
   5415   5413   5425   9689     1  0.0000000  0.0000000  3
   5415   5413   5425   5426     1  0.0000000  0.6508444  3
   5415   5413   5425   5427     1  0.0000000  0.6508444  3
   5416   5404   5400   5429     1  0.0000000  0.6508444  3
   5417   5416   5422   9666     1  0.0000000  1.0460000  1
   5417   5416   5422   9666     1  0.0000000  0.0000000  3
   5417   5416   5422   5423     1  0.0000000  0.6508444  3
   5417   5416   5422   5424     1  0.0000000  0.6508444  3
   5418   5416   5422   9666     1  0.0000000  1.0460000  1
   5418   5416   5422   9666     1  0.0000000  0.0000000  3
   5418   5416   5422   5423     1  0.0000000  0.6508444  3
   5418   5416   5422   5424     1  0.0000000  0.6508444  3
   5422   9666   9662   9665     1  0.0000000  1.6038667  3
   5423   5422   9666   9662     1  0.0000000  1.6038667  3
   5424   5422   9666   9662     1  0.0000000  1.6038667  3
   5425   9689   9685   9688     1  0.0000000  1.6038667  3
   5426   5425   9689   9685     1  0.0000000  1.6038667  3
   5427   5425   9689   9685     1  0.0000000  1.6038667  3
   5430   5431   5443   5444     1  0.0000000  0.6508444  3
   5430   5431   5443   5445     1  0.0000000  0.6508444  3
   5430   5434   5446   5447     1  0.0000000  0.6508444  3
   5430   5434   5446   5448     1  0.0000000  0.6508444  3
   5430   5437   5440   5441     1  0.0000000  0.6508444  3
   5430   5437   5440   5442     1  0.0000000  0.6508444  3
   5431   5430   5434   5435     1  0.0000000  0.6508444  3
   5431   5430   5434   5436     1  0.0000000  0.6508444  3
   5431   5430   5437   5438     1  0.0000000  0.6508444  3
   5431   5430   5437   5439     1  0.0000000  0.6508444  3
   5431   5443   5455   5456     1  0.0000000  0.6508444  3
   5431   5443   5455   5457     1  0.0000000  0.6508444  3
   5432   5431   5430   5434     1  0.0000000  0.6508444  3
   5432   5431   5430   5437     1  0.0000000  0.6508444  3
   5432   5431   5430   5459     1  0.0000000  0.6508444  3
   5432   5431   5443   5455     1  0.0000000  0.6508444  3
   5432   5431   5443   5444     1  0.0000000  0.6508444  3
   5432   5431   5443   5445     1  0.0000000  0.6508444  3
   5433   5431   5430   5434     1  0.0000000  0.6508444  3
   5433   5431   5430   5437     1  0.0000000  0.6508444  3
   5433   5431   5430   5459     1  0.0000000  0.6508444  3
   5433   5431   5443   5455     1  0.0000000  0.6508444  3
   5433   5431   5443   5444     1  0.0000000  0.6508444  3
   5433   5431   5443   5445     1  0.0000000  0.6508444  3
   5434   5430   5437   5438     1  0.0000000  0.6508444  3
   5434   5430   5437   5439     1  0.0000000  0.6508444  3
   5434   5446   5452   5453     1  0.0000000  0.6508444  3
   5434   5446   5452   5454     1  0.0000000  0.6508444  3
   5435   5434   5430   5437     1  0.0000000  0.6508444  3
   5435   5434   5430   5459     1  0.0000000  0.6508444  3
   5435   5434   5446   5452     1  0.0000000  0.6508444  3
   5435   5434   5446   5447     1  0.0000000  0.6508444  3
   5435   5434   5446   5448     1  0.0000000  0.6508444  3
   5436   5434   5430   5437     1  0.0000000  0.6508444  3
   5436   5434   5430   5459     1  0.0000000  0.6508444  3
   5436   5434   5446   5452     1  0.0000000  0.6508444  3
   5436   5434   5446   5447     1  0.0000000  0.6508444  3
   5436   5434   5446   5448     1  0.0000000  0.6508444  3
   5437   5440   5449   5450     1  0.0000000  0.6508444  3
   5437   5440   5449   5451     1  0.0000000  0.6508444  3
   5438   5437   5430   5459     1  0.0000000  0.6508444  3
   5438   5437   5440   5449     1  0.0000000  0.6508444  3
   5438   5437   5440   5441     1  0.0000000  0.6508444  3
   5438   5437   5440   5442     1  0.0000000  0.6508444  3
   5439   5437   5430   5459     1  0.0000000  0.6508444  3
   5439   5437   5440   5449     1  0.0000000  0.6508444  3
   5439   5437   5440   5441     1  0.0000000  0.6508444  3
   5439   5437   5440   5442     1  0.0000000  0.6508444  3
   5440   5437   5430   5459     1  0.0000000  0.6508444  3
   5441   5440   5449   5458     1  0.0000000  1.0460000  1
   5441   5440   5449   5458     1  0.0000000  0.0000000  3
   5441   5440   5449   5450     1  0.0000000  0.6508444  3
   5441   5440   5449   5451     1  0.0000000  0.6508444  3
   5442   5440   5449   5458     1  0.0000000  1.0460000  1
   5442   5440   5449   5458     1  0.0000000  0.0000000  3
   5442   5440   5449   5450     1  0.0000000  0.6508444  3
   5442   5440   5449   5451     1  0.0000000  0.6508444  3
   5443   5431   5430   5459     1  0.0000000  0.6508444  3
   5444   5443   5455   9735     1  0.0000000  1.0460000  1
   5444   5443   5455   9735     1  0.0000000  0.0000000  3
   5444   5443   5455   5456     1  0.0000000  0.6508444  3
   5444   5443   5455   5457     1  0.0000000  0.6508444  3
   5445   5443   5455   9735     1  0.0000000  1.0460000  1
   5445   5443   5455   9735     1  0.0000000  0.0000000  3
   5445   5443   5455   5456     1  0.0000000  0.6508444  3
   5445   5443   5455   5457     1  0.0000000  0.6508444  3
   5446   5434   5430   5459     1  0.0000000  0.6508444  3
   5447   5446   5452   9712     1  0.0000000  1.0460000  1
   5447   5446   5452   9712     1  0.0000000  0.0000000  3
   5447   5446   5452   5453     1  0.0000000  0.6508444  3
   5447   5446   5452   5454     1  0.0000000  0.6508444  3
   5448   5446   5452   9712     1  0.0000000  1.0460000  1
   5448   5446   5452   9712     1  0.0000000  0.0000000  3
   5448   5446   5452   5453     1  0.0000000  0.6508444  3
   5448   5446   5452   5454     1  0.0000000  0.6508444  3
   5452   9712   9708   9711     1  0.0000000  1.6038667  3
   5453   5452   9712   9708     1  0.0000000  1.6038667  3
   5454   5452   9712   9708     1  0.0000000  1.6038667  3
   5455   9735   9731   9734     1  0.0000000  1.6038667  3
   5456   5455   9735   9731     1  0.0000000  1.6038667  3
   5457   5455   9735   9731     1  0.0000000  1.6038667  3
   5460   5461   5473   5474     1  0.0000000  0.6508444  3
   5460   5461   5473   5475     1  0.0000000  0.6508444  3
   5460   5464   5476   5477     1  0.0000000  0.6508444  3
   5460   5464   5476   5478     1  0.0000000  0.6508444  3
   5460   5467   5470   5471     1  0.0000000  0.6508444  3
   5460   5467   5470   5472     1  0.0000000  0.6508444  3
   5461   5460   5464   5465     1  0.0000000  0.6508444  3
   5461   5460   5464   5466     1  0.0000000  0.6508444  3
   5461   5460   5467   5468     1  0.0000000  0.6508444  3
   5461   5460   5467   5469     1  0.0000000  0.6508444  3
   5461   5473   5485   5486     1  0.0000000  0.6508444  3
   5461   5473   5485   5487     1  0.0000000  0.6508444  3
   5462   5461   5460   5464     1  0.0000000  0.6508444  3
   5462   5461   5460   5467     1  0.0000000  0.6508444  3
   5462   5461   5460   5489     1  0.0000000  0.6508444  3
   5462   5461   5473   5485     1  0.0000000  0.6508444  3
   5462   5461   5473   5474     1  0.0000000  0.6508444  3
   5462   5461   5473   5475     1  0.0000000  0.6508444  3
   5463   5461   5460   5464     1  0.0000000  0.6508444  3
   5463   5461   5460   5467     1  0.0000000  0.6508444  3
   5463   5461   5460   5489     1  0.0000000  0.6508444  3
   5463   5461   5473   5485     1  0.0000000  0.6508444  3
   5463   5461   5473   5474     1  0.0000000  0.6508444  3
   5463   5461   5473   5475     1  0.0000000  0.6508444  3
   5464   5460   5467   5468     1  0.0000000  0.6508444  3
   5464   5460   5467   5469     1  0.0000000  0.6508444  3
   5464   5476   5482   5483     1  0.0000000  0.6508444  3
   5464   5476   5482   5484     1  0.0000000  0.6508444  3
   5465   5464   5460   5467     1  0.0000000  0.6508444  3
   5465   5464   5460   5489     1  0.0000000  0.6508444  3
   5465   5464   5476   5482     1  0.0000000  0.6508444  3
   5465   5464   5476   5477     1  0.0000000  0.6508444  3
   5465   5464   5476   5478     1  0.0000000  0.6508444  3
   5466   5464   5460   5467     1  0.0000000  0.6508444  3
   5466   5464   5460   5489     1  0.0000000  0.6508444  3
   5466   5464   5476   5482     1  0.0000000  0.6508444  3
   5466   5464   5476   5477     1  0.0000000  0.6508444  3
   5466   5464   5476   5478     1  0.0000000  0.6508444  3
   5467   5470   5479   5480     1  0.0000000  0.6508444  3
   5467   5470   5479   5481     1  0.0000000  0.6508444  3
   5468   5467   5460   5489     1  0.0000000  0.6508444  3
   5468   5467   5470   5479     1  0.0000000  0.6508444  3
   5468   5467   5470   5471     1  0.0000000  0.6508444  3
   5468   5467   5470   5472     1  0.0000000  0.6508444  3
   5469   5467   5460   5489     1  0.0000000  0.6508444  3
   5469   5467   5470   5479     1  0.0000000  0.6508444  3
   5469   5467   5470   5471     1  0.0000000  0.6508444  3
   5469   5467   5470   5472     1  0.0000000  0.6508444  3
   5470   5467   5460   5489     1  0.0000000  0.6508444  3
   5471   5470   5479   5488     1  0.0000000  1.0460000  1
   5471   5470   5479   5488     1  0.0000000  0.0000000  3
   5471   5470   5479   5480     1  0.0000000  0.6508444  3
   5471   5470   5479   5481     1  0.0000000  0.6508444  3
   5472   5470   5479   5488     1  0.0000000  1.0460000  1
   5472   5470   5479   5488     1  0.0000000  0.0000000  3
   5472   5470   5479   5480     1  0.0000000  0.6508444  3
   5472   5470   5479   5481     1  0.0000000  0.6508444  3
   5473   5461   5460   5489     1  0.0000000  0.6508444  3
   5474   5473   5485   9781     1  0.0000000  1.0460000  1
   5474   5473   5485   9781     1  0.0000000  0.0000000  3
   5474   5473   5485   5486     1  0.0000000  0.6508444  3
   5474   5473   5485   5487     1  0.0000000  0.6508444  3
   5475   5473   5485   9781     1  0.0000000  1.0460000  1
   5475   5473   5485   9781     1  0.0000000  0.0000000  3
   5475   5473   5485   5486     1  0.0000000  0.6508444  3
   5475   5473   5485   5487     1  0.0000000  0.6508444  3
   5476   5464   5460   5489     1  0.0000000  0.6508444  3
   5477   5476   5482   9758     1  0.0000000  1.0460000  1
   5477   5476   5482   9758     1  0.0000000  0.0000000  3
   5477   5476   5482   5483     1  0.0000000  0.6508444  3
   5477   5476   5482   5484     1  0.0000000  0.6508444  3
   5478   5476   5482   9758     1  0.0000000  1.0460000  1
   5478   5476   5482   9758     1  0.0000000  0.0000000  3
   5478   5476   5482   5483     1  0.0000000  0.6508444  3
   5478   5476   5482   5484     1  0.0000000  0.6508444  3
   5482   9758   9754   9757     1  0.0000000  1.6038667  3
   5483   5482   9758   9754     1  0.0000000  1.6038667  3
   5484   5482   9758   9754     1  0.0000000  1.6038667  3
   5485   9781   9777   9780     1  0.0000000  1.6038667  3
   5486   5485   9781   9777     1  0.0000000  1.6038667  3
   5487   5485   9781   9777     1  0.0000000  1.6038667  3
   5490   5491   5503   5504     1  0.0000000  0.6508444  3
   5490   5491   5503   5505     1  0.0000000  0.6508444  3
   5490   5494   5506   5507     1  0.0000000  0.6508444  3
   5490   5494   5506   5508     1  0.0000000  0.6508444  3
   5490   5497   5500   5501     1  0.0000000  0.6508444  3
   5490   5497   5500   5502     1  0.0000000  0.6508444  3
   5491   5490   5494   5495     1  0.0000000  0.6508444  3
   5491   5490   5494   5496     1  0.0000000  0.6508444  3
   5491   5490   5497   5498     1  0.0000000  0.6508444  3
   5491   5490   5497   5499     1  0.0000000  0.6508444  3
   5491   5503   5515   5516     1  0.0000000  0.6508444  3
   5491   5503   5515   5517     1  0.0000000  0.6508444  3
   5492   5491   5490   5494     1  0.0000000  0.6508444  3
   5492   5491   5490   5497     1  0.0000000  0.6508444  3
   5492   5491   5490   5519     1  0.0000000  0.6508444  3
   5492   5491   5503   5515     1  0.0000000  0.6508444  3
   5492   5491   5503   5504     1  0.0000000  0.6508444  3
   5492   5491   5503   5505     1  0.0000000  0.6508444  3
   5493   5491   5490   5494     1  0.0000000  0.6508444  3
   5493   5491   5490   5497     1  0.0000000  0.6508444  3
   5493   5491   5490   5519     1  0.0000000  0.6508444  3
   5493   5491   5503   5515     1  0.0000000  0.6508444  3
   5493   5491   5503   5504     1  0.0000000  0.6508444  3
   5493   5491   5503   5505     1  0.0000000  0.6508444  3
   5494   5490   5497   5498     1  0.0000000  0.6508444  3
   5494   5490   5497   5499     1  0.0000000  0.6508444  3
   5494   5506   5512   5513     1  0.0000000  0.6508444  3
   5494   5506   5512   5514     1  0.0000000  0.6508444  3
   5495   5494   5490   5497     1  0.0000000  0.6508444  3
   5495   5494   5490   5519     1  0.0000000  0.6508444  3
   5495   5494   5506   5512     1  0.0000000  0.6508444  3
   5495   5494   5506   5507     1  0.0000000  0.6508444  3
   5495   5494   5506   5508     1  0.0000000  0.6508444  3
   5496   5494   5490   5497     1  0.0000000  0.6508444  3
   5496   5494   5490   5519     1  0.0000000  0.6508444  3
   5496   5494   5506   5512     1  0.0000000  0.6508444  3
   5496   5494   5506   5507     1  0.0000000  0.6508444  3
   5496   5494   5506   5508     1  0.0000000  0.6508444  3
   5497   5500   5509   5510     1  0.0000000  0.6508444  3
   5497   5500   5509   5511     1  0.0000000  0.6508444  3
   5498   5497   5490   5519     1  0.0000000  0.6508444  3
   5498   5497   5500   5509     1  0.0000000  0.6508444  3
   5498   5497   5500   5501     1  0.0000000  0.6508444  3
   5498   5497   5500   5502     1  0.0000000  0.6508444  3
   5499   5497   5490   5519     1  0.0000000  0.6508444  3
   5499   5497   5500   5509     1  0.0000000  0.6508444  3
   5499   5497   5500   5501     1  0.0000000  0.6508444  3
   5499   5497   5500   5502     1  0.0000000  0.6508444  3
   5500   5497   5490   5519     1  0.0000000  0.6508444  3
   5501   5500   5509   5518     1  0.0000000  1.0460000  1
   5501   5500   5509   5518     1  0.0000000  0.0000000  3
   5501   5500   5509   5510     1  0.0000000  0.6508444  3
   5501   5500   5509   5511     1  0.0000000  0.6508444  3
   5502   5500   5509   5518     1  0.0000000  1.0460000  1
   5502   5500   5509   5518     1  0.0000000  0.0000000  3
   5502   5500   5509   5510     1  0.0000000  0.6508444  3
   5502   5500   5509   5511     1  0.0000000  0.6508444  3
   5503   5491   5490   5519     1  0.0000000  0.6508444  3
   5504   5503   5515   9827     1  0.0000000  1.0460000  1
   5504   5503   5515   9827     1  0.0000000  0.0000000  3
   5504   5503   5515   5516     1  0.0000000  0.6508444  3
   5504   5503   5515   5517     1  0.0000000  0.6508444  3
   5505   5503   5515   9827     1  0.0000000  1.0460000  1
   5505   5503   5515   9827     1  0.0000000  0.0000000  3
   5505   5503   5515   5516     1  0.0000000  0.6508444  3
   5505   5503   5515   5517     1  0.0000000  0.6508444  3
   5506   5494   5490   5519     1  0.0000000  0.6508444  3
   5507   5506   5512   9804     1  0.0000000  1.0460000  1
   5507   5506   5512   9804     1  0.0000000  0.0000000  3
   5507   5506   5512   5513     1  0.0000000  0.6508444  3
   5507   5506   5512   5514     1  0.0000000  0.6508444  3
   5508   5506   5512   9804     1  0.0000000  1.0460000  1
   5508   5506   5512   9804     1  0.0000000  0.0000000  3
   5508   5506   5512   5513     1  0.0000000  0.6508444  3
   5508   5506   5512   5514     1  0.0000000  0.6508444  3
   5512   9804   9800   9803     1  0.0000000  1.6038667  3
   5513   5512   9804   9800     1  0.0000000  1.6038667  3
   5514   5512   9804   9800     1  0.0000000  1.6038667  3
   5515   9827   9823   9826     1  0.0000000  1.6038667  3
   5516   5515   9827   9823     1  0.0000000  1.6038667  3
   5517   5515   9827   9823     1  0.0000000  1.6038667  3
   5520   5521   5533   5534     1  0.0000000  0.6508444  3
   5520   5521   5533   5535     1  0.0000000  0.6508444  3
   5520   5524   5536   5537     1  0.0000000  0.6508444  3
   5520   5524   5536   5538     1  0.0000000  0.6508444  3
   5520   5527   5530   5531     1  0.0000000  0.6508444  3
   5520   5527   5530   5532     1  0.0000000  0.6508444  3
   5521   5520   5524   5525     1  0.0000000  0.6508444  3
   5521   5520   5524   5526     1  0.0000000  0.6508444  3
   5521   5520   5527   5528     1  0.0000000  0.6508444  3
   5521   5520   5527   5529     1  0.0000000  0.6508444  3
   5521   5533   5545   5546     1  0.0000000  0.6508444  3
   5521   5533   5545   5547     1  0.0000000  0.6508444  3
   5522   5521   5520   5524     1  0.0000000  0.6508444  3
   5522   5521   5520   5527     1  0.0000000  0.6508444  3
   5522   5521   5520   5549     1  0.0000000  0.6508444  3
   5522   5521   5533   5545     1  0.0000000  0.6508444  3
   5522   5521   5533   5534     1  0.0000000  0.6508444  3
   5522   5521   5533   5535     1  0.0000000  0.6508444  3
   5523   5521   5520   5524     1  0.0000000  0.6508444  3
   5523   5521   5520   5527     1  0.0000000  0.6508444  3
   5523   5521   5520   5549     1  0.0000000  0.6508444  3
   5523   5521   5533   5545     1  0.0000000  0.6508444  3
   5523   5521   5533   5534     1  0.0000000  0.6508444  3
   5523   5521   5533   5535     1  0.0000000  0.6508444  3
   5524   5520   5527   5528     1  0.0000000  0.6508444  3
   5524   5520   5527   5529     1  0.0000000  0.6508444  3
   5524   5536   5542   5543     1  0.0000000  0.6508444  3
   5524   5536   5542   5544     1  0.0000000  0.6508444  3
   5525   5524   5520   5527     1  0.0000000  0.6508444  3
   5525   5524   5520   5549     1  0.0000000  0.6508444  3
   5525   5524   5536   5542     1  0.0000000  0.6508444  3
   5525   5524   5536   5537     1  0.0000000  0.6508444  3
   5525   5524   5536   5538     1  0.0000000  0.6508444  3
   5526   5524   5520   5527     1  0.0000000  0.6508444  3
   5526   5524   5520   5549     1  0.0000000  0.6508444  3
   5526   5524   5536   5542     1  0.0000000  0.6508444  3
   5526   5524   5536   5537     1  0.0000000  0.6508444  3
   5526   5524   5536   5538     1  0.0000000  0.6508444  3
   5527   5530   5539   5540     1  0.0000000  0.6508444  3
   5527   5530   5539   5541     1  0.0000000  0.6508444  3
   5528   5527   5520   5549     1  0.0000000  0.6508444  3
   5528   5527   5530   5539     1  0.0000000  0.6508444  3
   5528   5527   5530   5531     1  0.0000000  0.6508444  3
   5528   5527   5530   5532     1  0.0000000  0.6508444  3
   5529   5527   5520   5549     1  0.0000000  0.6508444  3
   5529   5527   5530   5539     1  0.0000000  0.6508444  3
   5529   5527   5530   5531     1  0.0000000  0.6508444  3
   5529   5527   5530   5532     1  0.0000000  0.6508444  3
   5530   5527   5520   5549     1  0.0000000  0.6508444  3
   5531   5530   5539   5548     1  0.0000000  1.0460000  1
   5531   5530   5539   5548     1  0.0000000  0.0000000  3
   5531   5530   5539   5540     1  0.0000000  0.6508444  3
   5531   5530   5539   5541     1  0.0000000  0.6508444  3
   5532   5530   5539   5548     1  0.0000000  1.0460000  1
   5532   5530   5539   5548     1  0.0000000  0.0000000  3
   5532   5530   5539   5540     1  0.0000000  0.6508444  3
   5532   5530   5539   5541     1  0.0000000  0.6508444  3
   5533   5521   5520   5549     1  0.0000000  0.6508444  3
   5534   5533   5545   9873     1  0.0000000  1.0460000  1
   5534   5533   5545   9873     1  0.0000000  0.0000000  3
   5534   5533   5545   5546     1  0.0000000  0.6508444  3
   5534   5533   5545   5547     1  0.0000000  0.6508444  3
   5535   5533   5545   9873     1  0.0000000  1.0460000  1
   5535   5533   5545   9873     1  0.0000000  0.0000000  3
   5535   5533   5545   5546     1  0.0000000  0.6508444  3
   5535   5533   5545   5547     1  0.0000000  0.6508444  3
   5536   5524   5520   5549     1  0.0000000  0.6508444  3
   5537   5536   5542   9850     1  0.0000000  1.0460000  1
   5537   5536   5542   9850     1  0.0000000  0.0000000  3
   5537   5536   5542   5543     1  0.0000000  0.6508444  3
   5537   5536   5542   5544     1  0.0000000  0.6508444  3
   5538   5536   5542   9850     1  0.0000000  1.0460000  1
   5538   5536   5542   9850     1  0.0000000  0.0000000  3
   5538   5536   5542   5543     1  0.0000000  0.6508444  3
   5538   5536   5542   5544     1  0.0000000  0.6508444  3
   5542   9850   9846   9849     1  0.0000000  1.6038667  3
   5543   5542   9850   9846     1  0.0000000  1.6038667  3
   5544   5542   9850   9846     1  0.0000000  1.6038667  3
   5545   9873   9869   9872     1  0.0000000  1.6038667  3
   5546   5545   9873   9869     1  0.0000000  1.6038667  3
   5547   5545   9873   9869     1  0.0000000  1.6038667  3
   5550   5551   5563   5564     1  0.0000000  0.6508444  3
   5550   5551   5563   5565     1  0.0000000  0.6508444  3
   5550   5554   5566   5567     1  0.0000000  0.6508444  3
   5550   5554   5566   5568     1  0.0000000  0.6508444  3
   5550   5557   5560   5561     1  0.0000000  0.6508444  3
   5550   5557   5560   5562     1  0.0000000  0.6508444  3
   5551   5550   5554   5555     1  0.0000000  0.6508444  3
   5551   5550   5554   5556     1  0.0000000  0.6508444  3
   5551   5550   5557   5558     1  0.0000000  0.6508444  3
   5551   5550   5557   5559     1  0.0000000  0.6508444  3
   5551   5563   5575   5576     1  0.0000000  0.6508444  3
   5551   5563   5575   5577     1  0.0000000  0.6508444  3
   5552   5551   5550   5554     1  0.0000000  0.6508444  3
   5552   5551   5550   5557     1  0.0000000  0.6508444  3
   5552   5551   5550   5579     1  0.0000000  0.6508444  3
   5552   5551   5563   5575     1  0.0000000  0.6508444  3
   5552   5551   5563   5564     1  0.0000000  0.6508444  3
   5552   5551   5563   5565     1  0.0000000  0.6508444  3
   5553   5551   5550   5554     1  0.0000000  0.6508444  3
   5553   5551   5550   5557     1  0.0000000  0.6508444  3
   5553   5551   5550   5579     1  0.0000000  0.6508444  3
   5553   5551   5563   5575     1  0.0000000  0.6508444  3
   5553   5551   5563   5564     1  0.0000000  0.6508444  3
   5553   5551   5563   5565     1  0.0000000  0.6508444  3
   5554   5550   5557   5558     1  0.0000000  0.6508444  3
   5554   5550   5557   5559     1  0.0000000  0.6508444  3
   5554   5566   5572   5573     1  0.0000000  0.6508444  3
   5554   5566   5572   5574     1  0.0000000  0.6508444  3
   5555   5554   5550   5557     1  0.0000000  0.6508444  3
   5555   5554   5550   5579     1  0.0000000  0.6508444  3
   5555   5554   5566   5572     1  0.0000000  0.6508444  3
   5555   5554   5566   5567     1  0.0000000  0.6508444  3
   5555   5554   5566   5568     1  0.0000000  0.6508444  3
   5556   5554   5550   5557     1  0.0000000  0.6508444  3
   5556   5554   5550   5579     1  0.0000000  0.6508444  3
   5556   5554   5566   5572     1  0.0000000  0.6508444  3
   5556   5554   5566   5567     1  0.0000000  0.6508444  3
   5556   5554   5566   5568     1  0.0000000  0.6508444  3
   5557   5560   5569   5570     1  0.0000000  0.6508444  3
   5557   5560   5569   5571     1  0.0000000  0.6508444  3
   5558   5557   5550   5579     1  0.0000000  0.6508444  3
   5558   5557   5560   5569     1  0.0000000  0.6508444  3
   5558   5557   5560   5561     1  0.0000000  0.6508444  3
   5558   5557   5560   5562     1  0.0000000  0.6508444  3
   5559   5557   5550   5579     1  0.0000000  0.6508444  3
   5559   5557   5560   5569     1  0.0000000  0.6508444  3
   5559   5557   5560   5561     1  0.0000000  0.6508444  3
   5559   5557   5560   5562     1  0.0000000  0.6508444  3
   5560   5557   5550   5579     1  0.0000000  0.6508444  3
   5561   5560   5569   5578     1  0.0000000  1.0460000  1
   5561   5560   5569   5578     1  0.0000000  0.0000000  3
   5561   5560   5569   5570     1  0.0000000  0.6508444  3
   5561   5560   5569   5571     1  0.0000000  0.6508444  3
   5562   5560   5569   5578     1  0.0000000  1.0460000  1
   5562   5560   5569   5578     1  0.0000000  0.0000000  3
   5562   5560   5569   5570     1  0.0000000  0.6508444  3
   5562   5560   5569   5571     1  0.0000000  0.6508444  3
   5563   5551   5550   5579     1  0.0000000  0.6508444  3
   5564   5563   5575   9919     1  0.0000000  1.0460000  1
   5564   5563   5575   9919     1  0.0000000  0.0000000  3
   5564   5563   5575   5576     1  0.0000000  0.6508444  3
   5564   5563   5575   5577     1  0.0000000  0.6508444  3
   5565   5563   5575   9919     1  0.0000000  1.0460000  1
   5565   5563   5575   9919     1  0.0000000  0.0000000  3
   5565   5563   5575   5576     1  0.0000000  0.6508444  3
   5565   5563   5575   5577     1  0.0000000  0.6508444  3
   5566   5554   5550   5579     1  0.0000000  0.6508444  3
   5567   5566   5572   9896     1  0.0000000  1.0460000  1
   5567   5566   5572   9896     1  0.0000000  0.0000000  3
   5567   5566   5572   5573     1  0.0000000  0.6508444  3
   5567   5566   5572   5574     1  0.0000000  0.6508444  3
   5568   5566   5572   9896     1  0.0000000  1.0460000  1
   5568   5566   5572   9896     1  0.0000000  0.0000000  3
   5568   5566   5572   5573     1  0.0000000  0.6508444  3
   5568   5566   5572   5574     1  0.0000000  0.6508444  3
   5572   9896   9892   9895     1  0.0000000  1.6038667  3
   5573   5572   9896   9892     1  0.0000000  1.6038667  3
   5574   5572   9896   9892     1  0.0000000  1.6038667  3
   5575   9919   9915   9918     1  0.0000000  1.6038667  3
   5576   5575   9919   9915     1  0.0000000  1.6038667  3
   5577   5575   9919   9915     1  0.0000000  1.6038667  3
   5580   5581   5593   5594     1  0.0000000  0.6508444  3
   5580   5581   5593   5595     1  0.0000000  0.6508444  3
   5580   5584   5596   5597     1  0.0000000  0.6508444  3
   5580   5584   5596   5598     1  0.0000000  0.6508444  3
   5580   5587   5590   5591     1  0.0000000  0.6508444  3
   5580   5587   5590   5592     1  0.0000000  0.6508444  3
   5581   5580   5584   5585     1  0.0000000  0.6508444  3
   5581   5580   5584   5586     1  0.0000000  0.6508444  3
   5581   5580   5587   5588     1  0.0000000  0.6508444  3
   5581   5580   5587   5589     1  0.0000000  0.6508444  3
   5581   5593   5605   5606     1  0.0000000  0.6508444  3
   5581   5593   5605   5607     1  0.0000000  0.6508444  3
   5582   5581   5580   5584     1  0.0000000  0.6508444  3
   5582   5581   5580   5587     1  0.0000000  0.6508444  3
   5582   5581   5580   5609     1  0.0000000  0.6508444  3
   5582   5581   5593   5605     1  0.0000000  0.6508444  3
   5582   5581   5593   5594     1  0.0000000  0.6508444  3
   5582   5581   5593   5595     1  0.0000000  0.6508444  3
   5583   5581   5580   5584     1  0.0000000  0.6508444  3
   5583   5581   5580   5587     1  0.0000000  0.6508444  3
   5583   5581   5580   5609     1  0.0000000  0.6508444  3
   5583   5581   5593   5605     1  0.0000000  0.6508444  3
   5583   5581   5593   5594     1  0.0000000  0.6508444  3
   5583   5581   5593   5595     1  0.0000000  0.6508444  3
   5584   5580   5587   5588     1  0.0000000  0.6508444  3
   5584   5580   5587   5589     1  0.0000000  0.6508444  3
   5584   5596   5602   5603     1  0.0000000  0.6508444  3
   5584   5596   5602   5604     1  0.0000000  0.6508444  3
   5585   5584   5580   5587     1  0.0000000  0.6508444  3
   5585   5584   5580   5609     1  0.0000000  0.6508444  3
   5585   5584   5596   5602     1  0.0000000  0.6508444  3
   5585   5584   5596   5597     1  0.0000000  0.6508444  3
   5585   5584   5596   5598     1  0.0000000  0.6508444  3
   5586   5584   5580   5587     1  0.0000000  0.6508444  3
   5586   5584   5580   5609     1  0.0000000  0.6508444  3
   5586   5584   5596   5602     1  0.0000000  0.6508444  3
   5586   5584   5596   5597     1  0.0000000  0.6508444  3
   5586   5584   5596   5598     1  0.0000000  0.6508444  3
   5587   5590   5599   5600     1  0.0000000  0.6508444  3
   5587   5590   5599   5601     1  0.0000000  0.6508444  3
   5588   5587   5580   5609     1  0.0000000  0.6508444  3
   5588   5587   5590   5599     1  0.0000000  0.6508444  3
   5588   5587   5590   5591     1  0.0000000  0.6508444  3
   5588   5587   5590   5592     1  0.0000000  0.6508444  3
   5589   5587   5580   5609     1  0.0000000  0.6508444  3
   5589   5587   5590   5599     1  0.0000000  0.6508444  3
   5589   5587   5590   5591     1  0.0000000  0.6508444  3
   5589   5587   5590   5592     1  0.0000000  0.6508444  3
   5590   5587   5580   5609     1  0.0000000  0.6508444  3
   5591   5590   5599   5608     1  0.0000000  1.0460000  1
   5591   5590   5599   5608     1  0.0000000  0.0000000  3
   5591   5590   5599   5600     1  0.0000000  0.6508444  3
   5591   5590   5599   5601     1  0.0000000  0.6508444  3
   5592   5590   5599   5608     1  0.0000000  1.0460000  1
   5592   5590   5599   5608     1  0.0000000  0.0000000  3
   5592   5590   5599   5600     1  0.0000000  0.6508444  3
   5592   5590   5599   5601     1  0.0000000  0.6508444  3
   5593   5581   5580   5609     1  0.0000000  0.6508444  3
   5594   5593   5605   9965     1  0.0000000  1.0460000  1
   5594   5593   5605   9965     1  0.0000000  0.0000000  3
   5594   5593   5605   5606     1  0.0000000  0.6508444  3
   5594   5593   5605   5607     1  0.0000000  0.6508444  3
   5595   5593   5605   9965     1  0.0000000  1.0460000  1
   5595   5593   5605   9965     1  0.0000000  0.0000000  3
   5595   5593   5605   5606     1  0.0000000  0.6508444  3
   5595   5593   5605   5607     1  0.0000000  0.6508444  3
   5596   5584   5580   5609     1  0.0000000  0.6508444  3
   5597   5596   5602   9942     1  0.0000000  1.0460000  1
   5597   5596   5602   9942     1  0.0000000  0.0000000  3
   5597   5596   5602   5603     1  0.0000000  0.6508444  3
   5597   5596   5602   5604     1  0.0000000  0.6508444  3
   5598   5596   5602   9942     1  0.0000000  1.0460000  1
   5598   5596   5602   9942     1  0.0000000  0.0000000  3
   5598   5596   5602   5603     1  0.0000000  0.6508444  3
   5598   5596   5602   5604     1  0.0000000  0.6508444  3
   5602   9942   9938   9941     1  0.0000000  1.6038667  3
   5603   5602   9942   9938     1  0.0000000  1.6038667  3
   5604   5602   9942   9938     1  0.0000000  1.6038667  3
   5605   9965   9961   9964     1  0.0000000  1.6038667  3
   5606   5605   9965   9961     1  0.0000000  1.6038667  3
   5607   5605   9965   9961     1  0.0000000  1.6038667  3
   5610   5611   5623   5624     1  0.0000000  0.6508444  3
   5610   5611   5623   5625     1  0.0000000  0.6508444  3
   5610   5614   5626   5627     1  0.0000000  0.6508444  3
   5610   5614   5626   5628     1  0.0000000  0.6508444  3
   5610   5617   5620   5621     1  0.0000000  0.6508444  3
   5610   5617   5620   5622     1  0.0000000  0.6508444  3
   5611   5610   5614   5615     1  0.0000000  0.6508444  3
   5611   5610   5614   5616     1  0.0000000  0.6508444  3
   5611   5610   5617   5618     1  0.0000000  0.6508444  3
   5611   5610   5617   5619     1  0.0000000  0.6508444  3
   5611   5623   5635   5636     1  0.0000000  0.6508444  3
   5611   5623   5635   5637     1  0.0000000  0.6508444  3
   5612   5611   5610   5614     1  0.0000000  0.6508444  3
   5612   5611   5610   5617     1  0.0000000  0.6508444  3
   5612   5611   5610   5639     1  0.0000000  0.6508444  3
   5612   5611   5623   5635     1  0.0000000  0.6508444  3
   5612   5611   5623   5624     1  0.0000000  0.6508444  3
   5612   5611   5623   5625     1  0.0000000  0.6508444  3
   5613   5611   5610   5614     1  0.0000000  0.6508444  3
   5613   5611   5610   5617     1  0.0000000  0.6508444  3
   5613   5611   5610   5639     1  0.0000000  0.6508444  3
   5613   5611   5623   5635     1  0.0000000  0.6508444  3
   5613   5611   5623   5624     1  0.0000000  0.6508444  3
   5613   5611   5623   5625     1  0.0000000  0.6508444  3
   5614   5610   5617   5618     1  0.0000000  0.6508444  3
   5614   5610   5617   5619     1  0.0000000  0.6508444  3
   5614   5626   5632   5633     1  0.0000000  0.6508444  3
   5614   5626   5632   5634     1  0.0000000  0.6508444  3
   5615   5614   5610   5617     1  0.0000000  0.6508444  3
   5615   5614   5610   5639     1  0.0000000  0.6508444  3
   5615   5614   5626   5632     1  0.0000000  0.6508444  3
   5615   5614   5626   5627     1  0.0000000  0.6508444  3
   5615   5614   5626   5628     1  0.0000000  0.6508444  3
   5616   5614   5610   5617     1  0.0000000  0.6508444  3
   5616   5614   5610   5639     1  0.0000000  0.6508444  3
   5616   5614   5626   5632     1  0.0000000  0.6508444  3
   5616   5614   5626   5627     1  0.0000000  0.6508444  3
   5616   5614   5626   5628     1  0.0000000  0.6508444  3
   5617   5620   5629   5630     1  0.0000000  0.6508444  3
   5617   5620   5629   5631     1  0.0000000  0.6508444  3
   5618   5617   5610   5639     1  0.0000000  0.6508444  3
   5618   5617   5620   5629     1  0.0000000  0.6508444  3
   5618   5617   5620   5621     1  0.0000000  0.6508444  3
   5618   5617   5620   5622     1  0.0000000  0.6508444  3
   5619   5617   5610   5639     1  0.0000000  0.6508444  3
   5619   5617   5620   5629     1  0.0000000  0.6508444  3
   5619   5617   5620   5621     1  0.0000000  0.6508444  3
   5619   5617   5620   5622     1  0.0000000  0.6508444  3
   5620   5617   5610   5639     1  0.0000000  0.6508444  3
   5621   5620   5629   5638     1  0.0000000  1.0460000  1
   5621   5620   5629   5638     1  0.0000000  0.0000000  3
   5621   5620   5629   5630     1  0.0000000  0.6508444  3
   5621   5620   5629   5631     1  0.0000000  0.6508444  3
   5622   5620   5629   5638     1  0.0000000  1.0460000  1
   5622   5620   5629   5638     1  0.0000000  0.0000000  3
   5622   5620   5629   5630     1  0.0000000  0.6508444  3
   5622   5620   5629   5631     1  0.0000000  0.6508444  3
   5623   5611   5610   5639     1  0.0000000  0.6508444  3
   5624   5623   5635  10011     1  0.0000000  1.0460000  1
   5624   5623   5635  10011     1  0.0000000  0.0000000  3
   5624   5623   5635   5636     1  0.0000000  0.6508444  3
   5624   5623   5635   5637     1  0.0000000  0.6508444  3
   5625   5623   5635  10011     1  0.0000000  1.0460000  1
   5625   5623   5635  10011     1  0.0000000  0.0000000  3
   5625   5623   5635   5636     1  0.0000000  0.6508444  3
   5625   5623   5635   5637     1  0.0000000  0.6508444  3
   5626   5614   5610   5639     1  0.0000000  0.6508444  3
   5627   5626   5632   9988     1  0.0000000  1.0460000  1
   5627   5626   5632   9988     1  0.0000000  0.0000000  3
   5627   5626   5632   5633     1  0.0000000  0.6508444  3
   5627   5626   5632   5634     1  0.0000000  0.6508444  3
   5628   5626   5632   9988     1  0.0000000  1.0460000  1
   5628   5626   5632   9988     1  0.0000000  0.0000000  3
   5628   5626   5632   5633     1  0.0000000  0.6508444  3
   5628   5626   5632   5634     1  0.0000000  0.6508444  3
   5632   9988   9984   9987     1  0.0000000  1.6038667  3
   5633   5632   9988   9984     1  0.0000000  1.6038667  3
   5634   5632   9988   9984     1  0.0000000  1.6038667  3
   5635  10011  10007  10010     1  0.0000000  1.6038667  3
   5636   5635  10011  10007     1  0.0000000  1.6038667  3
   5637   5635  10011  10007     1  0.0000000  1.6038667  3
   5640   5641   5653   5654     1  0.0000000  0.6508444  3
   5640   5641   5653   5655     1  0.0000000  0.6508444  3
   5640   5644   5656   5657     1  0.0000000  0.6508444  3
   5640   5644   5656   5658     1  0.0000000  0.6508444  3
   5640   5647   5650   5651     1  0.0000000  0.6508444  3
   5640   5647   5650   5652     1  0.0000000  0.6508444  3
   5641   5640   5644   5645     1  0.0000000  0.6508444  3
   5641   5640   5644   5646     1  0.0000000  0.6508444  3
   5641   5640   5647   5648     1  0.0000000  0.6508444  3
   5641   5640   5647   5649     1  0.0000000  0.6508444  3
   5641   5653   5665   5666     1  0.0000000  0.6508444  3
   5641   5653   5665   5667     1  0.0000000  0.6508444  3
   5642   5641   5640   5644     1  0.0000000  0.6508444  3
   5642   5641   5640   5647     1  0.0000000  0.6508444  3
   5642   5641   5640   5669     1  0.0000000  0.6508444  3
   5642   5641   5653   5665     1  0.0000000  0.6508444  3
   5642   5641   5653   5654     1  0.0000000  0.6508444  3
   5642   5641   5653   5655     1  0.0000000  0.6508444  3
   5643   5641   5640   5644     1  0.0000000  0.6508444  3
   5643   5641   5640   5647     1  0.0000000  0.6508444  3
   5643   5641   5640   5669     1  0.0000000  0.6508444  3
   5643   5641   5653   5665     1  0.0000000  0.6508444  3
   5643   5641   5653   5654     1  0.0000000  0.6508444  3
   5643   5641   5653   5655     1  0.0000000  0.6508444  3
   5644   5640   5647   5648     1  0.0000000  0.6508444  3
   5644   5640   5647   5649     1  0.0000000  0.6508444  3
   5644   5656   5662   5663     1  0.0000000  0.6508444  3
   5644   5656   5662   5664     1  0.0000000  0.6508444  3
   5645   5644   5640   5647     1  0.0000000  0.6508444  3
   5645   5644   5640   5669     1  0.0000000  0.6508444  3
   5645   5644   5656   5662     1  0.0000000  0.6508444  3
   5645   5644   5656   5657     1  0.0000000  0.6508444  3
   5645   5644   5656   5658     1  0.0000000  0.6508444  3
   5646   5644   5640   5647     1  0.0000000  0.6508444  3
   5646   5644   5640   5669     1  0.0000000  0.6508444  3
   5646   5644   5656   5662     1  0.0000000  0.6508444  3
   5646   5644   5656   5657     1  0.0000000  0.6508444  3
   5646   5644   5656   5658     1  0.0000000  0.6508444  3
   5647   5650   5659   5660     1  0.0000000  0.6508444  3
   5647   5650   5659   5661     1  0.0000000  0.6508444  3
   5648   5647   5640   5669     1  0.0000000  0.6508444  3
   5648   5647   5650   5659     1  0.0000000  0.6508444  3
   5648   5647   5650   5651     1  0.0000000  0.6508444  3
   5648   5647   5650   5652     1  0.0000000  0.6508444  3
   5649   5647   5640   5669     1  0.0000000  0.6508444  3
   5649   5647   5650   5659     1  0.0000000  0.6508444  3
   5649   5647   5650   5651     1  0.0000000  0.6508444  3
   5649   5647   5650   5652     1  0.0000000  0.6508444  3
   5650   5647   5640   5669     1  0.0000000  0.6508444  3
   5651   5650   5659   5668     1  0.0000000  1.0460000  1
   5651   5650   5659   5668     1  0.0000000  0.0000000  3
   5651   5650   5659   5660     1  0.0000000  0.6508444  3
   5651   5650   5659   5661     1  0.0000000  0.6508444  3
   5652   5650   5659   5668     1  0.0000000  1.0460000  1
   5652   5650   5659   5668     1  0.0000000  0.0000000  3
   5652   5650   5659   5660     1  0.0000000  0.6508444  3
   5652   5650   5659   5661     1  0.0000000  0.6508444  3
   5653   5641   5640   5669     1  0.0000000  0.6508444  3
   5654   5653   5665  10057     1  0.0000000  1.0460000  1
   5654   5653   5665  10057     1  0.0000000  0.0000000  3
   5654   5653   5665   5666     1  0.0000000  0.6508444  3
   5654   5653   5665   5667     1  0.0000000  0.6508444  3
   5655   5653   5665  10057     1  0.0000000  1.0460000  1
   5655   5653   5665  10057     1  0.0000000  0.0000000  3
   5655   5653   5665   5666     1  0.0000000  0.6508444  3
   5655   5653   5665   5667     1  0.0000000  0.6508444  3
   5656   5644   5640   5669     1  0.0000000  0.6508444  3
   5657   5656   5662  10034     1  0.0000000  1.0460000  1
   5657   5656   5662  10034     1  0.0000000  0.0000000  3
   5657   5656   5662   5663     1  0.0000000  0.6508444  3
   5657   5656   5662   5664     1  0.0000000  0.6508444  3
   5658   5656   5662  10034     1  0.0000000  1.0460000  1
   5658   5656   5662  10034     1  0.0000000  0.0000000  3
   5658   5656   5662   5663     1  0.0000000  0.6508444  3
   5658   5656   5662   5664     1  0.0000000  0.6508444  3
   5662  10034  10030  10033     1  0.0000000  1.6038667  3
   5663   5662  10034  10030     1  0.0000000  1.6038667  3
   5664   5662  10034  10030     1  0.0000000  1.6038667  3
   5665  10057  10053  10056     1  0.0000000  1.6038667  3
   5666   5665  10057  10053     1  0.0000000  1.6038667  3
   5667   5665  10057  10053     1  0.0000000  1.6038667  3
   5670   5671   5683   5684     1  0.0000000  0.6508444  3
   5670   5671   5683   5685     1  0.0000000  0.6508444  3
   5670   5674   5686   5687     1  0.0000000  0.6508444  3
   5670   5674   5686   5688     1  0.0000000  0.6508444  3
   5670   5677   5680   5681     1  0.0000000  0.6508444  3
   5670   5677   5680   5682     1  0.0000000  0.6508444  3
   5671   5670   5674   5675     1  0.0000000  0.6508444  3
   5671   5670   5674   5676     1  0.0000000  0.6508444  3
   5671   5670   5677   5678     1  0.0000000  0.6508444  3
   5671   5670   5677   5679     1  0.0000000  0.6508444  3
   5671   5683   5695   5696     1  0.0000000  0.6508444  3
   5671   5683   5695   5697     1  0.0000000  0.6508444  3
   5672   5671   5670   5674     1  0.0000000  0.6508444  3
   5672   5671   5670   5677     1  0.0000000  0.6508444  3
   5672   5671   5670   5699     1  0.0000000  0.6508444  3
   5672   5671   5683   5695     1  0.0000000  0.6508444  3
   5672   5671   5683   5684     1  0.0000000  0.6508444  3
   5672   5671   5683   5685     1  0.0000000  0.6508444  3
   5673   5671   5670   5674     1  0.0000000  0.6508444  3
   5673   5671   5670   5677     1  0.0000000  0.6508444  3
   5673   5671   5670   5699     1  0.0000000  0.6508444  3
   5673   5671   5683   5695     1  0.0000000  0.6508444  3
   5673   5671   5683   5684     1  0.0000000  0.6508444  3
   5673   5671   5683   5685     1  0.0000000  0.6508444  3
   5674   5670   5677   5678     1  0.0000000  0.6508444  3
   5674   5670   5677   5679     1  0.0000000  0.6508444  3
   5674   5686   5692   5693     1  0.0000000  0.6508444  3
   5674   5686   5692   5694     1  0.0000000  0.6508444  3
   5675   5674   5670   5677     1  0.0000000  0.6508444  3
   5675   5674   5670   5699     1  0.0000000  0.6508444  3
   5675   5674   5686   5692     1  0.0000000  0.6508444  3
   5675   5674   5686   5687     1  0.0000000  0.6508444  3
   5675   5674   5686   5688     1  0.0000000  0.6508444  3
   5676   5674   5670   5677     1  0.0000000  0.6508444  3
   5676   5674   5670   5699     1  0.0000000  0.6508444  3
   5676   5674   5686   5692     1  0.0000000  0.6508444  3
   5676   5674   5686   5687     1  0.0000000  0.6508444  3
   5676   5674   5686   5688     1  0.0000000  0.6508444  3
   5677   5680   5689   5690     1  0.0000000  0.6508444  3
   5677   5680   5689   5691     1  0.0000000  0.6508444  3
   5678   5677   5670   5699     1  0.0000000  0.6508444  3
   5678   5677   5680   5689     1  0.0000000  0.6508444  3
   5678   5677   5680   5681     1  0.0000000  0.6508444  3
   5678   5677   5680   5682     1  0.0000000  0.6508444  3
   5679   5677   5670   5699     1  0.0000000  0.6508444  3
   5679   5677   5680   5689     1  0.0000000  0.6508444  3
   5679   5677   5680   5681     1  0.0000000  0.6508444  3
   5679   5677   5680   5682     1  0.0000000  0.6508444  3
   5680   5677   5670   5699     1  0.0000000  0.6508444  3
   5681   5680   5689   5698     1  0.0000000  1.0460000  1
   5681   5680   5689   5698     1  0.0000000  0.0000000  3
   5681   5680   5689   5690     1  0.0000000  0.6508444  3
   5681   5680   5689   5691     1  0.0000000  0.6508444  3
   5682   5680   5689   5698     1  0.0000000  1.0460000  1
   5682   5680   5689   5698     1  0.0000000  0.0000000  3
   5682   5680   5689   5690     1  0.0000000  0.6508444  3
   5682   5680   5689   5691     1  0.0000000  0.6508444  3
   5683   5671   5670   5699     1  0.0000000  0.6508444  3
   5684   5683   5695  10103     1  0.0000000  1.0460000  1
   5684   5683   5695  10103     1  0.0000000  0.0000000  3
   5684   5683   5695   5696     1  0.0000000  0.6508444  3
   5684   5683   5695   5697     1  0.0000000  0.6508444  3
   5685   5683   5695  10103     1  0.0000000  1.0460000  1
   5685   5683   5695  10103     1  0.0000000  0.0000000  3
   5685   5683   5695   5696     1  0.0000000  0.6508444  3
   5685   5683   5695   5697     1  0.0000000  0.6508444  3
   5686   5674   5670   5699     1  0.0000000  0.6508444  3
   5687   5686   5692  10080     1  0.0000000  1.0460000  1
   5687   5686   5692  10080     1  0.0000000  0.0000000  3
   5687   5686   5692   5693     1  0.0000000  0.6508444  3
   5687   5686   5692   5694     1  0.0000000  0.6508444  3
   5688   5686   5692  10080     1  0.0000000  1.0460000  1
   5688   5686   5692  10080     1  0.0000000  0.0000000  3
   5688   5686   5692   5693     1  0.0000000  0.6508444  3
   5688   5686   5692   5694     1  0.0000000  0.6508444  3
   5692  10080  10076  10079     1  0.0000000  1.6038667  3
   5693   5692  10080  10076     1  0.0000000  1.6038667  3
   5694   5692  10080  10076     1  0.0000000  1.6038667  3
   5695  10103  10099  10102     1  0.0000000  1.6038667  3
   5696   5695  10103  10099     1  0.0000000  1.6038667  3
   5697   5695  10103  10099     1  0.0000000  1.6038667  3
   5700   5701   5704   5708     1  0.0000000  0.6508444  3
   5700   5701   5713   5716     1  0.0000000  1.0460000  1
   5700   5701   5713   5716     1  0.0000000  0.6694400  3
   5700   5714   5720   5721     1  0.0000000  1.0460000  1
   5700   5714   5720   5721     1  0.0000000  0.6694400  3
   5700   5722   5706   5709     1  0.0000000  1.6038667  3
   5701   5700   5714   5718     1  0.0000000  0.6508444  3
   5701   5700   5714   5719     1  0.0000000  0.6508444  3
   5701   5704   5705   5707     1  0.0000000  0.6508444  3
   5701   5704   5712   5715     1  0.0000000  1.0460000  1
   5701   5704   5712   5715     1  0.0000000  0.6694400  3
   5702   5700   5701   5704     1  0.0000000  0.6508444  3
   5702   5700   5701   5713     1  0.0000000  1.0460000  1
   5702   5700   5701   5713     1  0.0000000  0.0000000  3
   5702   5700   5701   5703     1  0.0000000  0.6508444  3
   5702   5700   5714   5720     1  0.0000000  1.0460000  1
   5702   5700   5714   5720     1  0.0000000  0.0000000  3
   5702   5700   5714   5718     1  0.0000000  0.6508444  3
   5702   5700   5714   5719     1  0.0000000  0.6508444  3
   5702   5700   5722   5706     1  0.0000000  1.6038667  3
   5703   5701   5700   5714     1  0.0000000  0.6508444  3
   5703   5701   5700   5722     1  0.0000000  1.0460000  1
   5703   5701   5700   5722     1  0.0000000  0.0000000  3
   5703   5701   5704   5705     1  0.0000000  0.6508444  3
   5703   5701   5704   5712     1  0.0000000  1.0460000  1
   5703   5701   5704   5712     1  0.0000000  0.0000000  3
   5703   5701   5704   5708     1  0.0000000  0.6508444  3
   5703   5701   5713   5716     1  0.0000000  0.6973333  3
   5704   5701   5713   5716     1  0.0000000  1.0460000  1
   5704   5701   5713   5716     1  0.0000000  0.6694400  3
   5704   5705   5706   5709     1  0.0000000  0.6508444  3
   5704   5705   5711   5717     1  0.0000000  1.0460000  1
   5704   5705   5711   5717     1  0.0000000  0.6694400  3
   5705   5704   5712   5715     1  0.0000000  1.0460000  1
   5705   5704   5712   5715     1  0.0000000  0.6694400  3
   5706   5705   5704   5708     1  0.0000000  0.6508444  3
   5706   5705   5711   5717     1  0.0000000  1.0460000  1
   5706   5705   5711   5717     1  0.0000000  0.6694400  3
   5707   5705   5704   5712     1  0.0000000  1.0460000  1
   5707   5705   5704   5712     1  0.0000000  0.0000000  3
   5707   5705   5704   5708     1  0.0000000  0.6508444  3
   5707   5705   5706   5710     1  0.0000000  1.0460000  1
   5707   5705   5706   5710     1  0.0000000  0.0000000  3
   5707   5705   5706   5722     1  0.0000000  1.0460000  1
   5707   5705   5706   5722     1  0.0000000  0.0000000  3
   5707   5705   5706   5709     1  0.0000000  0.6508444  3
   5707   5705   5711   5717     1  0.0000000  0.6973333  3
   5708   5704   5701   5713     1  0.0000000  1.0460000  1
   5708   5704   5701   5713     1  0.0000000  0.0000000  3
   5708   5704   5705   5711     1  0.0000000  1.0460000  1
   5708   5704   5705   5711     1  0.0000000  0.0000000  3
   5708   5704   5712   5715     1  0.0000000  0.6973333  3
   5709   5706   5705   5711     1  0.0000000  0.6508444  3
   5718   5714   5700   5722     1  0.0000000  1.0460000  1
   5718   5714   5700   5722     1  0.0000000  0.0000000  3
   5718   5714   5720   5721     1  0.0000000  0.6973333  3
   5719   5714   5700   5722     1  0.0000000  1.0460000  1
   5719   5714   5700   5722     1  0.0000000  0.0000000  3
   5719   5714   5720   5721     1  0.0000000  0.6973333  3
   5723   5724   5727   5731     1  0.0000000  0.6508444  3
   5723   5724   5736   5739     1  0.0000000  1.0460000  1
   5723   5724   5736   5739     1  0.0000000  0.6694400  3
   5723   5737   5743   5744     1  0.0000000  1.0460000  1
   5723   5737   5743   5744     1  0.0000000  0.6694400  3
   5723   5745   5729   5732     1  0.0000000  1.6038667  3
   5724   5727   5728   5730     1  0.0000000  0.6508444  3
   5724   5727   5735   5738     1  0.0000000  1.0460000  1
   5724   5727   5735   5738     1  0.0000000  0.6694400  3
   5724   5723   5737   5741     1  0.0000000  0.6508444  3
   5724   5723   5737   5742     1  0.0000000  0.6508444  3
   5725   5723   5724   5727     1  0.0000000  0.6508444  3
   5725   5723   5724   5736     1  0.0000000  1.0460000  1
   5725   5723   5724   5736     1  0.0000000  0.0000000  3
   5725   5723   5724   5726     1  0.0000000  0.6508444  3
   5725   5723   5737   5743     1  0.0000000  1.0460000  1
   5725   5723   5737   5743     1  0.0000000  0.0000000  3
   5725   5723   5737   5741     1  0.0000000  0.6508444  3
   5725   5723   5737   5742     1  0.0000000  0.6508444  3
   5725   5723   5745   5729     1  0.0000000  1.6038667  3
   5726   5724   5727   5728     1  0.0000000  0.6508444  3
   5726   5724   5727   5735     1  0.0000000  1.0460000  1
   5726   5724   5727   5735     1  0.0000000  0.0000000  3
   5726   5724   5727   5731     1  0.0000000  0.6508444  3
   5726   5724   5736   5739     1  0.0000000  0.6973333  3
   5726   5724   5723   5737     1  0.0000000  0.6508444  3
   5726   5724   5723   5745     1  0.0000000  1.0460000  1
   5726   5724   5723   5745     1  0.0000000  0.0000000  3
   5727   5728   5729   5732     1  0.0000000  0.6508444  3
   5727   5728   5734   5740     1  0.0000000  1.0460000  1
   5727   5728   5734   5740     1  0.0000000  0.6694400  3
   5727   5724   5736   5739     1  0.0000000  1.0460000  1
   5727   5724   5736   5739     1  0.0000000  0.6694400  3
   5728   5727   5735   5738     1  0.0000000  1.0460000  1
   5728   5727   5735   5738     1  0.0000000  0.6694400  3
   5729   5728   5734   5740     1  0.0000000  1.0460000  1
   5729   5728   5734   5740     1  0.0000000  0.6694400  3
   5729   5728   5727   5731     1  0.0000000  0.6508444  3
   5730   5728   5729   5733     1  0.0000000  1.0460000  1
   5730   5728   5729   5733     1  0.0000000  0.0000000  3
   5730   5728   5729   5745     1  0.0000000  1.0460000  1
   5730   5728   5729   5745     1  0.0000000  0.0000000  3
   5730   5728   5729   5732     1  0.0000000  0.6508444  3
   5730   5728   5734   5740     1  0.0000000  0.6973333  3
   5730   5728   5727   5735     1  0.0000000  1.0460000  1
   5730   5728   5727   5735     1  0.0000000  0.0000000  3
   5730   5728   5727   5731     1  0.0000000  0.6508444  3
   5731   5727   5728   5734     1  0.0000000  1.0460000  1
   5731   5727   5728   5734     1  0.0000000  0.0000000  3
   5731   5727   5735   5738     1  0.0000000  0.6973333  3
   5731   5727   5724   5736     1  0.0000000  1.0460000  1
   5731   5727   5724   5736     1  0.0000000  0.0000000  3
   5732   5729   5728   5734     1  0.0000000  0.6508444  3
   5741   5737   5743   5744     1  0.0000000  0.6973333  3
   5741   5737   5723   5745     1  0.0000000  1.0460000  1
   5741   5737   5723   5745     1  0.0000000  0.0000000  3
   5742   5737   5743   5744     1  0.0000000  0.6973333  3
   5742   5737   5723   5745     1  0.0000000  1.0460000  1
   5742   5737   5723   5745     1  0.0000000  0.0000000  3
   5746   5747   5750   5754     1  0.0000000  0.6508444  3
   5746   5747   5759   5762     1  0.0000000  1.0460000  1
   5746   5747   5759   5762     1  0.0000000  0.6694400  3
   5746   5760   5766   5767     1  0.0000000  1.0460000  1
   5746   5760   5766   5767     1  0.0000000  0.6694400  3
   5746   5768   5752   5755     1  0.0000000  1.6038667  3
   5747   5746   5760   5764     1  0.0000000  0.6508444  3
   5747   5746   5760   5765     1  0.0000000  0.6508444  3
   5747   5750   5751   5753     1  0.0000000  0.6508444  3
   5747   5750   5758   5761     1  0.0000000  1.0460000  1
   5747   5750   5758   5761     1  0.0000000  0.6694400  3
   5748   5746   5747   5750     1  0.0000000  0.6508444  3
   5748   5746   5747   5759     1  0.0000000  1.0460000  1
   5748   5746   5747   5759     1  0.0000000  0.0000000  3
   5748   5746   5747   5749     1  0.0000000  0.6508444  3
   5748   5746   5760   5766     1  0.0000000  1.0460000  1
   5748   5746   5760   5766     1  0.0000000  0.0000000  3
   5748   5746   5760   5764     1  0.0000000  0.6508444  3
   5748   5746   5760   5765     1  0.0000000  0.6508444  3
   5748   5746   5768   5752     1  0.0000000  1.6038667  3
   5749   5747   5746   5760     1  0.0000000  0.6508444  3
   5749   5747   5746   5768     1  0.0000000  1.0460000  1
   5749   5747   5746   5768     1  0.0000000  0.0000000  3
   5749   5747   5750   5751     1  0.0000000  0.6508444  3
   5749   5747   5750   5758     1  0.0000000  1.0460000  1
   5749   5747   5750   5758     1  0.0000000  0.0000000  3
   5749   5747   5750   5754     1  0.0000000  0.6508444  3
   5749   5747   5759   5762     1  0.0000000  0.6973333  3
   5750   5747   5759   5762     1  0.0000000  1.0460000  1
   5750   5747   5759   5762     1  0.0000000  0.6694400  3
   5750   5751   5752   5755     1  0.0000000  0.6508444  3
   5750   5751   5757   5763     1  0.0000000  1.0460000  1
   5750   5751   5757   5763     1  0.0000000  0.6694400  3
   5751   5750   5758   5761     1  0.0000000  1.0460000  1
   5751   5750   5758   5761     1  0.0000000  0.6694400  3
   5752   5751   5750   5754     1  0.0000000  0.6508444  3
   5752   5751   5757   5763     1  0.0000000  1.0460000  1
   5752   5751   5757   5763     1  0.0000000  0.6694400  3
   5753   5751   5750   5758     1  0.0000000  1.0460000  1
   5753   5751   5750   5758     1  0.0000000  0.0000000  3
   5753   5751   5750   5754     1  0.0000000  0.6508444  3
   5753   5751   5752   5756     1  0.0000000  1.0460000  1
   5753   5751   5752   5756     1  0.0000000  0.0000000  3
   5753   5751   5752   5768     1  0.0000000  1.0460000  1
   5753   5751   5752   5768     1  0.0000000  0.0000000  3
   5753   5751   5752   5755     1  0.0000000  0.6508444  3
   5753   5751   5757   5763     1  0.0000000  0.6973333  3
   5754   5750   5747   5759     1  0.0000000  1.0460000  1
   5754   5750   5747   5759     1  0.0000000  0.0000000  3
   5754   5750   5751   5757     1  0.0000000  1.0460000  1
   5754   5750   5751   5757     1  0.0000000  0.0000000  3
   5754   5750   5758   5761     1  0.0000000  0.6973333  3
   5755   5752   5751   5757     1  0.0000000  0.6508444  3
   5764   5760   5746   5768     1  0.0000000  1.0460000  1
   5764   5760   5746   5768     1  0.0000000  0.0000000  3
   5764   5760   5766   5767     1  0.0000000  0.6973333  3
   5765   5760   5746   5768     1  0.0000000  1.0460000  1
   5765   5760   5746   5768     1  0.0000000  0.0000000  3
   5765   5760   5766   5767     1  0.0000000  0.6973333  3
   5769   5770   5773   5777     1  0.0000000  0.6508444  3
   5769   5770   5782   5785     1  0.0000000  1.0460000  1
   5769   5770   5782   5785     1  0.0000000  0.6694400  3
   5769   5783   5789   5790     1  0.0000000  1.0460000  1
   5769   5783   5789   5790     1  0.0000000  0.6694400  3
   5769   5791   5775   5778     1  0.0000000  1.6038667  3
   5770   5773   5774   5776     1  0.0000000  0.6508444  3
   5770   5773   5781   5784     1  0.0000000  1.0460000  1
   5770   5773   5781   5784     1  0.0000000  0.6694400  3
   5770   5769   5783   5787     1  0.0000000  0.6508444  3
   5770   5769   5783   5788     1  0.0000000  0.6508444  3
   5771   5769   5770   5773     1  0.0000000  0.6508444  3
   5771   5769   5770   5782     1  0.0000000  1.0460000  1
   5771   5769   5770   5782     1  0.0000000  0.0000000  3
   5771   5769   5770   5772     1  0.0000000  0.6508444  3
   5771   5769   5783   5789     1  0.0000000  1.0460000  1
   5771   5769   5783   5789     1  0.0000000  0.0000000  3
   5771   5769   5783   5787     1  0.0000000  0.6508444  3
   5771   5769   5783   5788     1  0.0000000  0.6508444  3
   5771   5769   5791   5775     1  0.0000000  1.6038667  3
   5772   5770   5773   5774     1  0.0000000  0.6508444  3
   5772   5770   5773   5781     1  0.0000000  1.0460000  1
   5772   5770   5773   5781     1  0.0000000  0.0000000  3
   5772   5770   5773   5777     1  0.0000000  0.6508444  3
   5772   5770   5782   5785     1  0.0000000  0.6973333  3
   5772   5770   5769   5783     1  0.0000000  0.6508444  3
   5772   5770   5769   5791     1  0.0000000  1.0460000  1
   5772   5770   5769   5791     1  0.0000000  0.0000000  3
   5773   5774   5775   5778     1  0.0000000  0.6508444  3
   5773   5774   5780   5786     1  0.0000000  1.0460000  1
   5773   5774   5780   5786     1  0.0000000  0.6694400  3
   5773   5770   5782   5785     1  0.0000000  1.0460000  1
   5773   5770   5782   5785     1  0.0000000  0.6694400  3
   5774   5773   5781   5784     1  0.0000000  1.0460000  1
   5774   5773   5781   5784     1  0.0000000  0.6694400  3
   5775   5774   5780   5786     1  0.0000000  1.0460000  1
   5775   5774   5780   5786     1  0.0000000  0.6694400  3
   5775   5774   5773   5777     1  0.0000000  0.6508444  3
   5776   5774   5775   5779     1  0.0000000  1.0460000  1
   5776   5774   5775   5779     1  0.0000000  0.0000000  3
   5776   5774   5775   5791     1  0.0000000  1.0460000  1
   5776   5774   5775   5791     1  0.0000000  0.0000000  3
   5776   5774   5775   5778     1  0.0000000  0.6508444  3
   5776   5774   5780   5786     1  0.0000000  0.6973333  3
   5776   5774   5773   5781     1  0.0000000  1.0460000  1
   5776   5774   5773   5781     1  0.0000000  0.0000000  3
   5776   5774   5773   5777     1  0.0000000  0.6508444  3
   5777   5773   5774   5780     1  0.0000000  1.0460000  1
   5777   5773   5774   5780     1  0.0000000  0.0000000  3
   5777   5773   5781   5784     1  0.0000000  0.6973333  3
   5777   5773   5770   5782     1  0.0000000  1.0460000  1
   5777   5773   5770   5782     1  0.0000000  0.0000000  3
   5778   5775   5774   5780     1  0.0000000  0.6508444  3
   5787   5783   5789   5790     1  0.0000000  0.6973333  3
   5787   5783   5769   5791     1  0.0000000  1.0460000  1
   5787   5783   5769   5791     1  0.0000000  0.0000000  3
   5788   5783   5789   5790     1  0.0000000  0.6973333  3
   5788   5783   5769   5791     1  0.0000000  1.0460000  1
   5788   5783   5769   5791     1  0.0000000  0.0000000  3
   5792   5793   5796   5800     1  0.0000000  0.6508444  3
   5792   5793   5805   5808     1  0.0000000  1.0460000  1
   5792   5793   5805   5808     1  0.0000000  0.6694400  3
   5792   5806   5812   5813     1  0.0000000  1.0460000  1
   5792   5806   5812   5813     1  0.0000000  0.6694400  3
   5792   5814   5798   5801     1  0.0000000  1.6038667  3
   5793   5792   5806   5810     1  0.0000000  0.6508444  3
   5793   5792   5806   5811     1  0.0000000  0.6508444  3
   5793   5796   5797   5799     1  0.0000000  0.6508444  3
   5793   5796   5804   5807     1  0.0000000  1.0460000  1
   5793   5796   5804   5807     1  0.0000000  0.6694400  3
   5794   5792   5793   5796     1  0.0000000  0.6508444  3
   5794   5792   5793   5805     1  0.0000000  1.0460000  1
   5794   5792   5793   5805     1  0.0000000  0.0000000  3
   5794   5792   5793   5795     1  0.0000000  0.6508444  3
   5794   5792   5806   5812     1  0.0000000  1.0460000  1
   5794   5792   5806   5812     1  0.0000000  0.0000000  3
   5794   5792   5806   5810     1  0.0000000  0.6508444  3
   5794   5792   5806   5811     1  0.0000000  0.6508444  3
   5794   5792   5814   5798     1  0.0000000  1.6038667  3
   5795   5793   5792   5806     1  0.0000000  0.6508444  3
   5795   5793   5792   5814     1  0.0000000  1.0460000  1
   5795   5793   5792   5814     1  0.0000000  0.0000000  3
   5795   5793   5796   5797     1  0.0000000  0.6508444  3
   5795   5793   5796   5804     1  0.0000000  1.0460000  1
   5795   5793   5796   5804     1  0.0000000  0.0000000  3
   5795   5793   5796   5800     1  0.0000000  0.6508444  3
   5795   5793   5805   5808     1  0.0000000  0.6973333  3
   5796   5793   5805   5808     1  0.0000000  1.0460000  1
   5796   5793   5805   5808     1  0.0000000  0.6694400  3
   5796   5797   5798   5801     1  0.0000000  0.6508444  3
   5796   5797   5803   5809     1  0.0000000  1.0460000  1
   5796   5797   5803   5809     1  0.0000000  0.6694400  3
   5797   5796   5804   5807     1  0.0000000  1.0460000  1
   5797   5796   5804   5807     1  0.0000000  0.6694400  3
   5798   5797   5796   5800     1  0.0000000  0.6508444  3
   5798   5797   5803   5809     1  0.0000000  1.0460000  1
   5798   5797   5803   5809     1  0.0000000  0.6694400  3
   5799   5797   5796   5804     1  0.0000000  1.0460000  1
   5799   5797   5796   5804     1  0.0000000  0.0000000  3
   5799   5797   5796   5800     1  0.0000000  0.6508444  3
   5799   5797   5798   5802     1  0.0000000  1.0460000  1
   5799   5797   5798   5802     1  0.0000000  0.0000000  3
   5799   5797   5798   5814     1  0.0000000  1.0460000  1
   5799   5797   5798   5814     1  0.0000000  0.0000000  3
   5799   5797   5798   5801     1  0.0000000  0.6508444  3
   5799   5797   5803   5809     1  0.0000000  0.6973333  3
   5800   5796   5793   5805     1  0.0000000  1.0460000  1
   5800   5796   5793   5805     1  0.0000000  0.0000000  3
   5800   5796   5797   5803     1  0.0000000  1.0460000  1
   5800   5796   5797   5803     1  0.0000000  0.0000000  3
   5800   5796   5804   5807     1  0.0000000  0.6973333  3
   5801   5798   5797   5803     1  0.0000000  0.6508444  3
   5810   5806   5792   5814     1  0.0000000  1.0460000  1
   5810   5806   5792   5814     1  0.0000000  0.0000000  3
   5810   5806   5812   5813     1  0.0000000  0.6973333  3
   5811   5806   5792   5814     1  0.0000000  1.0460000  1
   5811   5806   5792   5814     1  0.0000000  0.0000000  3
   5811   5806   5812   5813     1  0.0000000  0.6973333  3
   5815   5816   5819   5823     1  0.0000000  0.6508444  3
   5815   5816   5828   5831     1  0.0000000  1.0460000  1
   5815   5816   5828   5831     1  0.0000000  0.6694400  3
   5815   5829   5835   5836     1  0.0000000  1.0460000  1
   5815   5829   5835   5836     1  0.0000000  0.6694400  3
   5815   5837   5821   5824     1  0.0000000  1.6038667  3
   5816   5819   5820   5822     1  0.0000000  0.6508444  3
   5816   5819   5827   5830     1  0.0000000  1.0460000  1
   5816   5819   5827   5830     1  0.0000000  0.6694400  3
   5816   5815   5829   5833     1  0.0000000  0.6508444  3
   5816   5815   5829   5834     1  0.0000000  0.6508444  3
   5817   5815   5816   5819     1  0.0000000  0.6508444  3
   5817   5815   5816   5828     1  0.0000000  1.0460000  1
   5817   5815   5816   5828     1  0.0000000  0.0000000  3
   5817   5815   5816   5818     1  0.0000000  0.6508444  3
   5817   5815   5829   5835     1  0.0000000  1.0460000  1
   5817   5815   5829   5835     1  0.0000000  0.0000000  3
   5817   5815   5829   5833     1  0.0000000  0.6508444  3
   5817   5815   5829   5834     1  0.0000000  0.6508444  3
   5817   5815   5837   5821     1  0.0000000  1.6038667  3
   5818   5816   5819   5820     1  0.0000000  0.6508444  3
   5818   5816   5819   5827     1  0.0000000  1.0460000  1
   5818   5816   5819   5827     1  0.0000000  0.0000000  3
   5818   5816   5819   5823     1  0.0000000  0.6508444  3
   5818   5816   5828   5831     1  0.0000000  0.6973333  3
   5818   5816   5815   5829     1  0.0000000  0.6508444  3
   5818   5816   5815   5837     1  0.0000000  1.0460000  1
   5818   5816   5815   5837     1  0.0000000  0.0000000  3
   5819   5820   5821   5824     1  0.0000000  0.6508444  3
   5819   5820   5826   5832     1  0.0000000  1.0460000  1
   5819   5820   5826   5832     1  0.0000000  0.6694400  3
   5819   5816   5828   5831     1  0.0000000  1.0460000  1
   5819   5816   5828   5831     1  0.0000000  0.6694400  3
   5820   5819   5827   5830     1  0.0000000  1.0460000  1
   5820   5819   5827   5830     1  0.0000000  0.6694400  3
   5821   5820   5826   5832     1  0.0000000  1.0460000  1
   5821   5820   5826   5832     1  0.0000000  0.6694400  3
   5821   5820   5819   5823     1  0.0000000  0.6508444  3
   5822   5820   5821   5825     1  0.0000000  1.0460000  1
   5822   5820   5821   5825     1  0.0000000  0.0000000  3
   5822   5820   5821   5837     1  0.0000000  1.0460000  1
   5822   5820   5821   5837     1  0.0000000  0.0000000  3
   5822   5820   5821   5824     1  0.0000000  0.6508444  3
   5822   5820   5826   5832     1  0.0000000  0.6973333  3
   5822   5820   5819   5827     1  0.0000000  1.0460000  1
   5822   5820   5819   5827     1  0.0000000  0.0000000  3
   5822   5820   5819   5823     1  0.0000000  0.6508444  3
   5823   5819   5820   5826     1  0.0000000  1.0460000  1
   5823   5819   5820   5826     1  0.0000000  0.0000000  3
   5823   5819   5827   5830     1  0.0000000  0.6973333  3
   5823   5819   5816   5828     1  0.0000000  1.0460000  1
   5823   5819   5816   5828     1  0.0000000  0.0000000  3
   5824   5821   5820   5826     1  0.0000000  0.6508444  3
   5833   5829   5835   5836     1  0.0000000  0.6973333  3
   5833   5829   5815   5837     1  0.0000000  1.0460000  1
   5833   5829   5815   5837     1  0.0000000  0.0000000  3
   5834   5829   5835   5836     1  0.0000000  0.6973333  3
   5834   5829   5815   5837     1  0.0000000  1.0460000  1
   5834   5829   5815   5837     1  0.0000000  0.0000000  3
   5838   5839   5842   5846     1  0.0000000  0.6508444  3
   5838   5839   5851   5854     1  0.0000000  1.0460000  1
   5838   5839   5851   5854     1  0.0000000  0.6694400  3
   5838   5852   5858   5859     1  0.0000000  1.0460000  1
   5838   5852   5858   5859     1  0.0000000  0.6694400  3
   5838   5860   5844   5847     1  0.0000000  1.6038667  3
   5839   5838   5852   5856     1  0.0000000  0.6508444  3
   5839   5838   5852   5857     1  0.0000000  0.6508444  3
   5839   5842   5843   5845     1  0.0000000  0.6508444  3
   5839   5842   5850   5853     1  0.0000000  1.0460000  1
   5839   5842   5850   5853     1  0.0000000  0.6694400  3
   5840   5838   5839   5842     1  0.0000000  0.6508444  3
   5840   5838   5839   5851     1  0.0000000  1.0460000  1
   5840   5838   5839   5851     1  0.0000000  0.0000000  3
   5840   5838   5839   5841     1  0.0000000  0.6508444  3
   5840   5838   5852   5858     1  0.0000000  1.0460000  1
   5840   5838   5852   5858     1  0.0000000  0.0000000  3
   5840   5838   5852   5856     1  0.0000000  0.6508444  3
   5840   5838   5852   5857     1  0.0000000  0.6508444  3
   5840   5838   5860   5844     1  0.0000000  1.6038667  3
   5841   5839   5838   5852     1  0.0000000  0.6508444  3
   5841   5839   5838   5860     1  0.0000000  1.0460000  1
   5841   5839   5838   5860     1  0.0000000  0.0000000  3
   5841   5839   5842   5843     1  0.0000000  0.6508444  3
   5841   5839   5842   5850     1  0.0000000  1.0460000  1
   5841   5839   5842   5850     1  0.0000000  0.0000000  3
   5841   5839   5842   5846     1  0.0000000  0.6508444  3
   5841   5839   5851   5854     1  0.0000000  0.6973333  3
   5842   5839   5851   5854     1  0.0000000  1.0460000  1
   5842   5839   5851   5854     1  0.0000000  0.6694400  3
   5842   5843   5844   5847     1  0.0000000  0.6508444  3
   5842   5843   5849   5855     1  0.0000000  1.0460000  1
   5842   5843   5849   5855     1  0.0000000  0.6694400  3
   5843   5842   5850   5853     1  0.0000000  1.0460000  1
   5843   5842   5850   5853     1  0.0000000  0.6694400  3
   5844   5843   5842   5846     1  0.0000000  0.6508444  3
   5844   5843   5849   5855     1  0.0000000  1.0460000  1
   5844   5843   5849   5855     1  0.0000000  0.6694400  3
   5845   5843   5842   5850     1  0.0000000  1.0460000  1
   5845   5843   5842   5850     1  0.0000000  0.0000000  3
   5845   5843   5842   5846     1  0.0000000  0.6508444  3
   5845   5843   5844   5848     1  0.0000000  1.0460000  1
   5845   5843   5844   5848     1  0.0000000  0.0000000  3
   5845   5843   5844   5860     1  0.0000000  1.0460000  1
   5845   5843   5844   5860     1  0.0000000  0.0000000  3
   5845   5843   5844   5847     1  0.0000000  0.6508444  3
   5845   5843   5849   5855     1  0.0000000  0.6973333  3
   5846   5842   5839   5851     1  0.0000000  1.0460000  1
   5846   5842   5839   5851     1  0.0000000  0.0000000  3
   5846   5842   5843   5849     1  0.0000000  1.0460000  1
   5846   5842   5843   5849     1  0.0000000  0.0000000  3
   5846   5842   5850   5853     1  0.0000000  0.6973333  3
   5847   5844   5843   5849     1  0.0000000  0.6508444  3
   5856   5852   5838   5860     1  0.0000000  1.0460000  1
   5856   5852   5838   5860     1  0.0000000  0.0000000  3
   5856   5852   5858   5859     1  0.0000000  0.6973333  3
   5857   5852   5838   5860     1  0.0000000  1.0460000  1
   5857   5852   5838   5860     1  0.0000000  0.0000000  3
   5857   5852   5858   5859     1  0.0000000  0.6973333  3
   5861   5862   5865   5869     1  0.0000000  0.6508444  3
   5861   5862   5874   5877     1  0.0000000  1.0460000  1
   5861   5862   5874   5877     1  0.0000000  0.6694400  3
   5861   5875   5881   5882     1  0.0000000  1.0460000  1
   5861   5875   5881   5882     1  0.0000000  0.6694400  3
   5861   5883   5867   5870     1  0.0000000  1.6038667  3
   5862   5865   5866   5868     1  0.0000000  0.6508444  3
   5862   5865   5873   5876     1  0.0000000  1.0460000  1
   5862   5865   5873   5876     1  0.0000000  0.6694400  3
   5862   5861   5875   5879     1  0.0000000  0.6508444  3
   5862   5861   5875   5880     1  0.0000000  0.6508444  3
   5863   5861   5862   5865     1  0.0000000  0.6508444  3
   5863   5861   5862   5874     1  0.0000000  1.0460000  1
   5863   5861   5862   5874     1  0.0000000  0.0000000  3
   5863   5861   5862   5864     1  0.0000000  0.6508444  3
   5863   5861   5875   5881     1  0.0000000  1.0460000  1
   5863   5861   5875   5881     1  0.0000000  0.0000000  3
   5863   5861   5875   5879     1  0.0000000  0.6508444  3
   5863   5861   5875   5880     1  0.0000000  0.6508444  3
   5863   5861   5883   5867     1  0.0000000  1.6038667  3
   5864   5862   5865   5866     1  0.0000000  0.6508444  3
   5864   5862   5865   5873     1  0.0000000  1.0460000  1
   5864   5862   5865   5873     1  0.0000000  0.0000000  3
   5864   5862   5865   5869     1  0.0000000  0.6508444  3
   5864   5862   5874   5877     1  0.0000000  0.6973333  3
   5864   5862   5861   5875     1  0.0000000  0.6508444  3
   5864   5862   5861   5883     1  0.0000000  1.0460000  1
   5864   5862   5861   5883     1  0.0000000  0.0000000  3
   5865   5866   5867   5870     1  0.0000000  0.6508444  3
   5865   5866   5872   5878     1  0.0000000  1.0460000  1
   5865   5866   5872   5878     1  0.0000000  0.6694400  3
   5865   5862   5874   5877     1  0.0000000  1.0460000  1
   5865   5862   5874   5877     1  0.0000000  0.6694400  3
   5866   5865   5873   5876     1  0.0000000  1.0460000  1
   5866   5865   5873   5876     1  0.0000000  0.6694400  3
   5867   5866   5872   5878     1  0.0000000  1.0460000  1
   5867   5866   5872   5878     1  0.0000000  0.6694400  3
   5867   5866   5865   5869     1  0.0000000  0.6508444  3
   5868   5866   5867   5871     1  0.0000000  1.0460000  1
   5868   5866   5867   5871     1  0.0000000  0.0000000  3
   5868   5866   5867   5883     1  0.0000000  1.0460000  1
   5868   5866   5867   5883     1  0.0000000  0.0000000  3
   5868   5866   5867   5870     1  0.0000000  0.6508444  3
   5868   5866   5872   5878     1  0.0000000  0.6973333  3
   5868   5866   5865   5873     1  0.0000000  1.0460000  1
   5868   5866   5865   5873     1  0.0000000  0.0000000  3
   5868   5866   5865   5869     1  0.0000000  0.6508444  3
   5869   5865   5866   5872     1  0.0000000  1.0460000  1
   5869   5865   5866   5872     1  0.0000000  0.0000000  3
   5869   5865   5873   5876     1  0.0000000  0.6973333  3
   5869   5865   5862   5874     1  0.0000000  1.0460000  1
   5869   5865   5862   5874     1  0.0000000  0.0000000  3
   5870   5867   5866   5872     1  0.0000000  0.6508444  3
   5879   5875   5881   5882     1  0.0000000  0.6973333  3
   5879   5875   5861   5883     1  0.0000000  1.0460000  1
   5879   5875   5861   5883     1  0.0000000  0.0000000  3
   5880   5875   5881   5882     1  0.0000000  0.6973333  3
   5880   5875   5861   5883     1  0.0000000  1.0460000  1
   5880   5875   5861   5883     1  0.0000000  0.0000000  3
   5884   5885   5888   5892     1  0.0000000  0.6508444  3
   5884   5885   5897   5900     1  0.0000000  1.0460000  1
   5884   5885   5897   5900     1  0.0000000  0.6694400  3
   5884   5898   5904   5905     1  0.0000000  1.0460000  1
   5884   5898   5904   5905     1  0.0000000  0.6694400  3
   5884   5906   5890   5893     1  0.0000000  1.6038667  3
   5885   5884   5898   5902     1  0.0000000  0.6508444  3
   5885   5884   5898   5903     1  0.0000000  0.6508444  3
   5885   5888   5889   5891     1  0.0000000  0.6508444  3
   5885   5888   5896   5899     1  0.0000000  1.0460000  1
   5885   5888   5896   5899     1  0.0000000  0.6694400  3
   5886   5884   5885   5888     1  0.0000000  0.6508444  3
   5886   5884   5885   5897     1  0.0000000  1.0460000  1
   5886   5884   5885   5897     1  0.0000000  0.0000000  3
   5886   5884   5885   5887     1  0.0000000  0.6508444  3
   5886   5884   5898   5904     1  0.0000000  1.0460000  1
   5886   5884   5898   5904     1  0.0000000  0.0000000  3
   5886   5884   5898   5902     1  0.0000000  0.6508444  3
   5886   5884   5898   5903     1  0.0000000  0.6508444  3
   5886   5884   5906   5890     1  0.0000000  1.6038667  3
   5887   5885   5884   5898     1  0.0000000  0.6508444  3
   5887   5885   5884   5906     1  0.0000000  1.0460000  1
   5887   5885   5884   5906     1  0.0000000  0.0000000  3
   5887   5885   5888   5889     1  0.0000000  0.6508444  3
   5887   5885   5888   5896     1  0.0000000  1.0460000  1
   5887   5885   5888   5896     1  0.0000000  0.0000000  3
   5887   5885   5888   5892     1  0.0000000  0.6508444  3
   5887   5885   5897   5900     1  0.0000000  0.6973333  3
   5888   5885   5897   5900     1  0.0000000  1.0460000  1
   5888   5885   5897   5900     1  0.0000000  0.6694400  3
   5888   5889   5890   5893     1  0.0000000  0.6508444  3
   5888   5889   5895   5901     1  0.0000000  1.0460000  1
   5888   5889   5895   5901     1  0.0000000  0.6694400  3
   5889   5888   5896   5899     1  0.0000000  1.0460000  1
   5889   5888   5896   5899     1  0.0000000  0.6694400  3
   5890   5889   5888   5892     1  0.0000000  0.6508444  3
   5890   5889   5895   5901     1  0.0000000  1.0460000  1
   5890   5889   5895   5901     1  0.0000000  0.6694400  3
   5891   5889   5888   5896     1  0.0000000  1.0460000  1
   5891   5889   5888   5896     1  0.0000000  0.0000000  3
   5891   5889   5888   5892     1  0.0000000  0.6508444  3
   5891   5889   5890   5894     1  0.0000000  1.0460000  1
   5891   5889   5890   5894     1  0.0000000  0.0000000  3
   5891   5889   5890   5906     1  0.0000000  1.0460000  1
   5891   5889   5890   5906     1  0.0000000  0.0000000  3
   5891   5889   5890   5893     1  0.0000000  0.6508444  3
   5891   5889   5895   5901     1  0.0000000  0.6973333  3
   5892   5888   5885   5897     1  0.0000000  1.0460000  1
   5892   5888   5885   5897     1  0.0000000  0.0000000  3
   5892   5888   5889   5895     1  0.0000000  1.0460000  1
   5892   5888   5889   5895     1  0.0000000  0.0000000  3
   5892   5888   5896   5899     1  0.0000000  0.6973333  3
   5893   5890   5889   5895     1  0.0000000  0.6508444  3
   5902   5898   5884   5906     1  0.0000000  1.0460000  1
   5902   5898   5884   5906     1  0.0000000  0.0000000  3
   5902   5898   5904   5905     1  0.0000000  0.6973333  3
   5903   5898   5884   5906     1  0.0000000  1.0460000  1
   5903   5898   5884   5906     1  0.0000000  0.0000000  3
   5903   5898   5904   5905     1  0.0000000  0.6973333  3
   5907   5908   5911   5915     1  0.0000000  0.6508444  3
   5907   5908   5920   5923     1  0.0000000  1.0460000  1
   5907   5908   5920   5923     1  0.0000000  0.6694400  3
   5907   5921   5927   5928     1  0.0000000  1.0460000  1
   5907   5921   5927   5928     1  0.0000000  0.6694400  3
   5907   5929   5913   5916     1  0.0000000  1.6038667  3
   5908   5911   5912   5914     1  0.0000000  0.6508444  3
   5908   5911   5919   5922     1  0.0000000  1.0460000  1
   5908   5911   5919   5922     1  0.0000000  0.6694400  3
   5908   5907   5921   5925     1  0.0000000  0.6508444  3
   5908   5907   5921   5926     1  0.0000000  0.6508444  3
   5909   5907   5908   5911     1  0.0000000  0.6508444  3
   5909   5907   5908   5920     1  0.0000000  1.0460000  1
   5909   5907   5908   5920     1  0.0000000  0.0000000  3
   5909   5907   5908   5910     1  0.0000000  0.6508444  3
   5909   5907   5921   5927     1  0.0000000  1.0460000  1
   5909   5907   5921   5927     1  0.0000000  0.0000000  3
   5909   5907   5921   5925     1  0.0000000  0.6508444  3
   5909   5907   5921   5926     1  0.0000000  0.6508444  3
   5909   5907   5929   5913     1  0.0000000  1.6038667  3
   5910   5908   5911   5912     1  0.0000000  0.6508444  3
   5910   5908   5911   5919     1  0.0000000  1.0460000  1
   5910   5908   5911   5919     1  0.0000000  0.0000000  3
   5910   5908   5911   5915     1  0.0000000  0.6508444  3
   5910   5908   5920   5923     1  0.0000000  0.6973333  3
   5910   5908   5907   5921     1  0.0000000  0.6508444  3
   5910   5908   5907   5929     1  0.0000000  1.0460000  1
   5910   5908   5907   5929     1  0.0000000  0.0000000  3
   5911   5912   5913   5916     1  0.0000000  0.6508444  3
   5911   5912   5918   5924     1  0.0000000  1.0460000  1
   5911   5912   5918   5924     1  0.0000000  0.6694400  3
   5911   5908   5920   5923     1  0.0000000  1.0460000  1
   5911   5908   5920   5923     1  0.0000000  0.6694400  3
   5912   5911   5919   5922     1  0.0000000  1.0460000  1
   5912   5911   5919   5922     1  0.0000000  0.6694400  3
   5913   5912   5918   5924     1  0.0000000  1.0460000  1
   5913   5912   5918   5924     1  0.0000000  0.6694400  3
   5913   5912   5911   5915     1  0.0000000  0.6508444  3
   5914   5912   5913   5917     1  0.0000000  1.0460000  1
   5914   5912   5913   5917     1  0.0000000  0.0000000  3
   5914   5912   5913   5929     1  0.0000000  1.0460000  1
   5914   5912   5913   5929     1  0.0000000  0.0000000  3
   5914   5912   5913   5916     1  0.0000000  0.6508444  3
   5914   5912   5918   5924     1  0.0000000  0.6973333  3
   5914   5912   5911   5919     1  0.0000000  1.0460000  1
   5914   5912   5911   5919     1  0.0000000  0.0000000  3
   5914   5912   5911   5915     1  0.0000000  0.6508444  3
   5915   5911   5912   5918     1  0.0000000  1.0460000  1
   5915   5911   5912   5918     1  0.0000000  0.0000000  3
   5915   5911   5919   5922     1  0.0000000  0.6973333  3
   5915   5911   5908   5920     1  0.0000000  1.0460000  1
   5915   5911   5908   5920     1  0.0000000  0.0000000  3
   5916   5913   5912   5918     1  0.0000000  0.6508444  3
   5925   5921   5927   5928     1  0.0000000  0.6973333  3
   5925   5921   5907   5929     1  0.0000000  1.0460000  1
   5925   5921   5907   5929     1  0.0000000  0.0000000  3
   5926   5921   5927   5928     1  0.0000000  0.6973333  3
   5926   5921   5907   5929     1  0.0000000  1.0460000  1
   5926   5921   5907   5929     1  0.0000000  0.0000000  3
   5930   5931   5934   5938     1  0.0000000  0.6508444  3
   5930   5931   5943   5946     1  0.0000000  1.0460000  1
   5930   5931   5943   5946     1  0.0000000  0.6694400  3
   5930   5944   5950   5951     1  0.0000000  1.0460000  1
   5930   5944   5950   5951     1  0.0000000  0.6694400  3
   5930   5952   5936   5939     1  0.0000000  1.6038667  3
   5931   5930   5944   5948     1  0.0000000  0.6508444  3
   5931   5930   5944   5949     1  0.0000000  0.6508444  3
   5931   5934   5935   5937     1  0.0000000  0.6508444  3
   5931   5934   5942   5945     1  0.0000000  1.0460000  1
   5931   5934   5942   5945     1  0.0000000  0.6694400  3
   5932   5930   5931   5934     1  0.0000000  0.6508444  3
   5932   5930   5931   5943     1  0.0000000  1.0460000  1
   5932   5930   5931   5943     1  0.0000000  0.0000000  3
   5932   5930   5931   5933     1  0.0000000  0.6508444  3
   5932   5930   5944   5950     1  0.0000000  1.0460000  1
   5932   5930   5944   5950     1  0.0000000  0.0000000  3
   5932   5930   5944   5948     1  0.0000000  0.6508444  3
   5932   5930   5944   5949     1  0.0000000  0.6508444  3
   5932   5930   5952   5936     1  0.0000000  1.6038667  3
   5933   5931   5930   5944     1  0.0000000  0.6508444  3
   5933   5931   5930   5952     1  0.0000000  1.0460000  1
   5933   5931   5930   5952     1  0.0000000  0.0000000  3
   5933   5931   5934   5935     1  0.0000000  0.6508444  3
   5933   5931   5934   5942     1  0.0000000  1.0460000  1
   5933   5931   5934   5942     1  0.0000000  0.0000000  3
   5933   5931   5934   5938     1  0.0000000  0.6508444  3
   5933   5931   5943   5946     1  0.0000000  0.6973333  3
   5934   5931   5943   5946     1  0.0000000  1.0460000  1
   5934   5931   5943   5946     1  0.0000000  0.6694400  3
   5934   5935   5936   5939     1  0.0000000  0.6508444  3
   5934   5935   5941   5947     1  0.0000000  1.0460000  1
   5934   5935   5941   5947     1  0.0000000  0.6694400  3
   5935   5934   5942   5945     1  0.0000000  1.0460000  1
   5935   5934   5942   5945     1  0.0000000  0.6694400  3
   5936   5935   5934   5938     1  0.0000000  0.6508444  3
   5936   5935   5941   5947     1  0.0000000  1.0460000  1
   5936   5935   5941   5947     1  0.0000000  0.6694400  3
   5937   5935   5934   5942     1  0.0000000  1.0460000  1
   5937   5935   5934   5942     1  0.0000000  0.0000000  3
   5937   5935   5934   5938     1  0.0000000  0.6508444  3
   5937   5935   5936   5940     1  0.0000000  1.0460000  1
   5937   5935   5936   5940     1  0.0000000  0.0000000  3
   5937   5935   5936   5952     1  0.0000000  1.0460000  1
   5937   5935   5936   5952     1  0.0000000  0.0000000  3
   5937   5935   5936   5939     1  0.0000000  0.6508444  3
   5937   5935   5941   5947     1  0.0000000  0.6973333  3
   5938   5934   5931   5943     1  0.0000000  1.0460000  1
   5938   5934   5931   5943     1  0.0000000  0.0000000  3
   5938   5934   5935   5941     1  0.0000000  1.0460000  1
   5938   5934   5935   5941     1  0.0000000  0.0000000  3
   5938   5934   5942   5945     1  0.0000000  0.6973333  3
   5939   5936   5935   5941     1  0.0000000  0.6508444  3
   5948   5944   5930   5952     1  0.0000000  1.0460000  1
   5948   5944   5930   5952     1  0.0000000  0.0000000  3
   5948   5944   5950   5951     1  0.0000000  0.6973333  3
   5949   5944   5930   5952     1  0.0000000  1.0460000  1
   5949   5944   5930   5952     1  0.0000000  0.0000000  3
   5949   5944   5950   5951     1  0.0000000  0.6973333  3
   5953   5954   5957   5961     1  0.0000000  0.6508444  3
   5953   5954   5966   5969     1  0.0000000  1.0460000  1
   5953   5954   5966   5969     1  0.0000000  0.6694400  3
   5953   5967   5973   5974     1  0.0000000  1.0460000  1
   5953   5967   5973   5974     1  0.0000000  0.6694400  3
   5953   5975   5959   5962     1  0.0000000  1.6038667  3
   5954   5957   5958   5960     1  0.0000000  0.6508444  3
   5954   5957   5965   5968     1  0.0000000  1.0460000  1
   5954   5957   5965   5968     1  0.0000000  0.6694400  3
   5954   5953   5967   5971     1  0.0000000  0.6508444  3
   5954   5953   5967   5972     1  0.0000000  0.6508444  3
   5955   5953   5954   5957     1  0.0000000  0.6508444  3
   5955   5953   5954   5966     1  0.0000000  1.0460000  1
   5955   5953   5954   5966     1  0.0000000  0.0000000  3
   5955   5953   5954   5956     1  0.0000000  0.6508444  3
   5955   5953   5967   5973     1  0.0000000  1.0460000  1
   5955   5953   5967   5973     1  0.0000000  0.0000000  3
   5955   5953   5967   5971     1  0.0000000  0.6508444  3
   5955   5953   5967   5972     1  0.0000000  0.6508444  3
   5955   5953   5975   5959     1  0.0000000  1.6038667  3
   5956   5954   5957   5958     1  0.0000000  0.6508444  3
   5956   5954   5957   5965     1  0.0000000  1.0460000  1
   5956   5954   5957   5965     1  0.0000000  0.0000000  3
   5956   5954   5957   5961     1  0.0000000  0.6508444  3
   5956   5954   5966   5969     1  0.0000000  0.6973333  3
   5956   5954   5953   5967     1  0.0000000  0.6508444  3
   5956   5954   5953   5975     1  0.0000000  1.0460000  1
   5956   5954   5953   5975     1  0.0000000  0.0000000  3
   5957   5958   5959   5962     1  0.0000000  0.6508444  3
   5957   5958   5964   5970     1  0.0000000  1.0460000  1
   5957   5958   5964   5970     1  0.0000000  0.6694400  3
   5957   5954   5966   5969     1  0.0000000  1.0460000  1
   5957   5954   5966   5969     1  0.0000000  0.6694400  3
   5958   5957   5965   5968     1  0.0000000  1.0460000  1
   5958   5957   5965   5968     1  0.0000000  0.6694400  3
   5959   5958   5964   5970     1  0.0000000  1.0460000  1
   5959   5958   5964   5970     1  0.0000000  0.6694400  3
   5959   5958   5957   5961     1  0.0000000  0.6508444  3
   5960   5958   5959   5963     1  0.0000000  1.0460000  1
   5960   5958   5959   5963     1  0.0000000  0.0000000  3
   5960   5958   5959   5975     1  0.0000000  1.0460000  1
   5960   5958   5959   5975     1  0.0000000  0.0000000  3
   5960   5958   5959   5962     1  0.0000000  0.6508444  3
   5960   5958   5964   5970     1  0.0000000  0.6973333  3
   5960   5958   5957   5965     1  0.0000000  1.0460000  1
   5960   5958   5957   5965     1  0.0000000  0.0000000  3
   5960   5958   5957   5961     1  0.0000000  0.6508444  3
   5961   5957   5958   5964     1  0.0000000  1.0460000  1
   5961   5957   5958   5964     1  0.0000000  0.0000000  3
   5961   5957   5965   5968     1  0.0000000  0.6973333  3
   5961   5957   5954   5966     1  0.0000000  1.0460000  1
   5961   5957   5954   5966     1  0.0000000  0.0000000  3
   5962   5959   5958   5964     1  0.0000000  0.6508444  3
   5971   5967   5973   5974     1  0.0000000  0.6973333  3
   5971   5967   5953   5975     1  0.0000000  1.0460000  1
   5971   5967   5953   5975     1  0.0000000  0.0000000  3
   5972   5967   5973   5974     1  0.0000000  0.6973333  3
   5972   5967   5953   5975     1  0.0000000  1.0460000  1
   5972   5967   5953   5975     1  0.0000000  0.0000000  3
   5976   5977   5980   5984     1  0.0000000  0.6508444  3
   5976   5977   5989   5992     1  0.0000000  1.0460000  1
   5976   5977   5989   5992     1  0.0000000  0.6694400  3
   5976   5990   5996   5997     1  0.0000000  1.0460000  1
   5976   5990   5996   5997     1  0.0000000  0.6694400  3
   5976   5998   5982   5985     1  0.0000000  1.6038667  3
   5977   5976   5990   5994     1  0.0000000  0.6508444  3
   5977   5976   5990   5995     1  0.0000000  0.6508444  3
   5977   5980   5981   5983     1  0.0000000  0.6508444  3
   5977   5980   5988   5991     1  0.0000000  1.0460000  1
   5977   5980   5988   5991     1  0.0000000  0.6694400  3
   5978   5976   5977   5980     1  0.0000000  0.6508444  3
   5978   5976   5977   5989     1  0.0000000  1.0460000  1
   5978   5976   5977   5989     1  0.0000000  0.0000000  3
   5978   5976   5977   5979     1  0.0000000  0.6508444  3
   5978   5976   5990   5996     1  0.0000000  1.0460000  1
   5978   5976   5990   5996     1  0.0000000  0.0000000  3
   5978   5976   5990   5994     1  0.0000000  0.6508444  3
   5978   5976   5990   5995     1  0.0000000  0.6508444  3
   5978   5976   5998   5982     1  0.0000000  1.6038667  3
   5979   5977   5976   5990     1  0.0000000  0.6508444  3
   5979   5977   5976   5998     1  0.0000000  1.0460000  1
   5979   5977   5976   5998     1  0.0000000  0.0000000  3
   5979   5977   5980   5981     1  0.0000000  0.6508444  3
   5979   5977   5980   5988     1  0.0000000  1.0460000  1
   5979   5977   5980   5988     1  0.0000000  0.0000000  3
   5979   5977   5980   5984     1  0.0000000  0.6508444  3
   5979   5977   5989   5992     1  0.0000000  0.6973333  3
   5980   5977   5989   5992     1  0.0000000  1.0460000  1
   5980   5977   5989   5992     1  0.0000000  0.6694400  3
   5980   5981   5982   5985     1  0.0000000  0.6508444  3
   5980   5981   5987   5993     1  0.0000000  1.0460000  1
   5980   5981   5987   5993     1  0.0000000  0.6694400  3
   5981   5980   5988   5991     1  0.0000000  1.0460000  1
   5981   5980   5988   5991     1  0.0000000  0.6694400  3
   5982   5981   5980   5984     1  0.0000000  0.6508444  3
   5982   5981   5987   5993     1  0.0000000  1.0460000  1
   5982   5981   5987   5993     1  0.0000000  0.6694400  3
   5983   5981   5980   5988     1  0.0000000  1.0460000  1
   5983   5981   5980   5988     1  0.0000000  0.0000000  3
   5983   5981   5980   5984     1  0.0000000  0.6508444  3
   5983   5981   5982   5986     1  0.0000000  1.0460000  1
   5983   5981   5982   5986     1  0.0000000  0.0000000  3
   5983   5981   5982   5998     1  0.0000000  1.0460000  1
   5983   5981   5982   5998     1  0.0000000  0.0000000  3
   5983   5981   5982   5985     1  0.0000000  0.6508444  3
   5983   5981   5987   5993     1  0.0000000  0.6973333  3
   5984   5980   5977   5989     1  0.0000000  1.0460000  1
   5984   5980   5977   5989     1  0.0000000  0.0000000  3
   5984   5980   5981   5987     1  0.0000000  1.0460000  1
   5984   5980   5981   5987     1  0.0000000  0.0000000  3
   5984   5980   5988   5991     1  0.0000000  0.6973333  3
   5985   5982   5981   5987     1  0.0000000  0.6508444  3
   5994   5990   5976   5998     1  0.0000000  1.0460000  1
   5994   5990   5976   5998     1  0.0000000  0.0000000  3
   5994   5990   5996   5997     1  0.0000000  0.6973333  3
   5995   5990   5976   5998     1  0.0000000  1.0460000  1
   5995   5990   5976   5998     1  0.0000000  0.0000000  3
   5995   5990   5996   5997     1  0.0000000  0.6973333  3
   5999   6000   6003   6007     1  0.0000000  0.6508444  3
   5999   6000   6012   6015     1  0.0000000  1.0460000  1
   5999   6000   6012   6015     1  0.0000000  0.6694400  3
   5999   6013   6019   6020     1  0.0000000  1.0460000  1
   5999   6013   6019   6020     1  0.0000000  0.6694400  3
   5999   6021   6005   6008     1  0.0000000  1.6038667  3
   6000   6003   6004   6006     1  0.0000000  0.6508444  3
   6000   6003   6011   6014     1  0.0000000  1.0460000  1
   6000   6003   6011   6014     1  0.0000000  0.6694400  3
   6000   5999   6013   6017     1  0.0000000  0.6508444  3
   6000   5999   6013   6018     1  0.0000000  0.6508444  3
   6001   5999   6000   6003     1  0.0000000  0.6508444  3
   6001   5999   6000   6012     1  0.0000000  1.0460000  1
   6001   5999   6000   6012     1  0.0000000  0.0000000  3
   6001   5999   6000   6002     1  0.0000000  0.6508444  3
   6001   5999   6013   6019     1  0.0000000  1.0460000  1
   6001   5999   6013   6019     1  0.0000000  0.0000000  3
   6001   5999   6013   6017     1  0.0000000  0.6508444  3
   6001   5999   6013   6018     1  0.0000000  0.6508444  3
   6001   5999   6021   6005     1  0.0000000  1.6038667  3
   6002   6000   6003   6004     1  0.0000000  0.6508444  3
   6002   6000   6003   6011     1  0.0000000  1.0460000  1
   6002   6000   6003   6011     1  0.0000000  0.0000000  3
   6002   6000   6003   6007     1  0.0000000  0.6508444  3
   6002   6000   6012   6015     1  0.0000000  0.6973333  3
   6002   6000   5999   6013     1  0.0000000  0.6508444  3
   6002   6000   5999   6021     1  0.0000000  1.0460000  1
   6002   6000   5999   6021     1  0.0000000  0.0000000  3
   6003   6004   6005   6008     1  0.0000000  0.6508444  3
   6003   6004   6010   6016     1  0.0000000  1.0460000  1
   6003   6004   6010   6016     1  0.0000000  0.6694400  3
   6003   6000   6012   6015     1  0.0000000  1.0460000  1
   6003   6000   6012   6015     1  0.0000000  0.6694400  3
   6004   6003   6011   6014     1  0.0000000  1.0460000  1
   6004   6003   6011   6014     1  0.0000000  0.6694400  3
   6005   6004   6010   6016     1  0.0000000  1.0460000  1
   6005   6004   6010   6016     1  0.0000000  0.6694400  3
   6005   6004   6003   6007     1  0.0000000  0.6508444  3
   6006   6004   6005   6009     1  0.0000000  1.0460000  1
   6006   6004   6005   6009     1  0.0000000  0.0000000  3
   6006   6004   6005   6021     1  0.0000000  1.0460000  1
   6006   6004   6005   6021     1  0.0000000  0.0000000  3
   6006   6004   6005   6008     1  0.0000000  0.6508444  3
   6006   6004   6010   6016     1  0.0000000  0.6973333  3
   6006   6004   6003   6011     1  0.0000000  1.0460000  1
   6006   6004   6003   6011     1  0.0000000  0.0000000  3
   6006   6004   6003   6007     1  0.0000000  0.6508444  3
   6007   6003   6004   6010     1  0.0000000  1.0460000  1
   6007   6003   6004   6010     1  0.0000000  0.0000000  3
   6007   6003   6011   6014     1  0.0000000  0.6973333  3
   6007   6003   6000   6012     1  0.0000000  1.0460000  1
   6007   6003   6000   6012     1  0.0000000  0.0000000  3
   6008   6005   6004   6010     1  0.0000000  0.6508444  3
   6017   6013   6019   6020     1  0.0000000  0.6973333  3
   6017   6013   5999   6021     1  0.0000000  1.0460000  1
   6017   6013   5999   6021     1  0.0000000  0.0000000  3
   6018   6013   6019   6020     1  0.0000000  0.6973333  3
   6018   6013   5999   6021     1  0.0000000  1.0460000  1
   6018   6013   5999   6021     1  0.0000000  0.0000000  3
   6022   6023   6026   6030     1  0.0000000  0.6508444  3
   6022   6023   6035   6038     1  0.0000000  1.0460000  1
   6022   6023   6035   6038     1  0.0000000  0.6694400  3
   6022   6036   6042   6043     1  0.0000000  1.0460000  1
   6022   6036   6042   6043     1  0.0000000  0.6694400  3
   6022   6044   6028   6031     1  0.0000000  1.6038667  3
   6023   6022   6036   6040     1  0.0000000  0.6508444  3
   6023   6022   6036   6041     1  0.0000000  0.6508444  3
   6023   6026   6027   6029     1  0.0000000  0.6508444  3
   6023   6026   6034   6037     1  0.0000000  1.0460000  1
   6023   6026   6034   6037     1  0.0000000  0.6694400  3
   6024   6022   6023   6026     1  0.0000000  0.6508444  3
   6024   6022   6023   6035     1  0.0000000  1.0460000  1
   6024   6022   6023   6035     1  0.0000000  0.0000000  3
   6024   6022   6023   6025     1  0.0000000  0.6508444  3
   6024   6022   6036   6042     1  0.0000000  1.0460000  1
   6024   6022   6036   6042     1  0.0000000  0.0000000  3
   6024   6022   6036   6040     1  0.0000000  0.6508444  3
   6024   6022   6036   6041     1  0.0000000  0.6508444  3
   6024   6022   6044   6028     1  0.0000000  1.6038667  3
   6025   6023   6022   6036     1  0.0000000  0.6508444  3
   6025   6023   6022   6044     1  0.0000000  1.0460000  1
   6025   6023   6022   6044     1  0.0000000  0.0000000  3
   6025   6023   6026   6027     1  0.0000000  0.6508444  3
   6025   6023   6026   6034     1  0.0000000  1.0460000  1
   6025   6023   6026   6034     1  0.0000000  0.0000000  3
   6025   6023   6026   6030     1  0.0000000  0.6508444  3
   6025   6023   6035   6038     1  0.0000000  0.6973333  3
   6026   6023   6035   6038     1  0.0000000  1.0460000  1
   6026   6023   6035   6038     1  0.0000000  0.6694400  3
   6026   6027   6028   6031     1  0.0000000  0.6508444  3
   6026   6027   6033   6039     1  0.0000000  1.0460000  1
   6026   6027   6033   6039     1  0.0000000  0.6694400  3
   6027   6026   6034   6037     1  0.0000000  1.0460000  1
   6027   6026   6034   6037     1  0.0000000  0.6694400  3
   6028   6027   6026   6030     1  0.0000000  0.6508444  3
   6028   6027   6033   6039     1  0.0000000  1.0460000  1
   6028   6027   6033   6039     1  0.0000000  0.6694400  3
   6029   6027   6026   6034     1  0.0000000  1.0460000  1
   6029   6027   6026   6034     1  0.0000000  0.0000000  3
   6029   6027   6026   6030     1  0.0000000  0.6508444  3
   6029   6027   6028   6032     1  0.0000000  1.0460000  1
   6029   6027   6028   6032     1  0.0000000  0.0000000  3
   6029   6027   6028   6044     1  0.0000000  1.0460000  1
   6029   6027   6028   6044     1  0.0000000  0.0000000  3
   6029   6027   6028   6031     1  0.0000000  0.6508444  3
   6029   6027   6033   6039     1  0.0000000  0.6973333  3
   6030   6026   6023   6035     1  0.0000000  1.0460000  1
   6030   6026   6023   6035     1  0.0000000  0.0000000  3
   6030   6026   6027   6033     1  0.0000000  1.0460000  1
   6030   6026   6027   6033     1  0.0000000  0.0000000  3
   6030   6026   6034   6037     1  0.0000000  0.6973333  3
   6031   6028   6027   6033     1  0.0000000  0.6508444  3
   6040   6036   6022   6044     1  0.0000000  1.0460000  1
   6040   6036   6022   6044     1  0.0000000  0.0000000  3
   6040   6036   6042   6043     1  0.0000000  0.6973333  3
   6041   6036   6022   6044     1  0.0000000  1.0460000  1
   6041   6036   6022   6044     1  0.0000000  0.0000000  3
   6041   6036   6042   6043     1  0.0000000  0.6973333  3
   6045   6046   6049   6053     1  0.0000000  0.6508444  3
   6045   6046   6058   6061     1  0.0000000  1.0460000  1
   6045   6046   6058   6061     1  0.0000000  0.6694400  3
   6045   6059   6065   6066     1  0.0000000  1.0460000  1
   6045   6059   6065   6066     1  0.0000000  0.6694400  3
   6045   6067   6051   6054     1  0.0000000  1.6038667  3
   6046   6049   6050   6052     1  0.0000000  0.6508444  3
   6046   6049   6057   6060     1  0.0000000  1.0460000  1
   6046   6049   6057   6060     1  0.0000000  0.6694400  3
   6046   6045   6059   6063     1  0.0000000  0.6508444  3
   6046   6045   6059   6064     1  0.0000000  0.6508444  3
   6047   6045   6046   6049     1  0.0000000  0.6508444  3
   6047   6045   6046   6058     1  0.0000000  1.0460000  1
   6047   6045   6046   6058     1  0.0000000  0.0000000  3
   6047   6045   6046   6048     1  0.0000000  0.6508444  3
   6047   6045   6059   6065     1  0.0000000  1.0460000  1
   6047   6045   6059   6065     1  0.0000000  0.0000000  3
   6047   6045   6059   6063     1  0.0000000  0.6508444  3
   6047   6045   6059   6064     1  0.0000000  0.6508444  3
   6047   6045   6067   6051     1  0.0000000  1.6038667  3
   6048   6046   6049   6050     1  0.0000000  0.6508444  3
   6048   6046   6049   6057     1  0.0000000  1.0460000  1
   6048   6046   6049   6057     1  0.0000000  0.0000000  3
   6048   6046   6049   6053     1  0.0000000  0.6508444  3
   6048   6046   6058   6061     1  0.0000000  0.6973333  3
   6048   6046   6045   6059     1  0.0000000  0.6508444  3
   6048   6046   6045   6067     1  0.0000000  1.0460000  1
   6048   6046   6045   6067     1  0.0000000  0.0000000  3
   6049   6050   6051   6054     1  0.0000000  0.6508444  3
   6049   6050   6056   6062     1  0.0000000  1.0460000  1
   6049   6050   6056   6062     1  0.0000000  0.6694400  3
   6049   6046   6058   6061     1  0.0000000  1.0460000  1
   6049   6046   6058   6061     1  0.0000000  0.6694400  3
   6050   6049   6057   6060     1  0.0000000  1.0460000  1
   6050   6049   6057   6060     1  0.0000000  0.6694400  3
   6051   6050   6056   6062     1  0.0000000  1.0460000  1
   6051   6050   6056   6062     1  0.0000000  0.6694400  3
   6051   6050   6049   6053     1  0.0000000  0.6508444  3
   6052   6050   6051   6055     1  0.0000000  1.0460000  1
   6052   6050   6051   6055     1  0.0000000  0.0000000  3
   6052   6050   6051   6067     1  0.0000000  1.0460000  1
   6052   6050   6051   6067     1  0.0000000  0.0000000  3
   6052   6050   6051   6054     1  0.0000000  0.6508444  3
   6052   6050   6056   6062     1  0.0000000  0.6973333  3
   6052   6050   6049   6057     1  0.0000000  1.0460000  1
   6052   6050   6049   6057     1  0.0000000  0.0000000  3
   6052   6050   6049   6053     1  0.0000000  0.6508444  3
   6053   6049   6050   6056     1  0.0000000  1.0460000  1
   6053   6049   6050   6056     1  0.0000000  0.0000000  3
   6053   6049   6057   6060     1  0.0000000  0.6973333  3
   6053   6049   6046   6058     1  0.0000000  1.0460000  1
   6053   6049   6046   6058     1  0.0000000  0.0000000  3
   6054   6051   6050   6056     1  0.0000000  0.6508444  3
   6063   6059   6065   6066     1  0.0000000  0.6973333  3
   6063   6059   6045   6067     1  0.0000000  1.0460000  1
   6063   6059   6045   6067     1  0.0000000  0.0000000  3
   6064   6059   6065   6066     1  0.0000000  0.6973333  3
   6064   6059   6045   6067     1  0.0000000  1.0460000  1
   6064   6059   6045   6067     1  0.0000000  0.0000000  3
   6068   6069   6072   6076     1  0.0000000  0.6508444  3
   6068   6069   6081   6084     1  0.0000000  1.0460000  1
   6068   6069   6081   6084     1  0.0000000  0.6694400  3
   6068   6082   6088   6089     1  0.0000000  1.0460000  1
   6068   6082   6088   6089     1  0.0000000  0.6694400  3
   6068   6090   6074   6077     1  0.0000000  1.6038667  3
   6069   6068   6082   6086     1  0.0000000  0.6508444  3
   6069   6068   6082   6087     1  0.0000000  0.6508444  3
   6069   6072   6073   6075     1  0.0000000  0.6508444  3
   6069   6072   6080   6083     1  0.0000000  1.0460000  1
   6069   6072   6080   6083     1  0.0000000  0.6694400  3
   6070   6068   6069   6072     1  0.0000000  0.6508444  3
   6070   6068   6069   6081     1  0.0000000  1.0460000  1
   6070   6068   6069   6081     1  0.0000000  0.0000000  3
   6070   6068   6069   6071     1  0.0000000  0.6508444  3
   6070   6068   6082   6088     1  0.0000000  1.0460000  1
   6070   6068   6082   6088     1  0.0000000  0.0000000  3
   6070   6068   6082   6086     1  0.0000000  0.6508444  3
   6070   6068   6082   6087     1  0.0000000  0.6508444  3
   6070   6068   6090   6074     1  0.0000000  1.6038667  3
   6071   6069   6068   6082     1  0.0000000  0.6508444  3
   6071   6069   6068   6090     1  0.0000000  1.0460000  1
   6071   6069   6068   6090     1  0.0000000  0.0000000  3
   6071   6069   6072   6073     1  0.0000000  0.6508444  3
   6071   6069   6072   6080     1  0.0000000  1.0460000  1
   6071   6069   6072   6080     1  0.0000000  0.0000000  3
   6071   6069   6072   6076     1  0.0000000  0.6508444  3
   6071   6069   6081   6084     1  0.0000000  0.6973333  3
   6072   6069   6081   6084     1  0.0000000  1.0460000  1
   6072   6069   6081   6084     1  0.0000000  0.6694400  3
   6072   6073   6074   6077     1  0.0000000  0.6508444  3
   6072   6073   6079   6085     1  0.0000000  1.0460000  1
   6072   6073   6079   6085     1  0.0000000  0.6694400  3
   6073   6072   6080   6083     1  0.0000000  1.0460000  1
   6073   6072   6080   6083     1  0.0000000  0.6694400  3
   6074   6073   6072   6076     1  0.0000000  0.6508444  3
   6074   6073   6079   6085     1  0.0000000  1.0460000  1
   6074   6073   6079   6085     1  0.0000000  0.6694400  3
   6075   6073   6072   6080     1  0.0000000  1.0460000  1
   6075   6073   6072   6080     1  0.0000000  0.0000000  3
   6075   6073   6072   6076     1  0.0000000  0.6508444  3
   6075   6073   6074   6078     1  0.0000000  1.0460000  1
   6075   6073   6074   6078     1  0.0000000  0.0000000  3
   6075   6073   6074   6090     1  0.0000000  1.0460000  1
   6075   6073   6074   6090     1  0.0000000  0.0000000  3
   6075   6073   6074   6077     1  0.0000000  0.6508444  3
   6075   6073   6079   6085     1  0.0000000  0.6973333  3
   6076   6072   6069   6081     1  0.0000000  1.0460000  1
   6076   6072   6069   6081     1  0.0000000  0.0000000  3
   6076   6072   6073   6079     1  0.0000000  1.0460000  1
   6076   6072   6073   6079     1  0.0000000  0.0000000  3
   6076   6072   6080   6083     1  0.0000000  0.6973333  3
   6077   6074   6073   6079     1  0.0000000  0.6508444  3
   6086   6082   6068   6090     1  0.0000000  1.0460000  1
   6086   6082   6068   6090     1  0.0000000  0.0000000  3
   6086   6082   6088   6089     1  0.0000000  0.6973333  3
   6087   6082   6068   6090     1  0.0000000  1.0460000  1
   6087   6082   6068   6090     1  0.0000000  0.0000000  3
   6087   6082   6088   6089     1  0.0000000  0.6973333  3
   6091   6092   6095   6099     1  0.0000000  0.6508444  3
   6091   6092   6104   6107     1  0.0000000  1.0460000  1
   6091   6092   6104   6107     1  0.0000000  0.6694400  3
   6091   6105   6111   6112     1  0.0000000  1.0460000  1
   6091   6105   6111   6112     1  0.0000000  0.6694400  3
   6091   6113   6097   6100     1  0.0000000  1.6038667  3
   6092   6095   6096   6098     1  0.0000000  0.6508444  3
   6092   6095   6103   6106     1  0.0000000  1.0460000  1
   6092   6095   6103   6106     1  0.0000000  0.6694400  3
   6092   6091   6105   6109     1  0.0000000  0.6508444  3
   6092   6091   6105   6110     1  0.0000000  0.6508444  3
   6093   6091   6092   6095     1  0.0000000  0.6508444  3
   6093   6091   6092   6104     1  0.0000000  1.0460000  1
   6093   6091   6092   6104     1  0.0000000  0.0000000  3
   6093   6091   6092   6094     1  0.0000000  0.6508444  3
   6093   6091   6105   6111     1  0.0000000  1.0460000  1
   6093   6091   6105   6111     1  0.0000000  0.0000000  3
   6093   6091   6105   6109     1  0.0000000  0.6508444  3
   6093   6091   6105   6110     1  0.0000000  0.6508444  3
   6093   6091   6113   6097     1  0.0000000  1.6038667  3
   6094   6092   6095   6096     1  0.0000000  0.6508444  3
   6094   6092   6095   6103     1  0.0000000  1.0460000  1
   6094   6092   6095   6103     1  0.0000000  0.0000000  3
   6094   6092   6095   6099     1  0.0000000  0.6508444  3
   6094   6092   6104   6107     1  0.0000000  0.6973333  3
   6094   6092   6091   6105     1  0.0000000  0.6508444  3
   6094   6092   6091   6113     1  0.0000000  1.0460000  1
   6094   6092   6091   6113     1  0.0000000  0.0000000  3
   6095   6096   6097   6100     1  0.0000000  0.6508444  3
   6095   6096   6102   6108     1  0.0000000  1.0460000  1
   6095   6096   6102   6108     1  0.0000000  0.6694400  3
   6095   6092   6104   6107     1  0.0000000  1.0460000  1
   6095   6092   6104   6107     1  0.0000000  0.6694400  3
   6096   6095   6103   6106     1  0.0000000  1.0460000  1
   6096   6095   6103   6106     1  0.0000000  0.6694400  3
   6097   6096   6102   6108     1  0.0000000  1.0460000  1
   6097   6096   6102   6108     1  0.0000000  0.6694400  3
   6097   6096   6095   6099     1  0.0000000  0.6508444  3
   6098   6096   6097   6101     1  0.0000000  1.0460000  1
   6098   6096   6097   6101     1  0.0000000  0.0000000  3
   6098   6096   6097   6113     1  0.0000000  1.0460000  1
   6098   6096   6097   6113     1  0.0000000  0.0000000  3
   6098   6096   6097   6100     1  0.0000000  0.6508444  3
   6098   6096   6102   6108     1  0.0000000  0.6973333  3
   6098   6096   6095   6103     1  0.0000000  1.0460000  1
   6098   6096   6095   6103     1  0.0000000  0.0000000  3
   6098   6096   6095   6099     1  0.0000000  0.6508444  3
   6099   6095   6096   6102     1  0.0000000  1.0460000  1
   6099   6095   6096   6102     1  0.0000000  0.0000000  3
   6099   6095   6103   6106     1  0.0000000  0.6973333  3
   6099   6095   6092   6104     1  0.0000000  1.0460000  1
   6099   6095   6092   6104     1  0.0000000  0.0000000  3
   6100   6097   6096   6102     1  0.0000000  0.6508444  3
   6109   6105   6111   6112     1  0.0000000  0.6973333  3
   6109   6105   6091   6113     1  0.0000000  1.0460000  1
   6109   6105   6091   6113     1  0.0000000  0.0000000  3
   6110   6105   6111   6112     1  0.0000000  0.6973333  3
   6110   6105   6091   6113     1  0.0000000  1.0460000  1
   6110   6105   6091   6113     1  0.0000000  0.0000000  3
   6114   6115   6118   6122     1  0.0000000  0.6508444  3
   6114   6115   6127   6130     1  0.0000000  1.0460000  1
   6114   6115   6127   6130     1  0.0000000  0.6694400  3
   6114   6128   6134   6135     1  0.0000000  1.0460000  1
   6114   6128   6134   6135     1  0.0000000  0.6694400  3
   6114   6136   6120   6123     1  0.0000000  1.6038667  3
   6115   6114   6128   6132     1  0.0000000  0.6508444  3
   6115   6114   6128   6133     1  0.0000000  0.6508444  3
   6115   6118   6119   6121     1  0.0000000  0.6508444  3
   6115   6118   6126   6129     1  0.0000000  1.0460000  1
   6115   6118   6126   6129     1  0.0000000  0.6694400  3
   6116   6114   6115   6118     1  0.0000000  0.6508444  3
   6116   6114   6115   6127     1  0.0000000  1.0460000  1
   6116   6114   6115   6127     1  0.0000000  0.0000000  3
   6116   6114   6115   6117     1  0.0000000  0.6508444  3
   6116   6114   6128   6134     1  0.0000000  1.0460000  1
   6116   6114   6128   6134     1  0.0000000  0.0000000  3
   6116   6114   6128   6132     1  0.0000000  0.6508444  3
   6116   6114   6128   6133     1  0.0000000  0.6508444  3
   6116   6114   6136   6120     1  0.0000000  1.6038667  3
   6117   6115   6114   6128     1  0.0000000  0.6508444  3
   6117   6115   6114   6136     1  0.0000000  1.0460000  1
   6117   6115   6114   6136     1  0.0000000  0.0000000  3
   6117   6115   6118   6119     1  0.0000000  0.6508444  3
   6117   6115   6118   6126     1  0.0000000  1.0460000  1
   6117   6115   6118   6126     1  0.0000000  0.0000000  3
   6117   6115   6118   6122     1  0.0000000  0.6508444  3
   6117   6115   6127   6130     1  0.0000000  0.6973333  3
   6118   6115   6127   6130     1  0.0000000  1.0460000  1
   6118   6115   6127   6130     1  0.0000000  0.6694400  3
   6118   6119   6120   6123     1  0.0000000  0.6508444  3
   6118   6119   6125   6131     1  0.0000000  1.0460000  1
   6118   6119   6125   6131     1  0.0000000  0.6694400  3
   6119   6118   6126   6129     1  0.0000000  1.0460000  1
   6119   6118   6126   6129     1  0.0000000  0.6694400  3
   6120   6119   6118   6122     1  0.0000000  0.6508444  3
   6120   6119   6125   6131     1  0.0000000  1.0460000  1
   6120   6119   6125   6131     1  0.0000000  0.6694400  3
   6121   6119   6118   6126     1  0.0000000  1.0460000  1
   6121   6119   6118   6126     1  0.0000000  0.0000000  3
   6121   6119   6118   6122     1  0.0000000  0.6508444  3
   6121   6119   6120   6124     1  0.0000000  1.0460000  1
   6121   6119   6120   6124     1  0.0000000  0.0000000  3
   6121   6119   6120   6136     1  0.0000000  1.0460000  1
   6121   6119   6120   6136     1  0.0000000  0.0000000  3
   6121   6119   6120   6123     1  0.0000000  0.6508444  3
   6121   6119   6125   6131     1  0.0000000  0.6973333  3
   6122   6118   6115   6127     1  0.0000000  1.0460000  1
   6122   6118   6115   6127     1  0.0000000  0.0000000  3
   6122   6118   6119   6125     1  0.0000000  1.0460000  1
   6122   6118   6119   6125     1  0.0000000  0.0000000  3
   6122   6118   6126   6129     1  0.0000000  0.6973333  3
   6123   6120   6119   6125     1  0.0000000  0.6508444  3
   6132   6128   6114   6136     1  0.0000000  1.0460000  1
   6132   6128   6114   6136     1  0.0000000  0.0000000  3
   6132   6128   6134   6135     1  0.0000000  0.6973333  3
   6133   6128   6114   6136     1  0.0000000  1.0460000  1
   6133   6128   6114   6136     1  0.0000000  0.0000000  3
   6133   6128   6134   6135     1  0.0000000  0.6973333  3
   6137   6138   6141   6145     1  0.0000000  0.6508444  3
   6137   6138   6150   6153     1  0.0000000  1.0460000  1
   6137   6138   6150   6153     1  0.0000000  0.6694400  3
   6137   6151   6157   6158     1  0.0000000  1.0460000  1
   6137   6151   6157   6158     1  0.0000000  0.6694400  3
   6137   6159   6143   6146     1  0.0000000  1.6038667  3
   6138   6141   6142   6144     1  0.0000000  0.6508444  3
   6138   6141   6149   6152     1  0.0000000  1.0460000  1
   6138   6141   6149   6152     1  0.0000000  0.6694400  3
   6138   6137   6151   6155     1  0.0000000  0.6508444  3
   6138   6137   6151   6156     1  0.0000000  0.6508444  3
   6139   6137   6138   6141     1  0.0000000  0.6508444  3
   6139   6137   6138   6150     1  0.0000000  1.0460000  1
   6139   6137   6138   6150     1  0.0000000  0.0000000  3
   6139   6137   6138   6140     1  0.0000000  0.6508444  3
   6139   6137   6151   6157     1  0.0000000  1.0460000  1
   6139   6137   6151   6157     1  0.0000000  0.0000000  3
   6139   6137   6151   6155     1  0.0000000  0.6508444  3
   6139   6137   6151   6156     1  0.0000000  0.6508444  3
   6139   6137   6159   6143     1  0.0000000  1.6038667  3
   6140   6138   6141   6142     1  0.0000000  0.6508444  3
   6140   6138   6141   6149     1  0.0000000  1.0460000  1
   6140   6138   6141   6149     1  0.0000000  0.0000000  3
   6140   6138   6141   6145     1  0.0000000  0.6508444  3
   6140   6138   6150   6153     1  0.0000000  0.6973333  3
   6140   6138   6137   6151     1  0.0000000  0.6508444  3
   6140   6138   6137   6159     1  0.0000000  1.0460000  1
   6140   6138   6137   6159     1  0.0000000  0.0000000  3
   6141   6142   6143   6146     1  0.0000000  0.6508444  3
   6141   6142   6148   6154     1  0.0000000  1.0460000  1
   6141   6142   6148   6154     1  0.0000000  0.6694400  3
   6141   6138   6150   6153     1  0.0000000  1.0460000  1
   6141   6138   6150   6153     1  0.0000000  0.6694400  3
   6142   6141   6149   6152     1  0.0000000  1.0460000  1
   6142   6141   6149   6152     1  0.0000000  0.6694400  3
   6143   6142   6148   6154     1  0.0000000  1.0460000  1
   6143   6142   6148   6154     1  0.0000000  0.6694400  3
   6143   6142   6141   6145     1  0.0000000  0.6508444  3
   6144   6142   6143   6147     1  0.0000000  1.0460000  1
   6144   6142   6143   6147     1  0.0000000  0.0000000  3
   6144   6142   6143   6159     1  0.0000000  1.0460000  1
   6144   6142   6143   6159     1  0.0000000  0.0000000  3
   6144   6142   6143   6146     1  0.0000000  0.6508444  3
   6144   6142   6148   6154     1  0.0000000  0.6973333  3
   6144   6142   6141   6149     1  0.0000000  1.0460000  1
   6144   6142   6141   6149     1  0.0000000  0.0000000  3
   6144   6142   6141   6145     1  0.0000000  0.6508444  3
   6145   6141   6142   6148     1  0.0000000  1.0460000  1
   6145   6141   6142   6148     1  0.0000000  0.0000000  3
   6145   6141   6149   6152     1  0.0000000  0.6973333  3
   6145   6141   6138   6150     1  0.0000000  1.0460000  1
   6145   6141   6138   6150     1  0.0000000  0.0000000  3
   6146   6143   6142   6148     1  0.0000000  0.6508444  3
   6155   6151   6157   6158     1  0.0000000  0.6973333  3
   6155   6151   6137   6159     1  0.0000000  1.0460000  1
   6155   6151   6137   6159     1  0.0000000  0.0000000  3
   6156   6151   6157   6158     1  0.0000000  0.6973333  3
   6156   6151   6137   6159     1  0.0000000  1.0460000  1
   6156   6151   6137   6159     1  0.0000000  0.0000000  3
   6160   6161   6164   6168     1  0.0000000  0.6508444  3
   6160   6161   6173   6176     1  0.0000000  1.0460000  1
   6160   6161   6173   6176     1  0.0000000  0.6694400  3
   6160   6174   6180   6181     1  0.0000000  1.0460000  1
   6160   6174   6180   6181     1  0.0000000  0.6694400  3
   6160   6182   6166   6169     1  0.0000000  1.6038667  3
   6161   6160   6174   6178     1  0.0000000  0.6508444  3
   6161   6160   6174   6179     1  0.0000000  0.6508444  3
   6161   6164   6165   6167     1  0.0000000  0.6508444  3
   6161   6164   6172   6175     1  0.0000000  1.0460000  1
   6161   6164   6172   6175     1  0.0000000  0.6694400  3
   6162   6160   6161   6164     1  0.0000000  0.6508444  3
   6162   6160   6161   6173     1  0.0000000  1.0460000  1
   6162   6160   6161   6173     1  0.0000000  0.0000000  3
   6162   6160   6161   6163     1  0.0000000  0.6508444  3
   6162   6160   6174   6180     1  0.0000000  1.0460000  1
   6162   6160   6174   6180     1  0.0000000  0.0000000  3
   6162   6160   6174   6178     1  0.0000000  0.6508444  3
   6162   6160   6174   6179     1  0.0000000  0.6508444  3
   6162   6160   6182   6166     1  0.0000000  1.6038667  3
   6163   6161   6160   6174     1  0.0000000  0.6508444  3
   6163   6161   6160   6182     1  0.0000000  1.0460000  1
   6163   6161   6160   6182     1  0.0000000  0.0000000  3
   6163   6161   6164   6165     1  0.0000000  0.6508444  3
   6163   6161   6164   6172     1  0.0000000  1.0460000  1
   6163   6161   6164   6172     1  0.0000000  0.0000000  3
   6163   6161   6164   6168     1  0.0000000  0.6508444  3
   6163   6161   6173   6176     1  0.0000000  0.6973333  3
   6164   6161   6173   6176     1  0.0000000  1.0460000  1
   6164   6161   6173   6176     1  0.0000000  0.6694400  3
   6164   6165   6166   6169     1  0.0000000  0.6508444  3
   6164   6165   6171   6177     1  0.0000000  1.0460000  1
   6164   6165   6171   6177     1  0.0000000  0.6694400  3
   6165   6164   6172   6175     1  0.0000000  1.0460000  1
   6165   6164   6172   6175     1  0.0000000  0.6694400  3
   6166   6165   6164   6168     1  0.0000000  0.6508444  3
   6166   6165   6171   6177     1  0.0000000  1.0460000  1
   6166   6165   6171   6177     1  0.0000000  0.6694400  3
   6167   6165   6164   6172     1  0.0000000  1.0460000  1
   6167   6165   6164   6172     1  0.0000000  0.0000000  3
   6167   6165   6164   6168     1  0.0000000  0.6508444  3
   6167   6165   6166   6170     1  0.0000000  1.0460000  1
   6167   6165   6166   6170     1  0.0000000  0.0000000  3
   6167   6165   6166   6182     1  0.0000000  1.0460000  1
   6167   6165   6166   6182     1  0.0000000  0.0000000  3
   6167   6165   6166   6169     1  0.0000000  0.6508444  3
   6167   6165   6171   6177     1  0.0000000  0.6973333  3
   6168   6164   6161   6173     1  0.0000000  1.0460000  1
   6168   6164   6161   6173     1  0.0000000  0.0000000  3
   6168   6164   6165   6171     1  0.0000000  1.0460000  1
   6168   6164   6165   6171     1  0.0000000  0.0000000  3
   6168   6164   6172   6175     1  0.0000000  0.6973333  3
   6169   6166   6165   6171     1  0.0000000  0.6508444  3
   6178   6174   6160   6182     1  0.0000000  1.0460000  1
   6178   6174   6160   6182     1  0.0000000  0.0000000  3
   6178   6174   6180   6181     1  0.0000000  0.6973333  3
   6179   6174   6160   6182     1  0.0000000  1.0460000  1
   6179   6174   6160   6182     1  0.0000000  0.0000000  3
   6179   6174   6180   6181     1  0.0000000  0.6973333  3
   6183   6184   6187   6191     1  0.0000000  0.6508444  3
   6183   6184   6196   6199     1  0.0000000  1.0460000  1
   6183   6184   6196   6199     1  0.0000000  0.6694400  3
   6183   6197   6203   6204     1  0.0000000  1.0460000  1
   6183   6197   6203   6204     1  0.0000000  0.6694400  3
   6183   6205   6189   6192     1  0.0000000  1.6038667  3
   6184   6187   6188   6190     1  0.0000000  0.6508444  3
   6184   6187   6195   6198     1  0.0000000  1.0460000  1
   6184   6187   6195   6198     1  0.0000000  0.6694400  3
   6184   6183   6197   6201     1  0.0000000  0.6508444  3
   6184   6183   6197   6202     1  0.0000000  0.6508444  3
   6185   6183   6184   6187     1  0.0000000  0.6508444  3
   6185   6183   6184   6196     1  0.0000000  1.0460000  1
   6185   6183   6184   6196     1  0.0000000  0.0000000  3
   6185   6183   6184   6186     1  0.0000000  0.6508444  3
   6185   6183   6197   6203     1  0.0000000  1.0460000  1
   6185   6183   6197   6203     1  0.0000000  0.0000000  3
   6185   6183   6197   6201     1  0.0000000  0.6508444  3
   6185   6183   6197   6202     1  0.0000000  0.6508444  3
   6185   6183   6205   6189     1  0.0000000  1.6038667  3
   6186   6184   6187   6188     1  0.0000000  0.6508444  3
   6186   6184   6187   6195     1  0.0000000  1.0460000  1
   6186   6184   6187   6195     1  0.0000000  0.0000000  3
   6186   6184   6187   6191     1  0.0000000  0.6508444  3
   6186   6184   6196   6199     1  0.0000000  0.6973333  3
   6186   6184   6183   6197     1  0.0000000  0.6508444  3
   6186   6184   6183   6205     1  0.0000000  1.0460000  1
   6186   6184   6183   6205     1  0.0000000  0.0000000  3
   6187   6188   6189   6192     1  0.0000000  0.6508444  3
   6187   6188   6194   6200     1  0.0000000  1.0460000  1
   6187   6188   6194   6200     1  0.0000000  0.6694400  3
   6187   6184   6196   6199     1  0.0000000  1.0460000  1
   6187   6184   6196   6199     1  0.0000000  0.6694400  3
   6188   6187   6195   6198     1  0.0000000  1.0460000  1
   6188   6187   6195   6198     1  0.0000000  0.6694400  3
   6189   6188   6194   6200     1  0.0000000  1.0460000  1
   6189   6188   6194   6200     1  0.0000000  0.6694400  3
   6189   6188   6187   6191     1  0.0000000  0.6508444  3
   6190   6188   6189   6193     1  0.0000000  1.0460000  1
   6190   6188   6189   6193     1  0.0000000  0.0000000  3
   6190   6188   6189   6205     1  0.0000000  1.0460000  1
   6190   6188   6189   6205     1  0.0000000  0.0000000  3
   6190   6188   6189   6192     1  0.0000000  0.6508444  3
   6190   6188   6194   6200     1  0.0000000  0.6973333  3
   6190   6188   6187   6195     1  0.0000000  1.0460000  1
   6190   6188   6187   6195     1  0.0000000  0.0000000  3
   6190   6188   6187   6191     1  0.0000000  0.6508444  3
   6191   6187   6188   6194     1  0.0000000  1.0460000  1
   6191   6187   6188   6194     1  0.0000000  0.0000000  3
   6191   6187   6195   6198     1  0.0000000  0.6973333  3
   6191   6187   6184   6196     1  0.0000000  1.0460000  1
   6191   6187   6184   6196     1  0.0000000  0.0000000  3
   6192   6189   6188   6194     1  0.0000000  0.6508444  3
   6201   6197   6203   6204     1  0.0000000  0.6973333  3
   6201   6197   6183   6205     1  0.0000000  1.0460000  1
   6201   6197   6183   6205     1  0.0000000  0.0000000  3
   6202   6197   6203   6204     1  0.0000000  0.6973333  3
   6202   6197   6183   6205     1  0.0000000  1.0460000  1
   6202   6197   6183   6205     1  0.0000000  0.0000000  3
   6206   6207   6210   6214     1  0.0000000  0.6508444  3
   6206   6207   6219   6222     1  0.0000000  1.0460000  1
   6206   6207   6219   6222     1  0.0000000  0.6694400  3
   6206   6220   6226   6227     1  0.0000000  1.0460000  1
   6206   6220   6226   6227     1  0.0000000  0.6694400  3
   6206   6228   6212   6215     1  0.0000000  1.6038667  3
   6207   6206   6220   6224     1  0.0000000  0.6508444  3
   6207   6206   6220   6225     1  0.0000000  0.6508444  3
   6207   6210   6211   6213     1  0.0000000  0.6508444  3
   6207   6210   6218   6221     1  0.0000000  1.0460000  1
   6207   6210   6218   6221     1  0.0000000  0.6694400  3
   6208   6206   6207   6210     1  0.0000000  0.6508444  3
   6208   6206   6207   6219     1  0.0000000  1.0460000  1
   6208   6206   6207   6219     1  0.0000000  0.0000000  3
   6208   6206   6207   6209     1  0.0000000  0.6508444  3
   6208   6206   6220   6226     1  0.0000000  1.0460000  1
   6208   6206   6220   6226     1  0.0000000  0.0000000  3
   6208   6206   6220   6224     1  0.0000000  0.6508444  3
   6208   6206   6220   6225     1  0.0000000  0.6508444  3
   6208   6206   6228   6212     1  0.0000000  1.6038667  3
   6209   6207   6206   6220     1  0.0000000  0.6508444  3
   6209   6207   6206   6228     1  0.0000000  1.0460000  1
   6209   6207   6206   6228     1  0.0000000  0.0000000  3
   6209   6207   6210   6211     1  0.0000000  0.6508444  3
   6209   6207   6210   6218     1  0.0000000  1.0460000  1
   6209   6207   6210   6218     1  0.0000000  0.0000000  3
   6209   6207   6210   6214     1  0.0000000  0.6508444  3
   6209   6207   6219   6222     1  0.0000000  0.6973333  3
   6210   6207   6219   6222     1  0.0000000  1.0460000  1
   6210   6207   6219   6222     1  0.0000000  0.6694400  3
   6210   6211   6212   6215     1  0.0000000  0.6508444  3
   6210   6211   6217   6223     1  0.0000000  1.0460000  1
   6210   6211   6217   6223     1  0.0000000  0.6694400  3
   6211   6210   6218   6221     1  0.0000000  1.0460000  1
   6211   6210   6218   6221     1  0.0000000  0.6694400  3
   6212   6211   6210   6214     1  0.0000000  0.6508444  3
   6212   6211   6217   6223     1  0.0000000  1.0460000  1
   6212   6211   6217   6223     1  0.0000000  0.6694400  3
   6213   6211   6210   6218     1  0.0000000  1.0460000  1
   6213   6211   6210   6218     1  0.0000000  0.0000000  3
   6213   6211   6210   6214     1  0.0000000  0.6508444  3
   6213   6211   6212   6216     1  0.0000000  1.0460000  1
   6213   6211   6212   6216     1  0.0000000  0.0000000  3
   6213   6211   6212   6228     1  0.0000000  1.0460000  1
   6213   6211   6212   6228     1  0.0000000  0.0000000  3
   6213   6211   6212   6215     1  0.0000000  0.6508444  3
   6213   6211   6217   6223     1  0.0000000  0.6973333  3
   6214   6210   6207   6219     1  0.0000000  1.0460000  1
   6214   6210   6207   6219     1  0.0000000  0.0000000  3
   6214   6210   6211   6217     1  0.0000000  1.0460000  1
   6214   6210   6211   6217     1  0.0000000  0.0000000  3
   6214   6210   6218   6221     1  0.0000000  0.6973333  3
   6215   6212   6211   6217     1  0.0000000  0.6508444  3
   6224   6220   6206   6228     1  0.0000000  1.0460000  1
   6224   6220   6206   6228     1  0.0000000  0.0000000  3
   6224   6220   6226   6227     1  0.0000000  0.6973333  3
   6225   6220   6206   6228     1  0.0000000  1.0460000  1
   6225   6220   6206   6228     1  0.0000000  0.0000000  3
   6225   6220   6226   6227     1  0.0000000  0.6973333  3
   6229   6230   6233   6237     1  0.0000000  0.6508444  3
   6229   6230   6242   6245     1  0.0000000  1.0460000  1
   6229   6230   6242   6245     1  0.0000000  0.6694400  3
   6229   6243   6249   6250     1  0.0000000  1.0460000  1
   6229   6243   6249   6250     1  0.0000000  0.6694400  3
   6229   6251   6235   6238     1  0.0000000  1.6038667  3
   6230   6233   6234   6236     1  0.0000000  0.6508444  3
   6230   6233   6241   6244     1  0.0000000  1.0460000  1
   6230   6233   6241   6244     1  0.0000000  0.6694400  3
   6230   6229   6243   6247     1  0.0000000  0.6508444  3
   6230   6229   6243   6248     1  0.0000000  0.6508444  3
   6231   6229   6230   6233     1  0.0000000  0.6508444  3
   6231   6229   6230   6242     1  0.0000000  1.0460000  1
   6231   6229   6230   6242     1  0.0000000  0.0000000  3
   6231   6229   6230   6232     1  0.0000000  0.6508444  3
   6231   6229   6243   6249     1  0.0000000  1.0460000  1
   6231   6229   6243   6249     1  0.0000000  0.0000000  3
   6231   6229   6243   6247     1  0.0000000  0.6508444  3
   6231   6229   6243   6248     1  0.0000000  0.6508444  3
   6231   6229   6251   6235     1  0.0000000  1.6038667  3
   6232   6230   6233   6234     1  0.0000000  0.6508444  3
   6232   6230   6233   6241     1  0.0000000  1.0460000  1
   6232   6230   6233   6241     1  0.0000000  0.0000000  3
   6232   6230   6233   6237     1  0.0000000  0.6508444  3
   6232   6230   6242   6245     1  0.0000000  0.6973333  3
   6232   6230   6229   6243     1  0.0000000  0.6508444  3
   6232   6230   6229   6251     1  0.0000000  1.0460000  1
   6232   6230   6229   6251     1  0.0000000  0.0000000  3
   6233   6234   6235   6238     1  0.0000000  0.6508444  3
   6233   6234   6240   6246     1  0.0000000  1.0460000  1
   6233   6234   6240   6246     1  0.0000000  0.6694400  3
   6233   6230   6242   6245     1  0.0000000  1.0460000  1
   6233   6230   6242   6245     1  0.0000000  0.6694400  3
   6234   6233   6241   6244     1  0.0000000  1.0460000  1
   6234   6233   6241   6244     1  0.0000000  0.6694400  3
   6235   6234   6240   6246     1  0.0000000  1.0460000  1
   6235   6234   6240   6246     1  0.0000000  0.6694400  3
   6235   6234   6233   6237     1  0.0000000  0.6508444  3
   6236   6234   6235   6239     1  0.0000000  1.0460000  1
   6236   6234   6235   6239     1  0.0000000  0.0000000  3
   6236   6234   6235   6251     1  0.0000000  1.0460000  1
   6236   6234   6235   6251     1  0.0000000  0.0000000  3
   6236   6234   6235   6238     1  0.0000000  0.6508444  3
   6236   6234   6240   6246     1  0.0000000  0.6973333  3
   6236   6234   6233   6241     1  0.0000000  1.0460000  1
   6236   6234   6233   6241     1  0.0000000  0.0000000  3
   6236   6234   6233   6237     1  0.0000000  0.6508444  3
   6237   6233   6234   6240     1  0.0000000  1.0460000  1
   6237   6233   6234   6240     1  0.0000000  0.0000000  3
   6237   6233   6241   6244     1  0.0000000  0.6973333  3
   6237   6233   6230   6242     1  0.0000000  1.0460000  1
   6237   6233   6230   6242     1  0.0000000  0.0000000  3
   6238   6235   6234   6240     1  0.0000000  0.6508444  3
   6247   6243   6249   6250     1  0.0000000  0.6973333  3
   6247   6243   6229   6251     1  0.0000000  1.0460000  1
   6247   6243   6229   6251     1  0.0000000  0.0000000  3
   6248   6243   6249   6250     1  0.0000000  0.6973333  3
   6248   6243   6229   6251     1  0.0000000  1.0460000  1
   6248   6243   6229   6251     1  0.0000000  0.0000000  3
   6252   6253   6256   6260     1  0.0000000  0.6508444  3
   6252   6253   6265   6268     1  0.0000000  1.0460000  1
   6252   6253   6265   6268     1  0.0000000  0.6694400  3
   6252   6266   6272   6273     1  0.0000000  1.0460000  1
   6252   6266   6272   6273     1  0.0000000  0.6694400  3
   6252   6274   6258   6261     1  0.0000000  1.6038667  3
   6253   6252   6266   6270     1  0.0000000  0.6508444  3
   6253   6252   6266   6271     1  0.0000000  0.6508444  3
   6253   6256   6257   6259     1  0.0000000  0.6508444  3
   6253   6256   6264   6267     1  0.0000000  1.0460000  1
   6253   6256   6264   6267     1  0.0000000  0.6694400  3
   6254   6252   6253   6256     1  0.0000000  0.6508444  3
   6254   6252   6253   6265     1  0.0000000  1.0460000  1
   6254   6252   6253   6265     1  0.0000000  0.0000000  3
   6254   6252   6253   6255     1  0.0000000  0.6508444  3
   6254   6252   6266   6272     1  0.0000000  1.0460000  1
   6254   6252   6266   6272     1  0.0000000  0.0000000  3
   6254   6252   6266   6270     1  0.0000000  0.6508444  3
   6254   6252   6266   6271     1  0.0000000  0.6508444  3
   6254   6252   6274   6258     1  0.0000000  1.6038667  3
   6255   6253   6252   6266     1  0.0000000  0.6508444  3
   6255   6253   6252   6274     1  0.0000000  1.0460000  1
   6255   6253   6252   6274     1  0.0000000  0.0000000  3
   6255   6253   6256   6257     1  0.0000000  0.6508444  3
   6255   6253   6256   6264     1  0.0000000  1.0460000  1
   6255   6253   6256   6264     1  0.0000000  0.0000000  3
   6255   6253   6256   6260     1  0.0000000  0.6508444  3
   6255   6253   6265   6268     1  0.0000000  0.6973333  3
   6256   6253   6265   6268     1  0.0000000  1.0460000  1
   6256   6253   6265   6268     1  0.0000000  0.6694400  3
   6256   6257   6258   6261     1  0.0000000  0.6508444  3
   6256   6257   6263   6269     1  0.0000000  1.0460000  1
   6256   6257   6263   6269     1  0.0000000  0.6694400  3
   6257   6256   6264   6267     1  0.0000000  1.0460000  1
   6257   6256   6264   6267     1  0.0000000  0.6694400  3
   6258   6257   6256   6260     1  0.0000000  0.6508444  3
   6258   6257   6263   6269     1  0.0000000  1.0460000  1
   6258   6257   6263   6269     1  0.0000000  0.6694400  3
   6259   6257   6256   6264     1  0.0000000  1.0460000  1
   6259   6257   6256   6264     1  0.0000000  0.0000000  3
   6259   6257   6256   6260     1  0.0000000  0.6508444  3
   6259   6257   6258   6262     1  0.0000000  1.0460000  1
   6259   6257   6258   6262     1  0.0000000  0.0000000  3
   6259   6257   6258   6274     1  0.0000000  1.0460000  1
   6259   6257   6258   6274     1  0.0000000  0.0000000  3
   6259   6257   6258   6261     1  0.0000000  0.6508444  3
   6259   6257   6263   6269     1  0.0000000  0.6973333  3
   6260   6256   6253   6265     1  0.0000000  1.0460000  1
   6260   6256   6253   6265     1  0.0000000  0.0000000  3
   6260   6256   6257   6263     1  0.0000000  1.0460000  1
   6260   6256   6257   6263     1  0.0000000  0.0000000  3
   6260   6256   6264   6267     1  0.0000000  0.6973333  3
   6261   6258   6257   6263     1  0.0000000  0.6508444  3
   6270   6266   6252   6274     1  0.0000000  1.0460000  1
   6270   6266   6252   6274     1  0.0000000  0.0000000  3
   6270   6266   6272   6273     1  0.0000000  0.6973333  3
   6271   6266   6252   6274     1  0.0000000  1.0460000  1
   6271   6266   6252   6274     1  0.0000000  0.0000000  3
   6271   6266   6272   6273     1  0.0000000  0.6973333  3
   6275   6276   6279   6283     1  0.0000000  0.6508444  3
   6275   6276   6288   6291     1  0.0000000  1.0460000  1
   6275   6276   6288   6291     1  0.0000000  0.6694400  3
   6275   6289   6295   6296     1  0.0000000  1.0460000  1
   6275   6289   6295   6296     1  0.0000000  0.6694400  3
   6275   6297   6281   6284     1  0.0000000  1.6038667  3
   6276   6279   6280   6282     1  0.0000000  0.6508444  3
   6276   6279   6287   6290     1  0.0000000  1.0460000  1
   6276   6279   6287   6290     1  0.0000000  0.6694400  3
   6276   6275   6289   6293     1  0.0000000  0.6508444  3
   6276   6275   6289   6294     1  0.0000000  0.6508444  3
   6277   6275   6276   6279     1  0.0000000  0.6508444  3
   6277   6275   6276   6288     1  0.0000000  1.0460000  1
   6277   6275   6276   6288     1  0.0000000  0.0000000  3
   6277   6275   6276   6278     1  0.0000000  0.6508444  3
   6277   6275   6289   6295     1  0.0000000  1.0460000  1
   6277   6275   6289   6295     1  0.0000000  0.0000000  3
   6277   6275   6289   6293     1  0.0000000  0.6508444  3
   6277   6275   6289   6294     1  0.0000000  0.6508444  3
   6277   6275   6297   6281     1  0.0000000  1.6038667  3
   6278   6276   6279   6280     1  0.0000000  0.6508444  3
   6278   6276   6279   6287     1  0.0000000  1.0460000  1
   6278   6276   6279   6287     1  0.0000000  0.0000000  3
   6278   6276   6279   6283     1  0.0000000  0.6508444  3
   6278   6276   6288   6291     1  0.0000000  0.6973333  3
   6278   6276   6275   6289     1  0.0000000  0.6508444  3
   6278   6276   6275   6297     1  0.0000000  1.0460000  1
   6278   6276   6275   6297     1  0.0000000  0.0000000  3
   6279   6280   6281   6284     1  0.0000000  0.6508444  3
   6279   6280   6286   6292     1  0.0000000  1.0460000  1
   6279   6280   6286   6292     1  0.0000000  0.6694400  3
   6279   6276   6288   6291     1  0.0000000  1.0460000  1
   6279   6276   6288   6291     1  0.0000000  0.6694400  3
   6280   6279   6287   6290     1  0.0000000  1.0460000  1
   6280   6279   6287   6290     1  0.0000000  0.6694400  3
   6281   6280   6286   6292     1  0.0000000  1.0460000  1
   6281   6280   6286   6292     1  0.0000000  0.6694400  3
   6281   6280   6279   6283     1  0.0000000  0.6508444  3
   6282   6280   6281   6285     1  0.0000000  1.0460000  1
   6282   6280   6281   6285     1  0.0000000  0.0000000  3
   6282   6280   6281   6297     1  0.0000000  1.0460000  1
   6282   6280   6281   6297     1  0.0000000  0.0000000  3
   6282   6280   6281   6284     1  0.0000000  0.6508444  3
   6282   6280   6286   6292     1  0.0000000  0.6973333  3
   6282   6280   6279   6287     1  0.0000000  1.0460000  1
   6282   6280   6279   6287     1  0.0000000  0.0000000  3
   6282   6280   6279   6283     1  0.0000000  0.6508444  3
   6283   6279   6280   6286     1  0.0000000  1.0460000  1
   6283   6279   6280   6286     1  0.0000000  0.0000000  3
   6283   6279   6287   6290     1  0.0000000  0.6973333  3
   6283   6279   6276   6288     1  0.0000000  1.0460000  1
   6283   6279   6276   6288     1  0.0000000  0.0000000  3
   6284   6281   6280   6286     1  0.0000000  0.6508444  3
   6293   6289   6295   6296     1  0.0000000  0.6973333  3
   6293   6289   6275   6297     1  0.0000000  1.0460000  1
   6293   6289   6275   6297     1  0.0000000  0.0000000  3
   6294   6289   6295   6296     1  0.0000000  0.6973333  3
   6294   6289   6275   6297     1  0.0000000  1.0460000  1
   6294   6289   6275   6297     1  0.0000000  0.0000000  3
   6298   6299   6302   6306     1  0.0000000  0.6508444  3
   6298   6299   6311   6314     1  0.0000000  1.0460000  1
   6298   6299   6311   6314     1  0.0000000  0.6694400  3
   6298   6312   6318   6319     1  0.0000000  1.0460000  1
   6298   6312   6318   6319     1  0.0000000  0.6694400  3
   6298   6320   6304   6307     1  0.0000000  1.6038667  3
   6299   6298   6312   6316     1  0.0000000  0.6508444  3
   6299   6298   6312   6317     1  0.0000000  0.6508444  3
   6299   6302   6303   6305     1  0.0000000  0.6508444  3
   6299   6302   6310   6313     1  0.0000000  1.0460000  1
   6299   6302   6310   6313     1  0.0000000  0.6694400  3
   6300   6298   6299   6302     1  0.0000000  0.6508444  3
   6300   6298   6299   6311     1  0.0000000  1.0460000  1
   6300   6298   6299   6311     1  0.0000000  0.0000000  3
   6300   6298   6299   6301     1  0.0000000  0.6508444  3
   6300   6298   6312   6318     1  0.0000000  1.0460000  1
   6300   6298   6312   6318     1  0.0000000  0.0000000  3
   6300   6298   6312   6316     1  0.0000000  0.6508444  3
   6300   6298   6312   6317     1  0.0000000  0.6508444  3
   6300   6298   6320   6304     1  0.0000000  1.6038667  3
   6301   6299   6298   6312     1  0.0000000  0.6508444  3
   6301   6299   6298   6320     1  0.0000000  1.0460000  1
   6301   6299   6298   6320     1  0.0000000  0.0000000  3
   6301   6299   6302   6303     1  0.0000000  0.6508444  3
   6301   6299   6302   6310     1  0.0000000  1.0460000  1
   6301   6299   6302   6310     1  0.0000000  0.0000000  3
   6301   6299   6302   6306     1  0.0000000  0.6508444  3
   6301   6299   6311   6314     1  0.0000000  0.6973333  3
   6302   6299   6311   6314     1  0.0000000  1.0460000  1
   6302   6299   6311   6314     1  0.0000000  0.6694400  3
   6302   6303   6304   6307     1  0.0000000  0.6508444  3
   6302   6303   6309   6315     1  0.0000000  1.0460000  1
   6302   6303   6309   6315     1  0.0000000  0.6694400  3
   6303   6302   6310   6313     1  0.0000000  1.0460000  1
   6303   6302   6310   6313     1  0.0000000  0.6694400  3
   6304   6303   6302   6306     1  0.0000000  0.6508444  3
   6304   6303   6309   6315     1  0.0000000  1.0460000  1
   6304   6303   6309   6315     1  0.0000000  0.6694400  3
   6305   6303   6302   6310     1  0.0000000  1.0460000  1
   6305   6303   6302   6310     1  0.0000000  0.0000000  3
   6305   6303   6302   6306     1  0.0000000  0.6508444  3
   6305   6303   6304   6308     1  0.0000000  1.0460000  1
   6305   6303   6304   6308     1  0.0000000  0.0000000  3
   6305   6303   6304   6320     1  0.0000000  1.0460000  1
   6305   6303   6304   6320     1  0.0000000  0.0000000  3
   6305   6303   6304   6307     1  0.0000000  0.6508444  3
   6305   6303   6309   6315     1  0.0000000  0.6973333  3
   6306   6302   6299   6311     1  0.0000000  1.0460000  1
   6306   6302   6299   6311     1  0.0000000  0.0000000  3
   6306   6302   6303   6309     1  0.0000000  1.0460000  1
   6306   6302   6303   6309     1  0.0000000  0.0000000  3
   6306   6302   6310   6313     1  0.0000000  0.6973333  3
   6307   6304   6303   6309     1  0.0000000  0.6508444  3
   6316   6312   6298   6320     1  0.0000000  1.0460000  1
   6316   6312   6298   6320     1  0.0000000  0.0000000  3
   6316   6312   6318   6319     1  0.0000000  0.6973333  3
   6317   6312   6298   6320     1  0.0000000  1.0460000  1
   6317   6312   6298   6320     1  0.0000000  0.0000000  3
   6317   6312   6318   6319     1  0.0000000  0.6973333  3
   6321   6322   6325   6329     1  0.0000000  0.6508444  3
   6321   6322   6334   6337     1  0.0000000  1.0460000  1
   6321   6322   6334   6337     1  0.0000000  0.6694400  3
   6321   6335   6341   6342     1  0.0000000  1.0460000  1
   6321   6335   6341   6342     1  0.0000000  0.6694400  3
   6321   6343   6327   6330     1  0.0000000  1.6038667  3
   6322   6325   6326   6328     1  0.0000000  0.6508444  3
   6322   6325   6333   6336     1  0.0000000  1.0460000  1
   6322   6325   6333   6336     1  0.0000000  0.6694400  3
   6322   6321   6335   6339     1  0.0000000  0.6508444  3
   6322   6321   6335   6340     1  0.0000000  0.6508444  3
   6323   6321   6322   6325     1  0.0000000  0.6508444  3
   6323   6321   6322   6334     1  0.0000000  1.0460000  1
   6323   6321   6322   6334     1  0.0000000  0.0000000  3
   6323   6321   6322   6324     1  0.0000000  0.6508444  3
   6323   6321   6335   6341     1  0.0000000  1.0460000  1
   6323   6321   6335   6341     1  0.0000000  0.0000000  3
   6323   6321   6335   6339     1  0.0000000  0.6508444  3
   6323   6321   6335   6340     1  0.0000000  0.6508444  3
   6323   6321   6343   6327     1  0.0000000  1.6038667  3
   6324   6322   6325   6326     1  0.0000000  0.6508444  3
   6324   6322   6325   6333     1  0.0000000  1.0460000  1
   6324   6322   6325   6333     1  0.0000000  0.0000000  3
   6324   6322   6325   6329     1  0.0000000  0.6508444  3
   6324   6322   6334   6337     1  0.0000000  0.6973333  3
   6324   6322   6321   6335     1  0.0000000  0.6508444  3
   6324   6322   6321   6343     1  0.0000000  1.0460000  1
   6324   6322   6321   6343     1  0.0000000  0.0000000  3
   6325   6326   6327   6330     1  0.0000000  0.6508444  3
   6325   6326   6332   6338     1  0.0000000  1.0460000  1
   6325   6326   6332   6338     1  0.0000000  0.6694400  3
   6325   6322   6334   6337     1  0.0000000  1.0460000  1
   6325   6322   6334   6337     1  0.0000000  0.6694400  3
   6326   6325   6333   6336     1  0.0000000  1.0460000  1
   6326   6325   6333   6336     1  0.0000000  0.6694400  3
   6327   6326   6332   6338     1  0.0000000  1.0460000  1
   6327   6326   6332   6338     1  0.0000000  0.6694400  3
   6327   6326   6325   6329     1  0.0000000  0.6508444  3
   6328   6326   6327   6331     1  0.0000000  1.0460000  1
   6328   6326   6327   6331     1  0.0000000  0.0000000  3
   6328   6326   6327   6343     1  0.0000000  1.0460000  1
   6328   6326   6327   6343     1  0.0000000  0.0000000  3
   6328   6326   6327   6330     1  0.0000000  0.6508444  3
   6328   6326   6332   6338     1  0.0000000  0.6973333  3
   6328   6326   6325   6333     1  0.0000000  1.0460000  1
   6328   6326   6325   6333     1  0.0000000  0.0000000  3
   6328   6326   6325   6329     1  0.0000000  0.6508444  3
   6329   6325   6326   6332     1  0.0000000  1.0460000  1
   6329   6325   6326   6332     1  0.0000000  0.0000000  3
   6329   6325   6333   6336     1  0.0000000  0.6973333  3
   6329   6325   6322   6334     1  0.0000000  1.0460000  1
   6329   6325   6322   6334     1  0.0000000  0.0000000  3
   6330   6327   6326   6332     1  0.0000000  0.6508444  3
   6339   6335   6341   6342     1  0.0000000  0.6973333  3
   6339   6335   6321   6343     1  0.0000000  1.0460000  1
   6339   6335   6321   6343     1  0.0000000  0.0000000  3
   6340   6335   6341   6342     1  0.0000000  0.6973333  3
   6340   6335   6321   6343     1  0.0000000  1.0460000  1
   6340   6335   6321   6343     1  0.0000000  0.0000000  3
   6344   6345   6348   6352     1  0.0000000  0.6508444  3
   6344   6345   6357   6360     1  0.0000000  1.0460000  1
   6344   6345   6357   6360     1  0.0000000  0.6694400  3
   6344   6358   6364   6365     1  0.0000000  1.0460000  1
   6344   6358   6364   6365     1  0.0000000  0.6694400  3
   6344   6366   6350   6353     1  0.0000000  1.6038667  3
   6345   6344   6358   6362     1  0.0000000  0.6508444  3
   6345   6344   6358   6363     1  0.0000000  0.6508444  3
   6345   6348   6349   6351     1  0.0000000  0.6508444  3
   6345   6348   6356   6359     1  0.0000000  1.0460000  1
   6345   6348   6356   6359     1  0.0000000  0.6694400  3
   6346   6344   6345   6348     1  0.0000000  0.6508444  3
   6346   6344   6345   6357     1  0.0000000  1.0460000  1
   6346   6344   6345   6357     1  0.0000000  0.0000000  3
   6346   6344   6345   6347     1  0.0000000  0.6508444  3
   6346   6344   6358   6364     1  0.0000000  1.0460000  1
   6346   6344   6358   6364     1  0.0000000  0.0000000  3
   6346   6344   6358   6362     1  0.0000000  0.6508444  3
   6346   6344   6358   6363     1  0.0000000  0.6508444  3
   6346   6344   6366   6350     1  0.0000000  1.6038667  3
   6347   6345   6344   6358     1  0.0000000  0.6508444  3
   6347   6345   6344   6366     1  0.0000000  1.0460000  1
   6347   6345   6344   6366     1  0.0000000  0.0000000  3
   6347   6345   6348   6349     1  0.0000000  0.6508444  3
   6347   6345   6348   6356     1  0.0000000  1.0460000  1
   6347   6345   6348   6356     1  0.0000000  0.0000000  3
   6347   6345   6348   6352     1  0.0000000  0.6508444  3
   6347   6345   6357   6360     1  0.0000000  0.6973333  3
   6348   6345   6357   6360     1  0.0000000  1.0460000  1
   6348   6345   6357   6360     1  0.0000000  0.6694400  3
   6348   6349   6350   6353     1  0.0000000  0.6508444  3
   6348   6349   6355   6361     1  0.0000000  1.0460000  1
   6348   6349   6355   6361     1  0.0000000  0.6694400  3
   6349   6348   6356   6359     1  0.0000000  1.0460000  1
   6349   6348   6356   6359     1  0.0000000  0.6694400  3
   6350   6349   6348   6352     1  0.0000000  0.6508444  3
   6350   6349   6355   6361     1  0.0000000  1.0460000  1
   6350   6349   6355   6361     1  0.0000000  0.6694400  3
   6351   6349   6348   6356     1  0.0000000  1.0460000  1
   6351   6349   6348   6356     1  0.0000000  0.0000000  3
   6351   6349   6348   6352     1  0.0000000  0.6508444  3
   6351   6349   6350   6354     1  0.0000000  1.0460000  1
   6351   6349   6350   6354     1  0.0000000  0.0000000  3
   6351   6349   6350   6366     1  0.0000000  1.0460000  1
   6351   6349   6350   6366     1  0.0000000  0.0000000  3
   6351   6349   6350   6353     1  0.0000000  0.6508444  3
   6351   6349   6355   6361     1  0.0000000  0.6973333  3
   6352   6348   6345   6357     1  0.0000000  1.0460000  1
   6352   6348   6345   6357     1  0.0000000  0.0000000  3
   6352   6348   6349   6355     1  0.0000000  1.0460000  1
   6352   6348   6349   6355     1  0.0000000  0.0000000  3
   6352   6348   6356   6359     1  0.0000000  0.6973333  3
   6353   6350   6349   6355     1  0.0000000  0.6508444  3
   6362   6358   6344   6366     1  0.0000000  1.0460000  1
   6362   6358   6344   6366     1  0.0000000  0.0000000  3
   6362   6358   6364   6365     1  0.0000000  0.6973333  3
   6363   6358   6344   6366     1  0.0000000  1.0460000  1
   6363   6358   6344   6366     1  0.0000000  0.0000000  3
   6363   6358   6364   6365     1  0.0000000  0.6973333  3
   6367   6368   6371   6375     1  0.0000000  0.6508444  3
   6367   6368   6380   6383     1  0.0000000  1.0460000  1
   6367   6368   6380   6383     1  0.0000000  0.6694400  3
   6367   6381   6387   6388     1  0.0000000  1.0460000  1
   6367   6381   6387   6388     1  0.0000000  0.6694400  3
   6367   6389   6373   6376     1  0.0000000  1.6038667  3
   6368   6371   6372   6374     1  0.0000000  0.6508444  3
   6368   6371   6379   6382     1  0.0000000  1.0460000  1
   6368   6371   6379   6382     1  0.0000000  0.6694400  3
   6368   6367   6381   6385     1  0.0000000  0.6508444  3
   6368   6367   6381   6386     1  0.0000000  0.6508444  3
   6369   6367   6368   6371     1  0.0000000  0.6508444  3
   6369   6367   6368   6380     1  0.0000000  1.0460000  1
   6369   6367   6368   6380     1  0.0000000  0.0000000  3
   6369   6367   6368   6370     1  0.0000000  0.6508444  3
   6369   6367   6381   6387     1  0.0000000  1.0460000  1
   6369   6367   6381   6387     1  0.0000000  0.0000000  3
   6369   6367   6381   6385     1  0.0000000  0.6508444  3
   6369   6367   6381   6386     1  0.0000000  0.6508444  3
   6369   6367   6389   6373     1  0.0000000  1.6038667  3
   6370   6368   6371   6372     1  0.0000000  0.6508444  3
   6370   6368   6371   6379     1  0.0000000  1.0460000  1
   6370   6368   6371   6379     1  0.0000000  0.0000000  3
   6370   6368   6371   6375     1  0.0000000  0.6508444  3
   6370   6368   6380   6383     1  0.0000000  0.6973333  3
   6370   6368   6367   6381     1  0.0000000  0.6508444  3
   6370   6368   6367   6389     1  0.0000000  1.0460000  1
   6370   6368   6367   6389     1  0.0000000  0.0000000  3
   6371   6372   6373   6376     1  0.0000000  0.6508444  3
   6371   6372   6378   6384     1  0.0000000  1.0460000  1
   6371   6372   6378   6384     1  0.0000000  0.6694400  3
   6371   6368   6380   6383     1  0.0000000  1.0460000  1
   6371   6368   6380   6383     1  0.0000000  0.6694400  3
   6372   6371   6379   6382     1  0.0000000  1.0460000  1
   6372   6371   6379   6382     1  0.0000000  0.6694400  3
   6373   6372   6378   6384     1  0.0000000  1.0460000  1
   6373   6372   6378   6384     1  0.0000000  0.6694400  3
   6373   6372   6371   6375     1  0.0000000  0.6508444  3
   6374   6372   6373   6377     1  0.0000000  1.0460000  1
   6374   6372   6373   6377     1  0.0000000  0.0000000  3
   6374   6372   6373   6389     1  0.0000000  1.0460000  1
   6374   6372   6373   6389     1  0.0000000  0.0000000  3
   6374   6372   6373   6376     1  0.0000000  0.6508444  3
   6374   6372   6378   6384     1  0.0000000  0.6973333  3
   6374   6372   6371   6379     1  0.0000000  1.0460000  1
   6374   6372   6371   6379     1  0.0000000  0.0000000  3
   6374   6372   6371   6375     1  0.0000000  0.6508444  3
   6375   6371   6372   6378     1  0.0000000  1.0460000  1
   6375   6371   6372   6378     1  0.0000000  0.0000000  3
   6375   6371   6379   6382     1  0.0000000  0.6973333  3
   6375   6371   6368   6380     1  0.0000000  1.0460000  1
   6375   6371   6368   6380     1  0.0000000  0.0000000  3
   6376   6373   6372   6378     1  0.0000000  0.6508444  3
   6385   6381   6387   6388     1  0.0000000  0.6973333  3
   6385   6381   6367   6389     1  0.0000000  1.0460000  1
   6385   6381   6367   6389     1  0.0000000  0.0000000  3
   6386   6381   6387   6388     1  0.0000000  0.6973333  3
   6386   6381   6367   6389     1  0.0000000  1.0460000  1
   6386   6381   6367   6389     1  0.0000000  0.0000000  3
   6390   6391   6394   6398     1  0.0000000  0.6508444  3
   6390   6391   6403   6406     1  0.0000000  1.0460000  1
   6390   6391   6403   6406     1  0.0000000  0.6694400  3
   6390   6404   6410   6411     1  0.0000000  1.0460000  1
   6390   6404   6410   6411     1  0.0000000  0.6694400  3
   6390   6412   6396   6399     1  0.0000000  1.6038667  3
   6391   6390   6404   6408     1  0.0000000  0.6508444  3
   6391   6390   6404   6409     1  0.0000000  0.6508444  3
   6391   6394   6395   6397     1  0.0000000  0.6508444  3
   6391   6394   6402   6405     1  0.0000000  1.0460000  1
   6391   6394   6402   6405     1  0.0000000  0.6694400  3
   6392   6390   6391   6394     1  0.0000000  0.6508444  3
   6392   6390   6391   6403     1  0.0000000  1.0460000  1
   6392   6390   6391   6403     1  0.0000000  0.0000000  3
   6392   6390   6391   6393     1  0.0000000  0.6508444  3
   6392   6390   6404   6410     1  0.0000000  1.0460000  1
   6392   6390   6404   6410     1  0.0000000  0.0000000  3
   6392   6390   6404   6408     1  0.0000000  0.6508444  3
   6392   6390   6404   6409     1  0.0000000  0.6508444  3
   6392   6390   6412   6396     1  0.0000000  1.6038667  3
   6393   6391   6390   6404     1  0.0000000  0.6508444  3
   6393   6391   6390   6412     1  0.0000000  1.0460000  1
   6393   6391   6390   6412     1  0.0000000  0.0000000  3
   6393   6391   6394   6395     1  0.0000000  0.6508444  3
   6393   6391   6394   6402     1  0.0000000  1.0460000  1
   6393   6391   6394   6402     1  0.0000000  0.0000000  3
   6393   6391   6394   6398     1  0.0000000  0.6508444  3
   6393   6391   6403   6406     1  0.0000000  0.6973333  3
   6394   6391   6403   6406     1  0.0000000  1.0460000  1
   6394   6391   6403   6406     1  0.0000000  0.6694400  3
   6394   6395   6396   6399     1  0.0000000  0.6508444  3
   6394   6395   6401   6407     1  0.0000000  1.0460000  1
   6394   6395   6401   6407     1  0.0000000  0.6694400  3
   6395   6394   6402   6405     1  0.0000000  1.0460000  1
   6395   6394   6402   6405     1  0.0000000  0.6694400  3
   6396   6395   6394   6398     1  0.0000000  0.6508444  3
   6396   6395   6401   6407     1  0.0000000  1.0460000  1
   6396   6395   6401   6407     1  0.0000000  0.6694400  3
   6397   6395   6394   6402     1  0.0000000  1.0460000  1
   6397   6395   6394   6402     1  0.0000000  0.0000000  3
   6397   6395   6394   6398     1  0.0000000  0.6508444  3
   6397   6395   6396   6400     1  0.0000000  1.0460000  1
   6397   6395   6396   6400     1  0.0000000  0.0000000  3
   6397   6395   6396   6412     1  0.0000000  1.0460000  1
   6397   6395   6396   6412     1  0.0000000  0.0000000  3
   6397   6395   6396   6399     1  0.0000000  0.6508444  3
   6397   6395   6401   6407     1  0.0000000  0.6973333  3
   6398   6394   6391   6403     1  0.0000000  1.0460000  1
   6398   6394   6391   6403     1  0.0000000  0.0000000  3
   6398   6394   6395   6401     1  0.0000000  1.0460000  1
   6398   6394   6395   6401     1  0.0000000  0.0000000  3
   6398   6394   6402   6405     1  0.0000000  0.6973333  3
   6399   6396   6395   6401     1  0.0000000  0.6508444  3
   6408   6404   6390   6412     1  0.0000000  1.0460000  1
   6408   6404   6390   6412     1  0.0000000  0.0000000  3
   6408   6404   6410   6411     1  0.0000000  0.6973333  3
   6409   6404   6390   6412     1  0.0000000  1.0460000  1
   6409   6404   6390   6412     1  0.0000000  0.0000000  3
   6409   6404   6410   6411     1  0.0000000  0.6973333  3
   6413   6414   6417   6421     1  0.0000000  0.6508444  3
   6413   6414   6426   6429     1  0.0000000  1.0460000  1
   6413   6414   6426   6429     1  0.0000000  0.6694400  3
   6413   6427   6433   6434     1  0.0000000  1.0460000  1
   6413   6427   6433   6434     1  0.0000000  0.6694400  3
   6413   6435   6419   6422     1  0.0000000  1.6038667  3
   6414   6417   6418   6420     1  0.0000000  0.6508444  3
   6414   6417   6425   6428     1  0.0000000  1.0460000  1
   6414   6417   6425   6428     1  0.0000000  0.6694400  3
   6414   6413   6427   6431     1  0.0000000  0.6508444  3
   6414   6413   6427   6432     1  0.0000000  0.6508444  3
   6415   6413   6414   6417     1  0.0000000  0.6508444  3
   6415   6413   6414   6426     1  0.0000000  1.0460000  1
   6415   6413   6414   6426     1  0.0000000  0.0000000  3
   6415   6413   6414   6416     1  0.0000000  0.6508444  3
   6415   6413   6427   6433     1  0.0000000  1.0460000  1
   6415   6413   6427   6433     1  0.0000000  0.0000000  3
   6415   6413   6427   6431     1  0.0000000  0.6508444  3
   6415   6413   6427   6432     1  0.0000000  0.6508444  3
   6415   6413   6435   6419     1  0.0000000  1.6038667  3
   6416   6414   6417   6418     1  0.0000000  0.6508444  3
   6416   6414   6417   6425     1  0.0000000  1.0460000  1
   6416   6414   6417   6425     1  0.0000000  0.0000000  3
   6416   6414   6417   6421     1  0.0000000  0.6508444  3
   6416   6414   6426   6429     1  0.0000000  0.6973333  3
   6416   6414   6413   6427     1  0.0000000  0.6508444  3
   6416   6414   6413   6435     1  0.0000000  1.0460000  1
   6416   6414   6413   6435     1  0.0000000  0.0000000  3
   6417   6418   6419   6422     1  0.0000000  0.6508444  3
   6417   6418   6424   6430     1  0.0000000  1.0460000  1
   6417   6418   6424   6430     1  0.0000000  0.6694400  3
   6417   6414   6426   6429     1  0.0000000  1.0460000  1
   6417   6414   6426   6429     1  0.0000000  0.6694400  3
   6418   6417   6425   6428     1  0.0000000  1.0460000  1
   6418   6417   6425   6428     1  0.0000000  0.6694400  3
   6419   6418   6424   6430     1  0.0000000  1.0460000  1
   6419   6418   6424   6430     1  0.0000000  0.6694400  3
   6419   6418   6417   6421     1  0.0000000  0.6508444  3
   6420   6418   6419   6423     1  0.0000000  1.0460000  1
   6420   6418   6419   6423     1  0.0000000  0.0000000  3
   6420   6418   6419   6435     1  0.0000000  1.0460000  1
   6420   6418   6419   6435     1  0.0000000  0.0000000  3
   6420   6418   6419   6422     1  0.0000000  0.6508444  3
   6420   6418   6424   6430     1  0.0000000  0.6973333  3
   6420   6418   6417   6425     1  0.0000000  1.0460000  1
   6420   6418   6417   6425     1  0.0000000  0.0000000  3
   6420   6418   6417   6421     1  0.0000000  0.6508444  3
   6421   6417   6418   6424     1  0.0000000  1.0460000  1
   6421   6417   6418   6424     1  0.0000000  0.0000000  3
   6421   6417   6425   6428     1  0.0000000  0.6973333  3
   6421   6417   6414   6426     1  0.0000000  1.0460000  1
   6421   6417   6414   6426     1  0.0000000  0.0000000  3
   6422   6419   6418   6424     1  0.0000000  0.6508444  3
   6431   6427   6433   6434     1  0.0000000  0.6973333  3
   6431   6427   6413   6435     1  0.0000000  1.0460000  1
   6431   6427   6413   6435     1  0.0000000  0.0000000  3
   6432   6427   6433   6434     1  0.0000000  0.6973333  3
   6432   6427   6413   6435     1  0.0000000  1.0460000  1
   6432   6427   6413   6435     1  0.0000000  0.0000000  3
   6436   6437   6440   6444     1  0.0000000  0.6508444  3
   6436   6437   6449   6452     1  0.0000000  1.0460000  1
   6436   6437   6449   6452     1  0.0000000  0.6694400  3
   6436   6450   6456   6457     1  0.0000000  1.0460000  1
   6436   6450   6456   6457     1  0.0000000  0.6694400  3
   6436   6458   6442   6445     1  0.0000000  1.6038667  3
   6437   6436   6450   6454     1  0.0000000  0.6508444  3
   6437   6436   6450   6455     1  0.0000000  0.6508444  3
   6437   6440   6441   6443     1  0.0000000  0.6508444  3
   6437   6440   6448   6451     1  0.0000000  1.0460000  1
   6437   6440   6448   6451     1  0.0000000  0.6694400  3
   6438   6436   6437   6440     1  0.0000000  0.6508444  3
   6438   6436   6437   6449     1  0.0000000  1.0460000  1
   6438   6436   6437   6449     1  0.0000000  0.0000000  3
   6438   6436   6437   6439     1  0.0000000  0.6508444  3
   6438   6436   6450   6456     1  0.0000000  1.0460000  1
   6438   6436   6450   6456     1  0.0000000  0.0000000  3
   6438   6436   6450   6454     1  0.0000000  0.6508444  3
   6438   6436   6450   6455     1  0.0000000  0.6508444  3
   6438   6436   6458   6442     1  0.0000000  1.6038667  3
   6439   6437   6436   6450     1  0.0000000  0.6508444  3
   6439   6437   6436   6458     1  0.0000000  1.0460000  1
   6439   6437   6436   6458     1  0.0000000  0.0000000  3
   6439   6437   6440   6441     1  0.0000000  0.6508444  3
   6439   6437   6440   6448     1  0.0000000  1.0460000  1
   6439   6437   6440   6448     1  0.0000000  0.0000000  3
   6439   6437   6440   6444     1  0.0000000  0.6508444  3
   6439   6437   6449   6452     1  0.0000000  0.6973333  3
   6440   6437   6449   6452     1  0.0000000  1.0460000  1
   6440   6437   6449   6452     1  0.0000000  0.6694400  3
   6440   6441   6442   6445     1  0.0000000  0.6508444  3
   6440   6441   6447   6453     1  0.0000000  1.0460000  1
   6440   6441   6447   6453     1  0.0000000  0.6694400  3
   6441   6440   6448   6451     1  0.0000000  1.0460000  1
   6441   6440   6448   6451     1  0.0000000  0.6694400  3
   6442   6441   6440   6444     1  0.0000000  0.6508444  3
   6442   6441   6447   6453     1  0.0000000  1.0460000  1
   6442   6441   6447   6453     1  0.0000000  0.6694400  3
   6443   6441   6440   6448     1  0.0000000  1.0460000  1
   6443   6441   6440   6448     1  0.0000000  0.0000000  3
   6443   6441   6440   6444     1  0.0000000  0.6508444  3
   6443   6441   6442   6446     1  0.0000000  1.0460000  1
   6443   6441   6442   6446     1  0.0000000  0.0000000  3
   6443   6441   6442   6458     1  0.0000000  1.0460000  1
   6443   6441   6442   6458     1  0.0000000  0.0000000  3
   6443   6441   6442   6445     1  0.0000000  0.6508444  3
   6443   6441   6447   6453     1  0.0000000  0.6973333  3
   6444   6440   6437   6449     1  0.0000000  1.0460000  1
   6444   6440   6437   6449     1  0.0000000  0.0000000  3
   6444   6440   6441   6447     1  0.0000000  1.0460000  1
   6444   6440   6441   6447     1  0.0000000  0.0000000  3
   6444   6440   6448   6451     1  0.0000000  0.6973333  3
   6445   6442   6441   6447     1  0.0000000  0.6508444  3
   6454   6450   6436   6458     1  0.0000000  1.0460000  1
   6454   6450   6436   6458     1  0.0000000  0.0000000  3
   6454   6450   6456   6457     1  0.0000000  0.6973333  3
   6455   6450   6436   6458     1  0.0000000  1.0460000  1
   6455   6450   6436   6458     1  0.0000000  0.0000000  3
   6455   6450   6456   6457     1  0.0000000  0.6973333  3
   6459   6460   6463   6467     1  0.0000000  0.6508444  3
   6459   6460   6472   6475     1  0.0000000  1.0460000  1
   6459   6460   6472   6475     1  0.0000000  0.6694400  3
   6459   6473   6479   6480     1  0.0000000  1.0460000  1
   6459   6473   6479   6480     1  0.0000000  0.6694400  3
   6459   6481   6465   6468     1  0.0000000  1.6038667  3
   6460   6463   6464   6466     1  0.0000000  0.6508444  3
   6460   6463   6471   6474     1  0.0000000  1.0460000  1
   6460   6463   6471   6474     1  0.0000000  0.6694400  3
   6460   6459   6473   6477     1  0.0000000  0.6508444  3
   6460   6459   6473   6478     1  0.0000000  0.6508444  3
   6461   6459   6460   6463     1  0.0000000  0.6508444  3
   6461   6459   6460   6472     1  0.0000000  1.0460000  1
   6461   6459   6460   6472     1  0.0000000  0.0000000  3
   6461   6459   6460   6462     1  0.0000000  0.6508444  3
   6461   6459   6473   6479     1  0.0000000  1.0460000  1
   6461   6459   6473   6479     1  0.0000000  0.0000000  3
   6461   6459   6473   6477     1  0.0000000  0.6508444  3
   6461   6459   6473   6478     1  0.0000000  0.6508444  3
   6461   6459   6481   6465     1  0.0000000  1.6038667  3
   6462   6460   6463   6464     1  0.0000000  0.6508444  3
   6462   6460   6463   6471     1  0.0000000  1.0460000  1
   6462   6460   6463   6471     1  0.0000000  0.0000000  3
   6462   6460   6463   6467     1  0.0000000  0.6508444  3
   6462   6460   6472   6475     1  0.0000000  0.6973333  3
   6462   6460   6459   6473     1  0.0000000  0.6508444  3
   6462   6460   6459   6481     1  0.0000000  1.0460000  1
   6462   6460   6459   6481     1  0.0000000  0.0000000  3
   6463   6464   6465   6468     1  0.0000000  0.6508444  3
   6463   6464   6470   6476     1  0.0000000  1.0460000  1
   6463   6464   6470   6476     1  0.0000000  0.6694400  3
   6463   6460   6472   6475     1  0.0000000  1.0460000  1
   6463   6460   6472   6475     1  0.0000000  0.6694400  3
   6464   6463   6471   6474     1  0.0000000  1.0460000  1
   6464   6463   6471   6474     1  0.0000000  0.6694400  3
   6465   6464   6470   6476     1  0.0000000  1.0460000  1
   6465   6464   6470   6476     1  0.0000000  0.6694400  3
   6465   6464   6463   6467     1  0.0000000  0.6508444  3
   6466   6464   6465   6469     1  0.0000000  1.0460000  1
   6466   6464   6465   6469     1  0.0000000  0.0000000  3
   6466   6464   6465   6481     1  0.0000000  1.0460000  1
   6466   6464   6465   6481     1  0.0000000  0.0000000  3
   6466   6464   6465   6468     1  0.0000000  0.6508444  3
   6466   6464   6470   6476     1  0.0000000  0.6973333  3
   6466   6464   6463   6471     1  0.0000000  1.0460000  1
   6466   6464   6463   6471     1  0.0000000  0.0000000  3
   6466   6464   6463   6467     1  0.0000000  0.6508444  3
   6467   6463   6464   6470     1  0.0000000  1.0460000  1
   6467   6463   6464   6470     1  0.0000000  0.0000000  3
   6467   6463   6471   6474     1  0.0000000  0.6973333  3
   6467   6463   6460   6472     1  0.0000000  1.0460000  1
   6467   6463   6460   6472     1  0.0000000  0.0000000  3
   6468   6465   6464   6470     1  0.0000000  0.6508444  3
   6477   6473   6479   6480     1  0.0000000  0.6973333  3
   6477   6473   6459   6481     1  0.0000000  1.0460000  1
   6477   6473   6459   6481     1  0.0000000  0.0000000  3
   6478   6473   6479   6480     1  0.0000000  0.6973333  3
   6478   6473   6459   6481     1  0.0000000  1.0460000  1
   6478   6473   6459   6481     1  0.0000000  0.0000000  3
   6482   6483   6486   6490     1  0.0000000  0.6508444  3
   6482   6483   6495   6498     1  0.0000000  1.0460000  1
   6482   6483   6495   6498     1  0.0000000  0.6694400  3
   6482   6496   6502   6503     1  0.0000000  1.0460000  1
   6482   6496   6502   6503     1  0.0000000  0.6694400  3
   6482   6504   6488   6491     1  0.0000000  1.6038667  3
   6483   6482   6496   6500     1  0.0000000  0.6508444  3
   6483   6482   6496   6501     1  0.0000000  0.6508444  3
   6483   6486   6487   6489     1  0.0000000  0.6508444  3
   6483   6486   6494   6497     1  0.0000000  1.0460000  1
   6483   6486   6494   6497     1  0.0000000  0.6694400  3
   6484   6482   6483   6486     1  0.0000000  0.6508444  3
   6484   6482   6483   6495     1  0.0000000  1.0460000  1
   6484   6482   6483   6495     1  0.0000000  0.0000000  3
   6484   6482   6483   6485     1  0.0000000  0.6508444  3
   6484   6482   6496   6502     1  0.0000000  1.0460000  1
   6484   6482   6496   6502     1  0.0000000  0.0000000  3
   6484   6482   6496   6500     1  0.0000000  0.6508444  3
   6484   6482   6496   6501     1  0.0000000  0.6508444  3
   6484   6482   6504   6488     1  0.0000000  1.6038667  3
   6485   6483   6482   6496     1  0.0000000  0.6508444  3
   6485   6483   6482   6504     1  0.0000000  1.0460000  1
   6485   6483   6482   6504     1  0.0000000  0.0000000  3
   6485   6483   6486   6487     1  0.0000000  0.6508444  3
   6485   6483   6486   6494     1  0.0000000  1.0460000  1
   6485   6483   6486   6494     1  0.0000000  0.0000000  3
   6485   6483   6486   6490     1  0.0000000  0.6508444  3
   6485   6483   6495   6498     1  0.0000000  0.6973333  3
   6486   6483   6495   6498     1  0.0000000  1.0460000  1
   6486   6483   6495   6498     1  0.0000000  0.6694400  3
   6486   6487   6488   6491     1  0.0000000  0.6508444  3
   6486   6487   6493   6499     1  0.0000000  1.0460000  1
   6486   6487   6493   6499     1  0.0000000  0.6694400  3
   6487   6486   6494   6497     1  0.0000000  1.0460000  1
   6487   6486   6494   6497     1  0.0000000  0.6694400  3
   6488   6487   6486   6490     1  0.0000000  0.6508444  3
   6488   6487   6493   6499     1  0.0000000  1.0460000  1
   6488   6487   6493   6499     1  0.0000000  0.6694400  3
   6489   6487   6486   6494     1  0.0000000  1.0460000  1
   6489   6487   6486   6494     1  0.0000000  0.0000000  3
   6489   6487   6486   6490     1  0.0000000  0.6508444  3
   6489   6487   6488   6492     1  0.0000000  1.0460000  1
   6489   6487   6488   6492     1  0.0000000  0.0000000  3
   6489   6487   6488   6504     1  0.0000000  1.0460000  1
   6489   6487   6488   6504     1  0.0000000  0.0000000  3
   6489   6487   6488   6491     1  0.0000000  0.6508444  3
   6489   6487   6493   6499     1  0.0000000  0.6973333  3
   6490   6486   6483   6495     1  0.0000000  1.0460000  1
   6490   6486   6483   6495     1  0.0000000  0.0000000  3
   6490   6486   6487   6493     1  0.0000000  1.0460000  1
   6490   6486   6487   6493     1  0.0000000  0.0000000  3
   6490   6486   6494   6497     1  0.0000000  0.6973333  3
   6491   6488   6487   6493     1  0.0000000  0.6508444  3
   6500   6496   6482   6504     1  0.0000000  1.0460000  1
   6500   6496   6482   6504     1  0.0000000  0.0000000  3
   6500   6496   6502   6503     1  0.0000000  0.6973333  3
   6501   6496   6482   6504     1  0.0000000  1.0460000  1
   6501   6496   6482   6504     1  0.0000000  0.0000000  3
   6501   6496   6502   6503     1  0.0000000  0.6973333  3
   6505   6506   6509   6513     1  0.0000000  0.6508444  3
   6505   6506   6518   6521     1  0.0000000  1.0460000  1
   6505   6506   6518   6521     1  0.0000000  0.6694400  3
   6505   6519   6525   6526     1  0.0000000  1.0460000  1
   6505   6519   6525   6526     1  0.0000000  0.6694400  3
   6505   6527   6511   6514     1  0.0000000  1.6038667  3
   6506   6509   6510   6512     1  0.0000000  0.6508444  3
   6506   6509   6517   6520     1  0.0000000  1.0460000  1
   6506   6509   6517   6520     1  0.0000000  0.6694400  3
   6506   6505   6519   6523     1  0.0000000  0.6508444  3
   6506   6505   6519   6524     1  0.0000000  0.6508444  3
   6507   6505   6506   6509     1  0.0000000  0.6508444  3
   6507   6505   6506   6518     1  0.0000000  1.0460000  1
   6507   6505   6506   6518     1  0.0000000  0.0000000  3
   6507   6505   6506   6508     1  0.0000000  0.6508444  3
   6507   6505   6519   6525     1  0.0000000  1.0460000  1
   6507   6505   6519   6525     1  0.0000000  0.0000000  3
   6507   6505   6519   6523     1  0.0000000  0.6508444  3
   6507   6505   6519   6524     1  0.0000000  0.6508444  3
   6507   6505   6527   6511     1  0.0000000  1.6038667  3
   6508   6506   6509   6510     1  0.0000000  0.6508444  3
   6508   6506   6509   6517     1  0.0000000  1.0460000  1
   6508   6506   6509   6517     1  0.0000000  0.0000000  3
   6508   6506   6509   6513     1  0.0000000  0.6508444  3
   6508   6506   6518   6521     1  0.0000000  0.6973333  3
   6508   6506   6505   6519     1  0.0000000  0.6508444  3
   6508   6506   6505   6527     1  0.0000000  1.0460000  1
   6508   6506   6505   6527     1  0.0000000  0.0000000  3
   6509   6510   6511   6514     1  0.0000000  0.6508444  3
   6509   6510   6516   6522     1  0.0000000  1.0460000  1
   6509   6510   6516   6522     1  0.0000000  0.6694400  3
   6509   6506   6518   6521     1  0.0000000  1.0460000  1
   6509   6506   6518   6521     1  0.0000000  0.6694400  3
   6510   6509   6517   6520     1  0.0000000  1.0460000  1
   6510   6509   6517   6520     1  0.0000000  0.6694400  3
   6511   6510   6516   6522     1  0.0000000  1.0460000  1
   6511   6510   6516   6522     1  0.0000000  0.6694400  3
   6511   6510   6509   6513     1  0.0000000  0.6508444  3
   6512   6510   6511   6515     1  0.0000000  1.0460000  1
   6512   6510   6511   6515     1  0.0000000  0.0000000  3
   6512   6510   6511   6527     1  0.0000000  1.0460000  1
   6512   6510   6511   6527     1  0.0000000  0.0000000  3
   6512   6510   6511   6514     1  0.0000000  0.6508444  3
   6512   6510   6516   6522     1  0.0000000  0.6973333  3
   6512   6510   6509   6517     1  0.0000000  1.0460000  1
   6512   6510   6509   6517     1  0.0000000  0.0000000  3
   6512   6510   6509   6513     1  0.0000000  0.6508444  3
   6513   6509   6510   6516     1  0.0000000  1.0460000  1
   6513   6509   6510   6516     1  0.0000000  0.0000000  3
   6513   6509   6517   6520     1  0.0000000  0.6973333  3
   6513   6509   6506   6518     1  0.0000000  1.0460000  1
   6513   6509   6506   6518     1  0.0000000  0.0000000  3
   6514   6511   6510   6516     1  0.0000000  0.6508444  3
   6523   6519   6525   6526     1  0.0000000  0.6973333  3
   6523   6519   6505   6527     1  0.0000000  1.0460000  1
   6523   6519   6505   6527     1  0.0000000  0.0000000  3
   6524   6519   6525   6526     1  0.0000000  0.6973333  3
   6524   6519   6505   6527     1  0.0000000  1.0460000  1
   6524   6519   6505   6527     1  0.0000000  0.0000000  3
   6528   6529   6532   6536     1  0.0000000  0.6508444  3
   6528   6529   6541   6544     1  0.0000000  1.0460000  1
   6528   6529   6541   6544     1  0.0000000  0.6694400  3
   6528   6542   6548   6549     1  0.0000000  1.0460000  1
   6528   6542   6548   6549     1  0.0000000  0.6694400  3
   6528   6550   6534   6537     1  0.0000000  1.6038667  3
   6529   6528   6542   6546     1  0.0000000  0.6508444  3
   6529   6528   6542   6547     1  0.0000000  0.6508444  3
   6529   6532   6533   6535     1  0.0000000  0.6508444  3
   6529   6532   6540   6543     1  0.0000000  1.0460000  1
   6529   6532   6540   6543     1  0.0000000  0.6694400  3
   6530   6528   6529   6532     1  0.0000000  0.6508444  3
   6530   6528   6529   6541     1  0.0000000  1.0460000  1
   6530   6528   6529   6541     1  0.0000000  0.0000000  3
   6530   6528   6529   6531     1  0.0000000  0.6508444  3
   6530   6528   6542   6548     1  0.0000000  1.0460000  1
   6530   6528   6542   6548     1  0.0000000  0.0000000  3
   6530   6528   6542   6546     1  0.0000000  0.6508444  3
   6530   6528   6542   6547     1  0.0000000  0.6508444  3
   6530   6528   6550   6534     1  0.0000000  1.6038667  3
   6531   6529   6528   6542     1  0.0000000  0.6508444  3
   6531   6529   6528   6550     1  0.0000000  1.0460000  1
   6531   6529   6528   6550     1  0.0000000  0.0000000  3
   6531   6529   6532   6533     1  0.0000000  0.6508444  3
   6531   6529   6532   6540     1  0.0000000  1.0460000  1
   6531   6529   6532   6540     1  0.0000000  0.0000000  3
   6531   6529   6532   6536     1  0.0000000  0.6508444  3
   6531   6529   6541   6544     1  0.0000000  0.6973333  3
   6532   6529   6541   6544     1  0.0000000  1.0460000  1
   6532   6529   6541   6544     1  0.0000000  0.6694400  3
   6532   6533   6534   6537     1  0.0000000  0.6508444  3
   6532   6533   6539   6545     1  0.0000000  1.0460000  1
   6532   6533   6539   6545     1  0.0000000  0.6694400  3
   6533   6532   6540   6543     1  0.0000000  1.0460000  1
   6533   6532   6540   6543     1  0.0000000  0.6694400  3
   6534   6533   6532   6536     1  0.0000000  0.6508444  3
   6534   6533   6539   6545     1  0.0000000  1.0460000  1
   6534   6533   6539   6545     1  0.0000000  0.6694400  3
   6535   6533   6532   6540     1  0.0000000  1.0460000  1
   6535   6533   6532   6540     1  0.0000000  0.0000000  3
   6535   6533   6532   6536     1  0.0000000  0.6508444  3
   6535   6533   6534   6538     1  0.0000000  1.0460000  1
   6535   6533   6534   6538     1  0.0000000  0.0000000  3
   6535   6533   6534   6550     1  0.0000000  1.0460000  1
   6535   6533   6534   6550     1  0.0000000  0.0000000  3
   6535   6533   6534   6537     1  0.0000000  0.6508444  3
   6535   6533   6539   6545     1  0.0000000  0.6973333  3
   6536   6532   6529   6541     1  0.0000000  1.0460000  1
   6536   6532   6529   6541     1  0.0000000  0.0000000  3
   6536   6532   6533   6539     1  0.0000000  1.0460000  1
   6536   6532   6533   6539     1  0.0000000  0.0000000  3
   6536   6532   6540   6543     1  0.0000000  0.6973333  3
   6537   6534   6533   6539     1  0.0000000  0.6508444  3
   6546   6542   6528   6550     1  0.0000000  1.0460000  1
   6546   6542   6528   6550     1  0.0000000  0.0000000  3
   6546   6542   6548   6549     1  0.0000000  0.6973333  3
   6547   6542   6528   6550     1  0.0000000  1.0460000  1
   6547   6542   6528   6550     1  0.0000000  0.0000000  3
   6547   6542   6548   6549     1  0.0000000  0.6973333  3
   6551   6552   6555   6559     1  0.0000000  0.6508444  3
   6551   6552   6564   6567     1  0.0000000  1.0460000  1
   6551   6552   6564   6567     1  0.0000000  0.6694400  3
   6551   6565   6571   6572     1  0.0000000  1.0460000  1
   6551   6565   6571   6572     1  0.0000000  0.6694400  3
   6551   6573   6557   6560     1  0.0000000  1.6038667  3
   6552   6555   6556   6558     1  0.0000000  0.6508444  3
   6552   6555   6563   6566     1  0.0000000  1.0460000  1
   6552   6555   6563   6566     1  0.0000000  0.6694400  3
   6552   6551   6565   6569     1  0.0000000  0.6508444  3
   6552   6551   6565   6570     1  0.0000000  0.6508444  3
   6553   6551   6552   6555     1  0.0000000  0.6508444  3
   6553   6551   6552   6564     1  0.0000000  1.0460000  1
   6553   6551   6552   6564     1  0.0000000  0.0000000  3
   6553   6551   6552   6554     1  0.0000000  0.6508444  3
   6553   6551   6565   6571     1  0.0000000  1.0460000  1
   6553   6551   6565   6571     1  0.0000000  0.0000000  3
   6553   6551   6565   6569     1  0.0000000  0.6508444  3
   6553   6551   6565   6570     1  0.0000000  0.6508444  3
   6553   6551   6573   6557     1  0.0000000  1.6038667  3
   6554   6552   6555   6556     1  0.0000000  0.6508444  3
   6554   6552   6555   6563     1  0.0000000  1.0460000  1
   6554   6552   6555   6563     1  0.0000000  0.0000000  3
   6554   6552   6555   6559     1  0.0000000  0.6508444  3
   6554   6552   6564   6567     1  0.0000000  0.6973333  3
   6554   6552   6551   6565     1  0.0000000  0.6508444  3
   6554   6552   6551   6573     1  0.0000000  1.0460000  1
   6554   6552   6551   6573     1  0.0000000  0.0000000  3
   6555   6556   6557   6560     1  0.0000000  0.6508444  3
   6555   6556   6562   6568     1  0.0000000  1.0460000  1
   6555   6556   6562   6568     1  0.0000000  0.6694400  3
   6555   6552   6564   6567     1  0.0000000  1.0460000  1
   6555   6552   6564   6567     1  0.0000000  0.6694400  3
   6556   6555   6563   6566     1  0.0000000  1.0460000  1
   6556   6555   6563   6566     1  0.0000000  0.6694400  3
   6557   6556   6562   6568     1  0.0000000  1.0460000  1
   6557   6556   6562   6568     1  0.0000000  0.6694400  3
   6557   6556   6555   6559     1  0.0000000  0.6508444  3
   6558   6556   6557   6561     1  0.0000000  1.0460000  1
   6558   6556   6557   6561     1  0.0000000  0.0000000  3
   6558   6556   6557   6573     1  0.0000000  1.0460000  1
   6558   6556   6557   6573     1  0.0000000  0.0000000  3
   6558   6556   6557   6560     1  0.0000000  0.6508444  3
   6558   6556   6562   6568     1  0.0000000  0.6973333  3
   6558   6556   6555   6563     1  0.0000000  1.0460000  1
   6558   6556   6555   6563     1  0.0000000  0.0000000  3
   6558   6556   6555   6559     1  0.0000000  0.6508444  3
   6559   6555   6556   6562     1  0.0000000  1.0460000  1
   6559   6555   6556   6562     1  0.0000000  0.0000000  3
   6559   6555   6563   6566     1  0.0000000  0.6973333  3
   6559   6555   6552   6564     1  0.0000000  1.0460000  1
   6559   6555   6552   6564     1  0.0000000  0.0000000  3
   6560   6557   6556   6562     1  0.0000000  0.6508444  3
   6569   6565   6571   6572     1  0.0000000  0.6973333  3
   6569   6565   6551   6573     1  0.0000000  1.0460000  1
   6569   6565   6551   6573     1  0.0000000  0.0000000  3
   6570   6565   6571   6572     1  0.0000000  0.6973333  3
   6570   6565   6551   6573     1  0.0000000  1.0460000  1
   6570   6565   6551   6573     1  0.0000000  0.0000000  3
   6574   6575   6578   6582     1  0.0000000  0.6508444  3
   6574   6575   6587   6590     1  0.0000000  1.0460000  1
   6574   6575   6587   6590     1  0.0000000  0.6694400  3
   6574   6588   6594   6595     1  0.0000000  1.0460000  1
   6574   6588   6594   6595     1  0.0000000  0.6694400  3
   6574   6596   6580   6583     1  0.0000000  1.6038667  3
   6575   6574   6588   6592     1  0.0000000  0.6508444  3
   6575   6574   6588   6593     1  0.0000000  0.6508444  3
   6575   6578   6579   6581     1  0.0000000  0.6508444  3
   6575   6578   6586   6589     1  0.0000000  1.0460000  1
   6575   6578   6586   6589     1  0.0000000  0.6694400  3
   6576   6574   6575   6578     1  0.0000000  0.6508444  3
   6576   6574   6575   6587     1  0.0000000  1.0460000  1
   6576   6574   6575   6587     1  0.0000000  0.0000000  3
   6576   6574   6575   6577     1  0.0000000  0.6508444  3
   6576   6574   6588   6594     1  0.0000000  1.0460000  1
   6576   6574   6588   6594     1  0.0000000  0.0000000  3
   6576   6574   6588   6592     1  0.0000000  0.6508444  3
   6576   6574   6588   6593     1  0.0000000  0.6508444  3
   6576   6574   6596   6580     1  0.0000000  1.6038667  3
   6577   6575   6574   6588     1  0.0000000  0.6508444  3
   6577   6575   6574   6596     1  0.0000000  1.0460000  1
   6577   6575   6574   6596     1  0.0000000  0.0000000  3
   6577   6575   6578   6579     1  0.0000000  0.6508444  3
   6577   6575   6578   6586     1  0.0000000  1.0460000  1
   6577   6575   6578   6586     1  0.0000000  0.0000000  3
   6577   6575   6578   6582     1  0.0000000  0.6508444  3
   6577   6575   6587   6590     1  0.0000000  0.6973333  3
   6578   6575   6587   6590     1  0.0000000  1.0460000  1
   6578   6575   6587   6590     1  0.0000000  0.6694400  3
   6578   6579   6580   6583     1  0.0000000  0.6508444  3
   6578   6579   6585   6591     1  0.0000000  1.0460000  1
   6578   6579   6585   6591     1  0.0000000  0.6694400  3
   6579   6578   6586   6589     1  0.0000000  1.0460000  1
   6579   6578   6586   6589     1  0.0000000  0.6694400  3
   6580   6579   6578   6582     1  0.0000000  0.6508444  3
   6580   6579   6585   6591     1  0.0000000  1.0460000  1
   6580   6579   6585   6591     1  0.0000000  0.6694400  3
   6581   6579   6578   6586     1  0.0000000  1.0460000  1
   6581   6579   6578   6586     1  0.0000000  0.0000000  3
   6581   6579   6578   6582     1  0.0000000  0.6508444  3
   6581   6579   6580   6584     1  0.0000000  1.0460000  1
   6581   6579   6580   6584     1  0.0000000  0.0000000  3
   6581   6579   6580   6596     1  0.0000000  1.0460000  1
   6581   6579   6580   6596     1  0.0000000  0.0000000  3
   6581   6579   6580   6583     1  0.0000000  0.6508444  3
   6581   6579   6585   6591     1  0.0000000  0.6973333  3
   6582   6578   6575   6587     1  0.0000000  1.0460000  1
   6582   6578   6575   6587     1  0.0000000  0.0000000  3
   6582   6578   6579   6585     1  0.0000000  1.0460000  1
   6582   6578   6579   6585     1  0.0000000  0.0000000  3
   6582   6578   6586   6589     1  0.0000000  0.6973333  3
   6583   6580   6579   6585     1  0.0000000  0.6508444  3
   6592   6588   6574   6596     1  0.0000000  1.0460000  1
   6592   6588   6574   6596     1  0.0000000  0.0000000  3
   6592   6588   6594   6595     1  0.0000000  0.6973333  3
   6593   6588   6574   6596     1  0.0000000  1.0460000  1
   6593   6588   6574   6596     1  0.0000000  0.0000000  3
   6593   6588   6594   6595     1  0.0000000  0.6973333  3
   6597   6598   6601   6605     1  0.0000000  0.6508444  3
   6597   6598   6610   6613     1  0.0000000  1.0460000  1
   6597   6598   6610   6613     1  0.0000000  0.6694400  3
   6597   6611   6617   6618     1  0.0000000  1.0460000  1
   6597   6611   6617   6618     1  0.0000000  0.6694400  3
   6597   6619   6603   6606     1  0.0000000  1.6038667  3
   6598   6601   6602   6604     1  0.0000000  0.6508444  3
   6598   6601   6609   6612     1  0.0000000  1.0460000  1
   6598   6601   6609   6612     1  0.0000000  0.6694400  3
   6598   6597   6611   6615     1  0.0000000  0.6508444  3
   6598   6597   6611   6616     1  0.0000000  0.6508444  3
   6599   6597   6598   6601     1  0.0000000  0.6508444  3
   6599   6597   6598   6610     1  0.0000000  1.0460000  1
   6599   6597   6598   6610     1  0.0000000  0.0000000  3
   6599   6597   6598   6600     1  0.0000000  0.6508444  3
   6599   6597   6611   6617     1  0.0000000  1.0460000  1
   6599   6597   6611   6617     1  0.0000000  0.0000000  3
   6599   6597   6611   6615     1  0.0000000  0.6508444  3
   6599   6597   6611   6616     1  0.0000000  0.6508444  3
   6599   6597   6619   6603     1  0.0000000  1.6038667  3
   6600   6598   6601   6602     1  0.0000000  0.6508444  3
   6600   6598   6601   6609     1  0.0000000  1.0460000  1
   6600   6598   6601   6609     1  0.0000000  0.0000000  3
   6600   6598   6601   6605     1  0.0000000  0.6508444  3
   6600   6598   6610   6613     1  0.0000000  0.6973333  3
   6600   6598   6597   6611     1  0.0000000  0.6508444  3
   6600   6598   6597   6619     1  0.0000000  1.0460000  1
   6600   6598   6597   6619     1  0.0000000  0.0000000  3
   6601   6602   6603   6606     1  0.0000000  0.6508444  3
   6601   6602   6608   6614     1  0.0000000  1.0460000  1
   6601   6602   6608   6614     1  0.0000000  0.6694400  3
   6601   6598   6610   6613     1  0.0000000  1.0460000  1
   6601   6598   6610   6613     1  0.0000000  0.6694400  3
   6602   6601   6609   6612     1  0.0000000  1.0460000  1
   6602   6601   6609   6612     1  0.0000000  0.6694400  3
   6603   6602   6608   6614     1  0.0000000  1.0460000  1
   6603   6602   6608   6614     1  0.0000000  0.6694400  3
   6603   6602   6601   6605     1  0.0000000  0.6508444  3
   6604   6602   6603   6607     1  0.0000000  1.0460000  1
   6604   6602   6603   6607     1  0.0000000  0.0000000  3
   6604   6602   6603   6619     1  0.0000000  1.0460000  1
   6604   6602   6603   6619     1  0.0000000  0.0000000  3
   6604   6602   6603   6606     1  0.0000000  0.6508444  3
   6604   6602   6608   6614     1  0.0000000  0.6973333  3
   6604   6602   6601   6609     1  0.0000000  1.0460000  1
   6604   6602   6601   6609     1  0.0000000  0.0000000  3
   6604   6602   6601   6605     1  0.0000000  0.6508444  3
   6605   6601   6602   6608     1  0.0000000  1.0460000  1
   6605   6601   6602   6608     1  0.0000000  0.0000000  3
   6605   6601   6609   6612     1  0.0000000  0.6973333  3
   6605   6601   6598   6610     1  0.0000000  1.0460000  1
   6605   6601   6598   6610     1  0.0000000  0.0000000  3
   6606   6603   6602   6608     1  0.0000000  0.6508444  3
   6615   6611   6617   6618     1  0.0000000  0.6973333  3
   6615   6611   6597   6619     1  0.0000000  1.0460000  1
   6615   6611   6597   6619     1  0.0000000  0.0000000  3
   6616   6611   6617   6618     1  0.0000000  0.6973333  3
   6616   6611   6597   6619     1  0.0000000  1.0460000  1
   6616   6611   6597   6619     1  0.0000000  0.0000000  3
   6620   6621   6624   6628     1  0.0000000  0.6508444  3
   6620   6621   6633   6636     1  0.0000000  1.0460000  1
   6620   6621   6633   6636     1  0.0000000  0.6694400  3
   6620   6634   6640   6641     1  0.0000000  1.0460000  1
   6620   6634   6640   6641     1  0.0000000  0.6694400  3
   6620   6642   6626   6629     1  0.0000000  1.6038667  3
   6621   6620   6634   6638     1  0.0000000  0.6508444  3
   6621   6620   6634   6639     1  0.0000000  0.6508444  3
   6621   6624   6625   6627     1  0.0000000  0.6508444  3
   6621   6624   6632   6635     1  0.0000000  1.0460000  1
   6621   6624   6632   6635     1  0.0000000  0.6694400  3
   6622   6620   6621   6624     1  0.0000000  0.6508444  3
   6622   6620   6621   6633     1  0.0000000  1.0460000  1
   6622   6620   6621   6633     1  0.0000000  0.0000000  3
   6622   6620   6621   6623     1  0.0000000  0.6508444  3
   6622   6620   6634   6640     1  0.0000000  1.0460000  1
   6622   6620   6634   6640     1  0.0000000  0.0000000  3
   6622   6620   6634   6638     1  0.0000000  0.6508444  3
   6622   6620   6634   6639     1  0.0000000  0.6508444  3
   6622   6620   6642   6626     1  0.0000000  1.6038667  3
   6623   6621   6620   6634     1  0.0000000  0.6508444  3
   6623   6621   6620   6642     1  0.0000000  1.0460000  1
   6623   6621   6620   6642     1  0.0000000  0.0000000  3
   6623   6621   6624   6625     1  0.0000000  0.6508444  3
   6623   6621   6624   6632     1  0.0000000  1.0460000  1
   6623   6621   6624   6632     1  0.0000000  0.0000000  3
   6623   6621   6624   6628     1  0.0000000  0.6508444  3
   6623   6621   6633   6636     1  0.0000000  0.6973333  3
   6624   6621   6633   6636     1  0.0000000  1.0460000  1
   6624   6621   6633   6636     1  0.0000000  0.6694400  3
   6624   6625   6626   6629     1  0.0000000  0.6508444  3
   6624   6625   6631   6637     1  0.0000000  1.0460000  1
   6624   6625   6631   6637     1  0.0000000  0.6694400  3
   6625   6624   6632   6635     1  0.0000000  1.0460000  1
   6625   6624   6632   6635     1  0.0000000  0.6694400  3
   6626   6625   6624   6628     1  0.0000000  0.6508444  3
   6626   6625   6631   6637     1  0.0000000  1.0460000  1
   6626   6625   6631   6637     1  0.0000000  0.6694400  3
   6627   6625   6624   6632     1  0.0000000  1.0460000  1
   6627   6625   6624   6632     1  0.0000000  0.0000000  3
   6627   6625   6624   6628     1  0.0000000  0.6508444  3
   6627   6625   6626   6630     1  0.0000000  1.0460000  1
   6627   6625   6626   6630     1  0.0000000  0.0000000  3
   6627   6625   6626   6642     1  0.0000000  1.0460000  1
   6627   6625   6626   6642     1  0.0000000  0.0000000  3
   6627   6625   6626   6629     1  0.0000000  0.6508444  3
   6627   6625   6631   6637     1  0.0000000  0.6973333  3
   6628   6624   6621   6633     1  0.0000000  1.0460000  1
   6628   6624   6621   6633     1  0.0000000  0.0000000  3
   6628   6624   6625   6631     1  0.0000000  1.0460000  1
   6628   6624   6625   6631     1  0.0000000  0.0000000  3
   6628   6624   6632   6635     1  0.0000000  0.6973333  3
   6629   6626   6625   6631     1  0.0000000  0.6508444  3
   6638   6634   6620   6642     1  0.0000000  1.0460000  1
   6638   6634   6620   6642     1  0.0000000  0.0000000  3
   6638   6634   6640   6641     1  0.0000000  0.6973333  3
   6639   6634   6620   6642     1  0.0000000  1.0460000  1
   6639   6634   6620   6642     1  0.0000000  0.0000000  3
   6639   6634   6640   6641     1  0.0000000  0.6973333  3
   6643   6644   6647   6651     1  0.0000000  0.6508444  3
   6643   6644   6656   6659     1  0.0000000  1.0460000  1
   6643   6644   6656   6659     1  0.0000000  0.6694400  3
   6643   6657   6663   6664     1  0.0000000  1.0460000  1
   6643   6657   6663   6664     1  0.0000000  0.6694400  3
   6643   6665   6649   6652     1  0.0000000  1.6038667  3
   6644   6647   6648   6650     1  0.0000000  0.6508444  3
   6644   6647   6655   6658     1  0.0000000  1.0460000  1
   6644   6647   6655   6658     1  0.0000000  0.6694400  3
   6644   6643   6657   6661     1  0.0000000  0.6508444  3
   6644   6643   6657   6662     1  0.0000000  0.6508444  3
   6645   6643   6644   6647     1  0.0000000  0.6508444  3
   6645   6643   6644   6656     1  0.0000000  1.0460000  1
   6645   6643   6644   6656     1  0.0000000  0.0000000  3
   6645   6643   6644   6646     1  0.0000000  0.6508444  3
   6645   6643   6657   6663     1  0.0000000  1.0460000  1
   6645   6643   6657   6663     1  0.0000000  0.0000000  3
   6645   6643   6657   6661     1  0.0000000  0.6508444  3
   6645   6643   6657   6662     1  0.0000000  0.6508444  3
   6645   6643   6665   6649     1  0.0000000  1.6038667  3
   6646   6644   6647   6648     1  0.0000000  0.6508444  3
   6646   6644   6647   6655     1  0.0000000  1.0460000  1
   6646   6644   6647   6655     1  0.0000000  0.0000000  3
   6646   6644   6647   6651     1  0.0000000  0.6508444  3
   6646   6644   6656   6659     1  0.0000000  0.6973333  3
   6646   6644   6643   6657     1  0.0000000  0.6508444  3
   6646   6644   6643   6665     1  0.0000000  1.0460000  1
   6646   6644   6643   6665     1  0.0000000  0.0000000  3
   6647   6648   6649   6652     1  0.0000000  0.6508444  3
   6647   6648   6654   6660     1  0.0000000  1.0460000  1
   6647   6648   6654   6660     1  0.0000000  0.6694400  3
   6647   6644   6656   6659     1  0.0000000  1.0460000  1
   6647   6644   6656   6659     1  0.0000000  0.6694400  3
   6648   6647   6655   6658     1  0.0000000  1.0460000  1
   6648   6647   6655   6658     1  0.0000000  0.6694400  3
   6649   6648   6654   6660     1  0.0000000  1.0460000  1
   6649   6648   6654   6660     1  0.0000000  0.6694400  3
   6649   6648   6647   6651     1  0.0000000  0.6508444  3
   6650   6648   6649   6653     1  0.0000000  1.0460000  1
   6650   6648   6649   6653     1  0.0000000  0.0000000  3
   6650   6648   6649   6665     1  0.0000000  1.0460000  1
   6650   6648   6649   6665     1  0.0000000  0.0000000  3
   6650   6648   6649   6652     1  0.0000000  0.6508444  3
   6650   6648   6654   6660     1  0.0000000  0.6973333  3
   6650   6648   6647   6655     1  0.0000000  1.0460000  1
   6650   6648   6647   6655     1  0.0000000  0.0000000  3
   6650   6648   6647   6651     1  0.0000000  0.6508444  3
   6651   6647   6648   6654     1  0.0000000  1.0460000  1
   6651   6647   6648   6654     1  0.0000000  0.0000000  3
   6651   6647   6655   6658     1  0.0000000  0.6973333  3
   6651   6647   6644   6656     1  0.0000000  1.0460000  1
   6651   6647   6644   6656     1  0.0000000  0.0000000  3
   6652   6649   6648   6654     1  0.0000000  0.6508444  3
   6661   6657   6663   6664     1  0.0000000  0.6973333  3
   6661   6657   6643   6665     1  0.0000000  1.0460000  1
   6661   6657   6643   6665     1  0.0000000  0.0000000  3
   6662   6657   6663   6664     1  0.0000000  0.6973333  3
   6662   6657   6643   6665     1  0.0000000  1.0460000  1
   6662   6657   6643   6665     1  0.0000000  0.0000000  3
   6666   6667   6670   6674     1  0.0000000  0.6508444  3
   6666   6667   6679   6682     1  0.0000000  1.0460000  1
   6666   6667   6679   6682     1  0.0000000  0.6694400  3
   6666   6680   6686   6687     1  0.0000000  1.0460000  1
   6666   6680   6686   6687     1  0.0000000  0.6694400  3
   6666   6688   6672   6675     1  0.0000000  1.6038667  3
   6667   6666   6680   6684     1  0.0000000  0.6508444  3
   6667   6666   6680   6685     1  0.0000000  0.6508444  3
   6667   6670   6671   6673     1  0.0000000  0.6508444  3
   6667   6670   6678   6681     1  0.0000000  1.0460000  1
   6667   6670   6678   6681     1  0.0000000  0.6694400  3
   6668   6666   6667   6670     1  0.0000000  0.6508444  3
   6668   6666   6667   6679     1  0.0000000  1.0460000  1
   6668   6666   6667   6679     1  0.0000000  0.0000000  3
   6668   6666   6667   6669     1  0.0000000  0.6508444  3
   6668   6666   6680   6686     1  0.0000000  1.0460000  1
   6668   6666   6680   6686     1  0.0000000  0.0000000  3
   6668   6666   6680   6684     1  0.0000000  0.6508444  3
   6668   6666   6680   6685     1  0.0000000  0.6508444  3
   6668   6666   6688   6672     1  0.0000000  1.6038667  3
   6669   6667   6666   6680     1  0.0000000  0.6508444  3
   6669   6667   6666   6688     1  0.0000000  1.0460000  1
   6669   6667   6666   6688     1  0.0000000  0.0000000  3
   6669   6667   6670   6671     1  0.0000000  0.6508444  3
   6669   6667   6670   6678     1  0.0000000  1.0460000  1
   6669   6667   6670   6678     1  0.0000000  0.0000000  3
   6669   6667   6670   6674     1  0.0000000  0.6508444  3
   6669   6667   6679   6682     1  0.0000000  0.6973333  3
   6670   6667   6679   6682     1  0.0000000  1.0460000  1
   6670   6667   6679   6682     1  0.0000000  0.6694400  3
   6670   6671   6672   6675     1  0.0000000  0.6508444  3
   6670   6671   6677   6683     1  0.0000000  1.0460000  1
   6670   6671   6677   6683     1  0.0000000  0.6694400  3
   6671   6670   6678   6681     1  0.0000000  1.0460000  1
   6671   6670   6678   6681     1  0.0000000  0.6694400  3
   6672   6671   6670   6674     1  0.0000000  0.6508444  3
   6672   6671   6677   6683     1  0.0000000  1.0460000  1
   6672   6671   6677   6683     1  0.0000000  0.6694400  3
   6673   6671   6670   6678     1  0.0000000  1.0460000  1
   6673   6671   6670   6678     1  0.0000000  0.0000000  3
   6673   6671   6670   6674     1  0.0000000  0.6508444  3
   6673   6671   6672   6676     1  0.0000000  1.0460000  1
   6673   6671   6672   6676     1  0.0000000  0.0000000  3
   6673   6671   6672   6688     1  0.0000000  1.0460000  1
   6673   6671   6672   6688     1  0.0000000  0.0000000  3
   6673   6671   6672   6675     1  0.0000000  0.6508444  3
   6673   6671   6677   6683     1  0.0000000  0.6973333  3
   6674   6670   6667   6679     1  0.0000000  1.0460000  1
   6674   6670   6667   6679     1  0.0000000  0.0000000  3
   6674   6670   6671   6677     1  0.0000000  1.0460000  1
   6674   6670   6671   6677     1  0.0000000  0.0000000  3
   6674   6670   6678   6681     1  0.0000000  0.6973333  3
   6675   6672   6671   6677     1  0.0000000  0.6508444  3
   6684   6680   6666   6688     1  0.0000000  1.0460000  1
   6684   6680   6666   6688     1  0.0000000  0.0000000  3
   6684   6680   6686   6687     1  0.0000000  0.6973333  3
   6685   6680   6666   6688     1  0.0000000  1.0460000  1
   6685   6680   6666   6688     1  0.0000000  0.0000000  3
   6685   6680   6686   6687     1  0.0000000  0.6973333  3
   6689   6690   6693   6697     1  0.0000000  0.6508444  3
   6689   6690   6702   6705     1  0.0000000  1.0460000  1
   6689   6690   6702   6705     1  0.0000000  0.6694400  3
   6689   6703   6709   6710     1  0.0000000  1.0460000  1
   6689   6703   6709   6710     1  0.0000000  0.6694400  3
   6689   6711   6695   6698     1  0.0000000  1.6038667  3
   6690   6693   6694   6696     1  0.0000000  0.6508444  3
   6690   6693   6701   6704     1  0.0000000  1.0460000  1
   6690   6693   6701   6704     1  0.0000000  0.6694400  3
   6690   6689   6703   6707     1  0.0000000  0.6508444  3
   6690   6689   6703   6708     1  0.0000000  0.6508444  3
   6691   6689   6690   6693     1  0.0000000  0.6508444  3
   6691   6689   6690   6702     1  0.0000000  1.0460000  1
   6691   6689   6690   6702     1  0.0000000  0.0000000  3
   6691   6689   6690   6692     1  0.0000000  0.6508444  3
   6691   6689   6703   6709     1  0.0000000  1.0460000  1
   6691   6689   6703   6709     1  0.0000000  0.0000000  3
   6691   6689   6703   6707     1  0.0000000  0.6508444  3
   6691   6689   6703   6708     1  0.0000000  0.6508444  3
   6691   6689   6711   6695     1  0.0000000  1.6038667  3
   6692   6690   6693   6694     1  0.0000000  0.6508444  3
   6692   6690   6693   6701     1  0.0000000  1.0460000  1
   6692   6690   6693   6701     1  0.0000000  0.0000000  3
   6692   6690   6693   6697     1  0.0000000  0.6508444  3
   6692   6690   6702   6705     1  0.0000000  0.6973333  3
   6692   6690   6689   6703     1  0.0000000  0.6508444  3
   6692   6690   6689   6711     1  0.0000000  1.0460000  1
   6692   6690   6689   6711     1  0.0000000  0.0000000  3
   6693   6694   6695   6698     1  0.0000000  0.6508444  3
   6693   6694   6700   6706     1  0.0000000  1.0460000  1
   6693   6694   6700   6706     1  0.0000000  0.6694400  3
   6693   6690   6702   6705     1  0.0000000  1.0460000  1
   6693   6690   6702   6705     1  0.0000000  0.6694400  3
   6694   6693   6701   6704     1  0.0000000  1.0460000  1
   6694   6693   6701   6704     1  0.0000000  0.6694400  3
   6695   6694   6700   6706     1  0.0000000  1.0460000  1
   6695   6694   6700   6706     1  0.0000000  0.6694400  3
   6695   6694   6693   6697     1  0.0000000  0.6508444  3
   6696   6694   6695   6699     1  0.0000000  1.0460000  1
   6696   6694   6695   6699     1  0.0000000  0.0000000  3
   6696   6694   6695   6711     1  0.0000000  1.0460000  1
   6696   6694   6695   6711     1  0.0000000  0.0000000  3
   6696   6694   6695   6698     1  0.0000000  0.6508444  3
   6696   6694   6700   6706     1  0.0000000  0.6973333  3
   6696   6694   6693   6701     1  0.0000000  1.0460000  1
   6696   6694   6693   6701     1  0.0000000  0.0000000  3
   6696   6694   6693   6697     1  0.0000000  0.6508444  3
   6697   6693   6694   6700     1  0.0000000  1.0460000  1
   6697   6693   6694   6700     1  0.0000000  0.0000000  3
   6697   6693   6701   6704     1  0.0000000  0.6973333  3
   6697   6693   6690   6702     1  0.0000000  1.0460000  1
   6697   6693   6690   6702     1  0.0000000  0.0000000  3
   6698   6695   6694   6700     1  0.0000000  0.6508444  3
   6707   6703   6709   6710     1  0.0000000  0.6973333  3
   6707   6703   6689   6711     1  0.0000000  1.0460000  1
   6707   6703   6689   6711     1  0.0000000  0.0000000  3
   6708   6703   6709   6710     1  0.0000000  0.6973333  3
   6708   6703   6689   6711     1  0.0000000  1.0460000  1
   6708   6703   6689   6711     1  0.0000000  0.0000000  3
   6712   6713   6716   6720     1  0.0000000  0.6508444  3
   6712   6713   6725   6728     1  0.0000000  1.0460000  1
   6712   6713   6725   6728     1  0.0000000  0.6694400  3
   6712   6726   6732   6733     1  0.0000000  1.0460000  1
   6712   6726   6732   6733     1  0.0000000  0.6694400  3
   6712   6734   6718   6721     1  0.0000000  1.6038667  3
   6713   6712   6726   6730     1  0.0000000  0.6508444  3
   6713   6712   6726   6731     1  0.0000000  0.6508444  3
   6713   6716   6717   6719     1  0.0000000  0.6508444  3
   6713   6716   6724   6727     1  0.0000000  1.0460000  1
   6713   6716   6724   6727     1  0.0000000  0.6694400  3
   6714   6712   6713   6716     1  0.0000000  0.6508444  3
   6714   6712   6713   6725     1  0.0000000  1.0460000  1
   6714   6712   6713   6725     1  0.0000000  0.0000000  3
   6714   6712   6713   6715     1  0.0000000  0.6508444  3
   6714   6712   6726   6732     1  0.0000000  1.0460000  1
   6714   6712   6726   6732     1  0.0000000  0.0000000  3
   6714   6712   6726   6730     1  0.0000000  0.6508444  3
   6714   6712   6726   6731     1  0.0000000  0.6508444  3
   6714   6712   6734   6718     1  0.0000000  1.6038667  3
   6715   6713   6712   6726     1  0.0000000  0.6508444  3
   6715   6713   6712   6734     1  0.0000000  1.0460000  1
   6715   6713   6712   6734     1  0.0000000  0.0000000  3
   6715   6713   6716   6717     1  0.0000000  0.6508444  3
   6715   6713   6716   6724     1  0.0000000  1.0460000  1
   6715   6713   6716   6724     1  0.0000000  0.0000000  3
   6715   6713   6716   6720     1  0.0000000  0.6508444  3
   6715   6713   6725   6728     1  0.0000000  0.6973333  3
   6716   6713   6725   6728     1  0.0000000  1.0460000  1
   6716   6713   6725   6728     1  0.0000000  0.6694400  3
   6716   6717   6718   6721     1  0.0000000  0.6508444  3
   6716   6717   6723   6729     1  0.0000000  1.0460000  1
   6716   6717   6723   6729     1  0.0000000  0.6694400  3
   6717   6716   6724   6727     1  0.0000000  1.0460000  1
   6717   6716   6724   6727     1  0.0000000  0.6694400  3
   6718   6717   6716   6720     1  0.0000000  0.6508444  3
   6718   6717   6723   6729     1  0.0000000  1.0460000  1
   6718   6717   6723   6729     1  0.0000000  0.6694400  3
   6719   6717   6716   6724     1  0.0000000  1.0460000  1
   6719   6717   6716   6724     1  0.0000000  0.0000000  3
   6719   6717   6716   6720     1  0.0000000  0.6508444  3
   6719   6717   6718   6722     1  0.0000000  1.0460000  1
   6719   6717   6718   6722     1  0.0000000  0.0000000  3
   6719   6717   6718   6734     1  0.0000000  1.0460000  1
   6719   6717   6718   6734     1  0.0000000  0.0000000  3
   6719   6717   6718   6721     1  0.0000000  0.6508444  3
   6719   6717   6723   6729     1  0.0000000  0.6973333  3
   6720   6716   6713   6725     1  0.0000000  1.0460000  1
   6720   6716   6713   6725     1  0.0000000  0.0000000  3
   6720   6716   6717   6723     1  0.0000000  1.0460000  1
   6720   6716   6717   6723     1  0.0000000  0.0000000  3
   6720   6716   6724   6727     1  0.0000000  0.6973333  3
   6721   6718   6717   6723     1  0.0000000  0.6508444  3
   6730   6726   6712   6734     1  0.0000000  1.0460000  1
   6730   6726   6712   6734     1  0.0000000  0.0000000  3
   6730   6726   6732   6733     1  0.0000000  0.6973333  3
   6731   6726   6712   6734     1  0.0000000  1.0460000  1
   6731   6726   6712   6734     1  0.0000000  0.0000000  3
   6731   6726   6732   6733     1  0.0000000  0.6973333  3
   6735   6736   6739   6743     1  0.0000000  0.6508444  3
   6735   6736   6748   6751     1  0.0000000  1.0460000  1
   6735   6736   6748   6751     1  0.0000000  0.6694400  3
   6735   6749   6755   6756     1  0.0000000  1.0460000  1
   6735   6749   6755   6756     1  0.0000000  0.6694400  3
   6735   6757   6741   6744     1  0.0000000  1.6038667  3
   6736   6739   6740   6742     1  0.0000000  0.6508444  3
   6736   6739   6747   6750     1  0.0000000  1.0460000  1
   6736   6739   6747   6750     1  0.0000000  0.6694400  3
   6736   6735   6749   6753     1  0.0000000  0.6508444  3
   6736   6735   6749   6754     1  0.0000000  0.6508444  3
   6737   6735   6736   6739     1  0.0000000  0.6508444  3
   6737   6735   6736   6748     1  0.0000000  1.0460000  1
   6737   6735   6736   6748     1  0.0000000  0.0000000  3
   6737   6735   6736   6738     1  0.0000000  0.6508444  3
   6737   6735   6749   6755     1  0.0000000  1.0460000  1
   6737   6735   6749   6755     1  0.0000000  0.0000000  3
   6737   6735   6749   6753     1  0.0000000  0.6508444  3
   6737   6735   6749   6754     1  0.0000000  0.6508444  3
   6737   6735   6757   6741     1  0.0000000  1.6038667  3
   6738   6736   6739   6740     1  0.0000000  0.6508444  3
   6738   6736   6739   6747     1  0.0000000  1.0460000  1
   6738   6736   6739   6747     1  0.0000000  0.0000000  3
   6738   6736   6739   6743     1  0.0000000  0.6508444  3
   6738   6736   6748   6751     1  0.0000000  0.6973333  3
   6738   6736   6735   6749     1  0.0000000  0.6508444  3
   6738   6736   6735   6757     1  0.0000000  1.0460000  1
   6738   6736   6735   6757     1  0.0000000  0.0000000  3
   6739   6740   6741   6744     1  0.0000000  0.6508444  3
   6739   6740   6746   6752     1  0.0000000  1.0460000  1
   6739   6740   6746   6752     1  0.0000000  0.6694400  3
   6739   6736   6748   6751     1  0.0000000  1.0460000  1
   6739   6736   6748   6751     1  0.0000000  0.6694400  3
   6740   6739   6747   6750     1  0.0000000  1.0460000  1
   6740   6739   6747   6750     1  0.0000000  0.6694400  3
   6741   6740   6746   6752     1  0.0000000  1.0460000  1
   6741   6740   6746   6752     1  0.0000000  0.6694400  3
   6741   6740   6739   6743     1  0.0000000  0.6508444  3
   6742   6740   6741   6745     1  0.0000000  1.0460000  1
   6742   6740   6741   6745     1  0.0000000  0.0000000  3
   6742   6740   6741   6757     1  0.0000000  1.0460000  1
   6742   6740   6741   6757     1  0.0000000  0.0000000  3
   6742   6740   6741   6744     1  0.0000000  0.6508444  3
   6742   6740   6746   6752     1  0.0000000  0.6973333  3
   6742   6740   6739   6747     1  0.0000000  1.0460000  1
   6742   6740   6739   6747     1  0.0000000  0.0000000  3
   6742   6740   6739   6743     1  0.0000000  0.6508444  3
   6743   6739   6740   6746     1  0.0000000  1.0460000  1
   6743   6739   6740   6746     1  0.0000000  0.0000000  3
   6743   6739   6747   6750     1  0.0000000  0.6973333  3
   6743   6739   6736   6748     1  0.0000000  1.0460000  1
   6743   6739   6736   6748     1  0.0000000  0.0000000  3
   6744   6741   6740   6746     1  0.0000000  0.6508444  3
   6753   6749   6755   6756     1  0.0000000  0.6973333  3
   6753   6749   6735   6757     1  0.0000000  1.0460000  1
   6753   6749   6735   6757     1  0.0000000  0.0000000  3
   6754   6749   6755   6756     1  0.0000000  0.6973333  3
   6754   6749   6735   6757     1  0.0000000  1.0460000  1
   6754   6749   6735   6757     1  0.0000000  0.0000000  3
   6758   6759   6762   6766     1  0.0000000  0.6508444  3
   6758   6759   6771   6774     1  0.0000000  1.0460000  1
   6758   6759   6771   6774     1  0.0000000  0.6694400  3
   6758   6772   6778   6779     1  0.0000000  1.0460000  1
   6758   6772   6778   6779     1  0.0000000  0.6694400  3
   6758   6780   6764   6767     1  0.0000000  1.6038667  3
   6759   6758   6772   6776     1  0.0000000  0.6508444  3
   6759   6758   6772   6777     1  0.0000000  0.6508444  3
   6759   6762   6763   6765     1  0.0000000  0.6508444  3
   6759   6762   6770   6773     1  0.0000000  1.0460000  1
   6759   6762   6770   6773     1  0.0000000  0.6694400  3
   6760   6758   6759   6762     1  0.0000000  0.6508444  3
   6760   6758   6759   6771     1  0.0000000  1.0460000  1
   6760   6758   6759   6771     1  0.0000000  0.0000000  3
   6760   6758   6759   6761     1  0.0000000  0.6508444  3
   6760   6758   6772   6778     1  0.0000000  1.0460000  1
   6760   6758   6772   6778     1  0.0000000  0.0000000  3
   6760   6758   6772   6776     1  0.0000000  0.6508444  3
   6760   6758   6772   6777     1  0.0000000  0.6508444  3
   6760   6758   6780   6764     1  0.0000000  1.6038667  3
   6761   6759   6758   6772     1  0.0000000  0.6508444  3
   6761   6759   6758   6780     1  0.0000000  1.0460000  1
   6761   6759   6758   6780     1  0.0000000  0.0000000  3
   6761   6759   6762   6763     1  0.0000000  0.6508444  3
   6761   6759   6762   6770     1  0.0000000  1.0460000  1
   6761   6759   6762   6770     1  0.0000000  0.0000000  3
   6761   6759   6762   6766     1  0.0000000  0.6508444  3
   6761   6759   6771   6774     1  0.0000000  0.6973333  3
   6762   6759   6771   6774     1  0.0000000  1.0460000  1
   6762   6759   6771   6774     1  0.0000000  0.6694400  3
   6762   6763   6764   6767     1  0.0000000  0.6508444  3
   6762   6763   6769   6775     1  0.0000000  1.0460000  1
   6762   6763   6769   6775     1  0.0000000  0.6694400  3
   6763   6762   6770   6773     1  0.0000000  1.0460000  1
   6763   6762   6770   6773     1  0.0000000  0.6694400  3
   6764   6763   6762   6766     1  0.0000000  0.6508444  3
   6764   6763   6769   6775     1  0.0000000  1.0460000  1
   6764   6763   6769   6775     1  0.0000000  0.6694400  3
   6765   6763   6762   6770     1  0.0000000  1.0460000  1
   6765   6763   6762   6770     1  0.0000000  0.0000000  3
   6765   6763   6762   6766     1  0.0000000  0.6508444  3
   6765   6763   6764   6768     1  0.0000000  1.0460000  1
   6765   6763   6764   6768     1  0.0000000  0.0000000  3
   6765   6763   6764   6780     1  0.0000000  1.0460000  1
   6765   6763   6764   6780     1  0.0000000  0.0000000  3
   6765   6763   6764   6767     1  0.0000000  0.6508444  3
   6765   6763   6769   6775     1  0.0000000  0.6973333  3
   6766   6762   6759   6771     1  0.0000000  1.0460000  1
   6766   6762   6759   6771     1  0.0000000  0.0000000  3
   6766   6762   6763   6769     1  0.0000000  1.0460000  1
   6766   6762   6763   6769     1  0.0000000  0.0000000  3
   6766   6762   6770   6773     1  0.0000000  0.6973333  3
   6767   6764   6763   6769     1  0.0000000  0.6508444  3
   6776   6772   6758   6780     1  0.0000000  1.0460000  1
   6776   6772   6758   6780     1  0.0000000  0.0000000  3
   6776   6772   6778   6779     1  0.0000000  0.6973333  3
   6777   6772   6758   6780     1  0.0000000  1.0460000  1
   6777   6772   6758   6780     1  0.0000000  0.0000000  3
   6777   6772   6778   6779     1  0.0000000  0.6973333  3
   6781   6782   6785   6789     1  0.0000000  0.6508444  3
   6781   6782   6794   6797     1  0.0000000  1.0460000  1
   6781   6782   6794   6797     1  0.0000000  0.6694400  3
   6781   6795   6801   6802     1  0.0000000  1.0460000  1
   6781   6795   6801   6802     1  0.0000000  0.6694400  3
   6781   6803   6787   6790     1  0.0000000  1.6038667  3
   6782   6785   6786   6788     1  0.0000000  0.6508444  3
   6782   6785   6793   6796     1  0.0000000  1.0460000  1
   6782   6785   6793   6796     1  0.0000000  0.6694400  3
   6782   6781   6795   6799     1  0.0000000  0.6508444  3
   6782   6781   6795   6800     1  0.0000000  0.6508444  3
   6783   6781   6782   6785     1  0.0000000  0.6508444  3
   6783   6781   6782   6794     1  0.0000000  1.0460000  1
   6783   6781   6782   6794     1  0.0000000  0.0000000  3
   6783   6781   6782   6784     1  0.0000000  0.6508444  3
   6783   6781   6795   6801     1  0.0000000  1.0460000  1
   6783   6781   6795   6801     1  0.0000000  0.0000000  3
   6783   6781   6795   6799     1  0.0000000  0.6508444  3
   6783   6781   6795   6800     1  0.0000000  0.6508444  3
   6783   6781   6803   6787     1  0.0000000  1.6038667  3
   6784   6782   6785   6786     1  0.0000000  0.6508444  3
   6784   6782   6785   6793     1  0.0000000  1.0460000  1
   6784   6782   6785   6793     1  0.0000000  0.0000000  3
   6784   6782   6785   6789     1  0.0000000  0.6508444  3
   6784   6782   6794   6797     1  0.0000000  0.6973333  3
   6784   6782   6781   6795     1  0.0000000  0.6508444  3
   6784   6782   6781   6803     1  0.0000000  1.0460000  1
   6784   6782   6781   6803     1  0.0000000  0.0000000  3
   6785   6786   6787   6790     1  0.0000000  0.6508444  3
   6785   6786   6792   6798     1  0.0000000  1.0460000  1
   6785   6786   6792   6798     1  0.0000000  0.6694400  3
   6785   6782   6794   6797     1  0.0000000  1.0460000  1
   6785   6782   6794   6797     1  0.0000000  0.6694400  3
   6786   6785   6793   6796     1  0.0000000  1.0460000  1
   6786   6785   6793   6796     1  0.0000000  0.6694400  3
   6787   6786   6792   6798     1  0.0000000  1.0460000  1
   6787   6786   6792   6798     1  0.0000000  0.6694400  3
   6787   6786   6785   6789     1  0.0000000  0.6508444  3
   6788   6786   6787   6791     1  0.0000000  1.0460000  1
   6788   6786   6787   6791     1  0.0000000  0.0000000  3
   6788   6786   6787   6803     1  0.0000000  1.0460000  1
   6788   6786   6787   6803     1  0.0000000  0.0000000  3
   6788   6786   6787   6790     1  0.0000000  0.6508444  3
   6788   6786   6792   6798     1  0.0000000  0.6973333  3
   6788   6786   6785   6793     1  0.0000000  1.0460000  1
   6788   6786   6785   6793     1  0.0000000  0.0000000  3
   6788   6786   6785   6789     1  0.0000000  0.6508444  3
   6789   6785   6786   6792     1  0.0000000  1.0460000  1
   6789   6785   6786   6792     1  0.0000000  0.0000000  3
   6789   6785   6793   6796     1  0.0000000  0.6973333  3
   6789   6785   6782   6794     1  0.0000000  1.0460000  1
   6789   6785   6782   6794     1  0.0000000  0.0000000  3
   6790   6787   6786   6792     1  0.0000000  0.6508444  3
   6799   6795   6801   6802     1  0.0000000  0.6973333  3
   6799   6795   6781   6803     1  0.0000000  1.0460000  1
   6799   6795   6781   6803     1  0.0000000  0.0000000  3
   6800   6795   6801   6802     1  0.0000000  0.6973333  3
   6800   6795   6781   6803     1  0.0000000  1.0460000  1
   6800   6795   6781   6803     1  0.0000000  0.0000000  3
   6804   6805   6808   6812     1  0.0000000  0.6508444  3
   6804   6805   6817   6820     1  0.0000000  1.0460000  1
   6804   6805   6817   6820     1  0.0000000  0.6694400  3
   6804   6818   6824   6825     1  0.0000000  1.0460000  1
   6804   6818   6824   6825     1  0.0000000  0.6694400  3
   6804   6826   6810   6813     1  0.0000000  1.6038667  3
   6805   6804   6818   6822     1  0.0000000  0.6508444  3
   6805   6804   6818   6823     1  0.0000000  0.6508444  3
   6805   6808   6809   6811     1  0.0000000  0.6508444  3
   6805   6808   6816   6819     1  0.0000000  1.0460000  1
   6805   6808   6816   6819     1  0.0000000  0.6694400  3
   6806   6804   6805   6808     1  0.0000000  0.6508444  3
   6806   6804   6805   6817     1  0.0000000  1.0460000  1
   6806   6804   6805   6817     1  0.0000000  0.0000000  3
   6806   6804   6805   6807     1  0.0000000  0.6508444  3
   6806   6804   6818   6824     1  0.0000000  1.0460000  1
   6806   6804   6818   6824     1  0.0000000  0.0000000  3
   6806   6804   6818   6822     1  0.0000000  0.6508444  3
   6806   6804   6818   6823     1  0.0000000  0.6508444  3
   6806   6804   6826   6810     1  0.0000000  1.6038667  3
   6807   6805   6804   6818     1  0.0000000  0.6508444  3
   6807   6805   6804   6826     1  0.0000000  1.0460000  1
   6807   6805   6804   6826     1  0.0000000  0.0000000  3
   6807   6805   6808   6809     1  0.0000000  0.6508444  3
   6807   6805   6808   6816     1  0.0000000  1.0460000  1
   6807   6805   6808   6816     1  0.0000000  0.0000000  3
   6807   6805   6808   6812     1  0.0000000  0.6508444  3
   6807   6805   6817   6820     1  0.0000000  0.6973333  3
   6808   6805   6817   6820     1  0.0000000  1.0460000  1
   6808   6805   6817   6820     1  0.0000000  0.6694400  3
   6808   6809   6810   6813     1  0.0000000  0.6508444  3
   6808   6809   6815   6821     1  0.0000000  1.0460000  1
   6808   6809   6815   6821     1  0.0000000  0.6694400  3
   6809   6808   6816   6819     1  0.0000000  1.0460000  1
   6809   6808   6816   6819     1  0.0000000  0.6694400  3
   6810   6809   6808   6812     1  0.0000000  0.6508444  3
   6810   6809   6815   6821     1  0.0000000  1.0460000  1
   6810   6809   6815   6821     1  0.0000000  0.6694400  3
   6811   6809   6808   6816     1  0.0000000  1.0460000  1
   6811   6809   6808   6816     1  0.0000000  0.0000000  3
   6811   6809   6808   6812     1  0.0000000  0.6508444  3
   6811   6809   6810   6814     1  0.0000000  1.0460000  1
   6811   6809   6810   6814     1  0.0000000  0.0000000  3
   6811   6809   6810   6826     1  0.0000000  1.0460000  1
   6811   6809   6810   6826     1  0.0000000  0.0000000  3
   6811   6809   6810   6813     1  0.0000000  0.6508444  3
   6811   6809   6815   6821     1  0.0000000  0.6973333  3
   6812   6808   6805   6817     1  0.0000000  1.0460000  1
   6812   6808   6805   6817     1  0.0000000  0.0000000  3
   6812   6808   6809   6815     1  0.0000000  1.0460000  1
   6812   6808   6809   6815     1  0.0000000  0.0000000  3
   6812   6808   6816   6819     1  0.0000000  0.6973333  3
   6813   6810   6809   6815     1  0.0000000  0.6508444  3
   6822   6818   6804   6826     1  0.0000000  1.0460000  1
   6822   6818   6804   6826     1  0.0000000  0.0000000  3
   6822   6818   6824   6825     1  0.0000000  0.6973333  3
   6823   6818   6804   6826     1  0.0000000  1.0460000  1
   6823   6818   6804   6826     1  0.0000000  0.0000000  3
   6823   6818   6824   6825     1  0.0000000  0.6973333  3
   6827   6828   6831   6835     1  0.0000000  0.6508444  3
   6827   6828   6840   6843     1  0.0000000  1.0460000  1
   6827   6828   6840   6843     1  0.0000000  0.6694400  3
   6827   6841   6847   6848     1  0.0000000  1.0460000  1
   6827   6841   6847   6848     1  0.0000000  0.6694400  3
   6827   6849   6833   6836     1  0.0000000  1.6038667  3
   6828   6831   6832   6834     1  0.0000000  0.6508444  3
   6828   6831   6839   6842     1  0.0000000  1.0460000  1
   6828   6831   6839   6842     1  0.0000000  0.6694400  3
   6828   6827   6841   6845     1  0.0000000  0.6508444  3
   6828   6827   6841   6846     1  0.0000000  0.6508444  3
   6829   6827   6828   6831     1  0.0000000  0.6508444  3
   6829   6827   6828   6840     1  0.0000000  1.0460000  1
   6829   6827   6828   6840     1  0.0000000  0.0000000  3
   6829   6827   6828   6830     1  0.0000000  0.6508444  3
   6829   6827   6841   6847     1  0.0000000  1.0460000  1
   6829   6827   6841   6847     1  0.0000000  0.0000000  3
   6829   6827   6841   6845     1  0.0000000  0.6508444  3
   6829   6827   6841   6846     1  0.0000000  0.6508444  3
   6829   6827   6849   6833     1  0.0000000  1.6038667  3
   6830   6828   6831   6832     1  0.0000000  0.6508444  3
   6830   6828   6831   6839     1  0.0000000  1.0460000  1
   6830   6828   6831   6839     1  0.0000000  0.0000000  3
   6830   6828   6831   6835     1  0.0000000  0.6508444  3
   6830   6828   6840   6843     1  0.0000000  0.6973333  3
   6830   6828   6827   6841     1  0.0000000  0.6508444  3
   6830   6828   6827   6849     1  0.0000000  1.0460000  1
   6830   6828   6827   6849     1  0.0000000  0.0000000  3
   6831   6832   6833   6836     1  0.0000000  0.6508444  3
   6831   6832   6838   6844     1  0.0000000  1.0460000  1
   6831   6832   6838   6844     1  0.0000000  0.6694400  3
   6831   6828   6840   6843     1  0.0000000  1.0460000  1
   6831   6828   6840   6843     1  0.0000000  0.6694400  3
   6832   6831   6839   6842     1  0.0000000  1.0460000  1
   6832   6831   6839   6842     1  0.0000000  0.6694400  3
   6833   6832   6838   6844     1  0.0000000  1.0460000  1
   6833   6832   6838   6844     1  0.0000000  0.6694400  3
   6833   6832   6831   6835     1  0.0000000  0.6508444  3
   6834   6832   6833   6837     1  0.0000000  1.0460000  1
   6834   6832   6833   6837     1  0.0000000  0.0000000  3
   6834   6832   6833   6849     1  0.0000000  1.0460000  1
   6834   6832   6833   6849     1  0.0000000  0.0000000  3
   6834   6832   6833   6836     1  0.0000000  0.6508444  3
   6834   6832   6838   6844     1  0.0000000  0.6973333  3
   6834   6832   6831   6839     1  0.0000000  1.0460000  1
   6834   6832   6831   6839     1  0.0000000  0.0000000  3
   6834   6832   6831   6835     1  0.0000000  0.6508444  3
   6835   6831   6832   6838     1  0.0000000  1.0460000  1
   6835   6831   6832   6838     1  0.0000000  0.0000000  3
   6835   6831   6839   6842     1  0.0000000  0.6973333  3
   6835   6831   6828   6840     1  0.0000000  1.0460000  1
   6835   6831   6828   6840     1  0.0000000  0.0000000  3
   6836   6833   6832   6838     1  0.0000000  0.6508444  3
   6845   6841   6847   6848     1  0.0000000  0.6973333  3
   6845   6841   6827   6849     1  0.0000000  1.0460000  1
   6845   6841   6827   6849     1  0.0000000  0.0000000  3
   6846   6841   6847   6848     1  0.0000000  0.6973333  3
   6846   6841   6827   6849     1  0.0000000  1.0460000  1
   6846   6841   6827   6849     1  0.0000000  0.0000000  3
   6850   6851   6854   6858     1  0.0000000  0.6508444  3
   6850   6851   6863   6866     1  0.0000000  1.0460000  1
   6850   6851   6863   6866     1  0.0000000  0.6694400  3
   6850   6864   6870   6871     1  0.0000000  1.0460000  1
   6850   6864   6870   6871     1  0.0000000  0.6694400  3
   6850   6872   6856   6859     1  0.0000000  1.6038667  3
   6851   6850   6864   6868     1  0.0000000  0.6508444  3
   6851   6850   6864   6869     1  0.0000000  0.6508444  3
   6851   6854   6855   6857     1  0.0000000  0.6508444  3
   6851   6854   6862   6865     1  0.0000000  1.0460000  1
   6851   6854   6862   6865     1  0.0000000  0.6694400  3
   6852   6850   6851   6854     1  0.0000000  0.6508444  3
   6852   6850   6851   6863     1  0.0000000  1.0460000  1
   6852   6850   6851   6863     1  0.0000000  0.0000000  3
   6852   6850   6851   6853     1  0.0000000  0.6508444  3
   6852   6850   6864   6870     1  0.0000000  1.0460000  1
   6852   6850   6864   6870     1  0.0000000  0.0000000  3
   6852   6850   6864   6868     1  0.0000000  0.6508444  3
   6852   6850   6864   6869     1  0.0000000  0.6508444  3
   6852   6850   6872   6856     1  0.0000000  1.6038667  3
   6853   6851   6850   6864     1  0.0000000  0.6508444  3
   6853   6851   6850   6872     1  0.0000000  1.0460000  1
   6853   6851   6850   6872     1  0.0000000  0.0000000  3
   6853   6851   6854   6855     1  0.0000000  0.6508444  3
   6853   6851   6854   6862     1  0.0000000  1.0460000  1
   6853   6851   6854   6862     1  0.0000000  0.0000000  3
   6853   6851   6854   6858     1  0.0000000  0.6508444  3
   6853   6851   6863   6866     1  0.0000000  0.6973333  3
   6854   6851   6863   6866     1  0.0000000  1.0460000  1
   6854   6851   6863   6866     1  0.0000000  0.6694400  3
   6854   6855   6856   6859     1  0.0000000  0.6508444  3
   6854   6855   6861   6867     1  0.0000000  1.0460000  1
   6854   6855   6861   6867     1  0.0000000  0.6694400  3
   6855   6854   6862   6865     1  0.0000000  1.0460000  1
   6855   6854   6862   6865     1  0.0000000  0.6694400  3
   6856   6855   6854   6858     1  0.0000000  0.6508444  3
   6856   6855   6861   6867     1  0.0000000  1.0460000  1
   6856   6855   6861   6867     1  0.0000000  0.6694400  3
   6857   6855   6854   6862     1  0.0000000  1.0460000  1
   6857   6855   6854   6862     1  0.0000000  0.0000000  3
   6857   6855   6854   6858     1  0.0000000  0.6508444  3
   6857   6855   6856   6860     1  0.0000000  1.0460000  1
   6857   6855   6856   6860     1  0.0000000  0.0000000  3
   6857   6855   6856   6872     1  0.0000000  1.0460000  1
   6857   6855   6856   6872     1  0.0000000  0.0000000  3
   6857   6855   6856   6859     1  0.0000000  0.6508444  3
   6857   6855   6861   6867     1  0.0000000  0.6973333  3
   6858   6854   6851   6863     1  0.0000000  1.0460000  1
   6858   6854   6851   6863     1  0.0000000  0.0000000  3
   6858   6854   6855   6861     1  0.0000000  1.0460000  1
   6858   6854   6855   6861     1  0.0000000  0.0000000  3
   6858   6854   6862   6865     1  0.0000000  0.6973333  3
   6859   6856   6855   6861     1  0.0000000  0.6508444  3
   6868   6864   6850   6872     1  0.0000000  1.0460000  1
   6868   6864   6850   6872     1  0.0000000  0.0000000  3
   6868   6864   6870   6871     1  0.0000000  0.6973333  3
   6869   6864   6850   6872     1  0.0000000  1.0460000  1
   6869   6864   6850   6872     1  0.0000000  0.0000000  3
   6869   6864   6870   6871     1  0.0000000  0.6973333  3
   6873   6874   6877   6881     1  0.0000000  0.6508444  3
   6873   6874   6886   6889     1  0.0000000  1.0460000  1
   6873   6874   6886   6889     1  0.0000000  0.6694400  3
   6873   6887   6893   6894     1  0.0000000  1.0460000  1
   6873   6887   6893   6894     1  0.0000000  0.6694400  3
   6873   6895   6879   6882     1  0.0000000  1.6038667  3
   6874   6877   6878   6880     1  0.0000000  0.6508444  3
   6874   6877   6885   6888     1  0.0000000  1.0460000  1
   6874   6877   6885   6888     1  0.0000000  0.6694400  3
   6874   6873   6887   6891     1  0.0000000  0.6508444  3
   6874   6873   6887   6892     1  0.0000000  0.6508444  3
   6875   6873   6874   6877     1  0.0000000  0.6508444  3
   6875   6873   6874   6886     1  0.0000000  1.0460000  1
   6875   6873   6874   6886     1  0.0000000  0.0000000  3
   6875   6873   6874   6876     1  0.0000000  0.6508444  3
   6875   6873   6887   6893     1  0.0000000  1.0460000  1
   6875   6873   6887   6893     1  0.0000000  0.0000000  3
   6875   6873   6887   6891     1  0.0000000  0.6508444  3
   6875   6873   6887   6892     1  0.0000000  0.6508444  3
   6875   6873   6895   6879     1  0.0000000  1.6038667  3
   6876   6874   6877   6878     1  0.0000000  0.6508444  3
   6876   6874   6877   6885     1  0.0000000  1.0460000  1
   6876   6874   6877   6885     1  0.0000000  0.0000000  3
   6876   6874   6877   6881     1  0.0000000  0.6508444  3
   6876   6874   6886   6889     1  0.0000000  0.6973333  3
   6876   6874   6873   6887     1  0.0000000  0.6508444  3
   6876   6874   6873   6895     1  0.0000000  1.0460000  1
   6876   6874   6873   6895     1  0.0000000  0.0000000  3
   6877   6878   6879   6882     1  0.0000000  0.6508444  3
   6877   6878   6884   6890     1  0.0000000  1.0460000  1
   6877   6878   6884   6890     1  0.0000000  0.6694400  3
   6877   6874   6886   6889     1  0.0000000  1.0460000  1
   6877   6874   6886   6889     1  0.0000000  0.6694400  3
   6878   6877   6885   6888     1  0.0000000  1.0460000  1
   6878   6877   6885   6888     1  0.0000000  0.6694400  3
   6879   6878   6884   6890     1  0.0000000  1.0460000  1
   6879   6878   6884   6890     1  0.0000000  0.6694400  3
   6879   6878   6877   6881     1  0.0000000  0.6508444  3
   6880   6878   6879   6883     1  0.0000000  1.0460000  1
   6880   6878   6879   6883     1  0.0000000  0.0000000  3
   6880   6878   6879   6895     1  0.0000000  1.0460000  1
   6880   6878   6879   6895     1  0.0000000  0.0000000  3
   6880   6878   6879   6882     1  0.0000000  0.6508444  3
   6880   6878   6884   6890     1  0.0000000  0.6973333  3
   6880   6878   6877   6885     1  0.0000000  1.0460000  1
   6880   6878   6877   6885     1  0.0000000  0.0000000  3
   6880   6878   6877   6881     1  0.0000000  0.6508444  3
   6881   6877   6878   6884     1  0.0000000  1.0460000  1
   6881   6877   6878   6884     1  0.0000000  0.0000000  3
   6881   6877   6885   6888     1  0.0000000  0.6973333  3
   6881   6877   6874   6886     1  0.0000000  1.0460000  1
   6881   6877   6874   6886     1  0.0000000  0.0000000  3
   6882   6879   6878   6884     1  0.0000000  0.6508444  3
   6891   6887   6893   6894     1  0.0000000  0.6973333  3
   6891   6887   6873   6895     1  0.0000000  1.0460000  1
   6891   6887   6873   6895     1  0.0000000  0.0000000  3
   6892   6887   6893   6894     1  0.0000000  0.6973333  3
   6892   6887   6873   6895     1  0.0000000  1.0460000  1
   6892   6887   6873   6895     1  0.0000000  0.0000000  3
   6896   6897   6900   6904     1  0.0000000  0.6508444  3
   6896   6897   6909   6912     1  0.0000000  1.0460000  1
   6896   6897   6909   6912     1  0.0000000  0.6694400  3
   6896   6910   6916   6917     1  0.0000000  1.0460000  1
   6896   6910   6916   6917     1  0.0000000  0.6694400  3
   6896   6918   6902   6905     1  0.0000000  1.6038667  3
   6897   6896   6910   6914     1  0.0000000  0.6508444  3
   6897   6896   6910   6915     1  0.0000000  0.6508444  3
   6897   6900   6901   6903     1  0.0000000  0.6508444  3
   6897   6900   6908   6911     1  0.0000000  1.0460000  1
   6897   6900   6908   6911     1  0.0000000  0.6694400  3
   6898   6896   6897   6900     1  0.0000000  0.6508444  3
   6898   6896   6897   6909     1  0.0000000  1.0460000  1
   6898   6896   6897   6909     1  0.0000000  0.0000000  3
   6898   6896   6897   6899     1  0.0000000  0.6508444  3
   6898   6896   6910   6916     1  0.0000000  1.0460000  1
   6898   6896   6910   6916     1  0.0000000  0.0000000  3
   6898   6896   6910   6914     1  0.0000000  0.6508444  3
   6898   6896   6910   6915     1  0.0000000  0.6508444  3
   6898   6896   6918   6902     1  0.0000000  1.6038667  3
   6899   6897   6896   6910     1  0.0000000  0.6508444  3
   6899   6897   6896   6918     1  0.0000000  1.0460000  1
   6899   6897   6896   6918     1  0.0000000  0.0000000  3
   6899   6897   6900   6901     1  0.0000000  0.6508444  3
   6899   6897   6900   6908     1  0.0000000  1.0460000  1
   6899   6897   6900   6908     1  0.0000000  0.0000000  3
   6899   6897   6900   6904     1  0.0000000  0.6508444  3
   6899   6897   6909   6912     1  0.0000000  0.6973333  3
   6900   6897   6909   6912     1  0.0000000  1.0460000  1
   6900   6897   6909   6912     1  0.0000000  0.6694400  3
   6900   6901   6902   6905     1  0.0000000  0.6508444  3
   6900   6901   6907   6913     1  0.0000000  1.0460000  1
   6900   6901   6907   6913     1  0.0000000  0.6694400  3
   6901   6900   6908   6911     1  0.0000000  1.0460000  1
   6901   6900   6908   6911     1  0.0000000  0.6694400  3
   6902   6901   6900   6904     1  0.0000000  0.6508444  3
   6902   6901   6907   6913     1  0.0000000  1.0460000  1
   6902   6901   6907   6913     1  0.0000000  0.6694400  3
   6903   6901   6900   6908     1  0.0000000  1.0460000  1
   6903   6901   6900   6908     1  0.0000000  0.0000000  3
   6903   6901   6900   6904     1  0.0000000  0.6508444  3
   6903   6901   6902   6906     1  0.0000000  1.0460000  1
   6903   6901   6902   6906     1  0.0000000  0.0000000  3
   6903   6901   6902   6918     1  0.0000000  1.0460000  1
   6903   6901   6902   6918     1  0.0000000  0.0000000  3
   6903   6901   6902   6905     1  0.0000000  0.6508444  3
   6903   6901   6907   6913     1  0.0000000  0.6973333  3
   6904   6900   6897   6909     1  0.0000000  1.0460000  1
   6904   6900   6897   6909     1  0.0000000  0.0000000  3
   6904   6900   6901   6907     1  0.0000000  1.0460000  1
   6904   6900   6901   6907     1  0.0000000  0.0000000  3
   6904   6900   6908   6911     1  0.0000000  0.6973333  3
   6905   6902   6901   6907     1  0.0000000  0.6508444  3
   6914   6910   6896   6918     1  0.0000000  1.0460000  1
   6914   6910   6896   6918     1  0.0000000  0.0000000  3
   6914   6910   6916   6917     1  0.0000000  0.6973333  3
   6915   6910   6896   6918     1  0.0000000  1.0460000  1
   6915   6910   6896   6918     1  0.0000000  0.0000000  3
   6915   6910   6916   6917     1  0.0000000  0.6973333  3
   6919   6920   6923   6927     1  0.0000000  0.6508444  3
   6919   6920   6932   6935     1  0.0000000  1.0460000  1
   6919   6920   6932   6935     1  0.0000000  0.6694400  3
   6919   6933   6939   6940     1  0.0000000  1.0460000  1
   6919   6933   6939   6940     1  0.0000000  0.6694400  3
   6919   6941   6925   6928     1  0.0000000  1.6038667  3
   6920   6923   6924   6926     1  0.0000000  0.6508444  3
   6920   6923   6931   6934     1  0.0000000  1.0460000  1
   6920   6923   6931   6934     1  0.0000000  0.6694400  3
   6920   6919   6933   6937     1  0.0000000  0.6508444  3
   6920   6919   6933   6938     1  0.0000000  0.6508444  3
   6921   6919   6920   6923     1  0.0000000  0.6508444  3
   6921   6919   6920   6932     1  0.0000000  1.0460000  1
   6921   6919   6920   6932     1  0.0000000  0.0000000  3
   6921   6919   6920   6922     1  0.0000000  0.6508444  3
   6921   6919   6933   6939     1  0.0000000  1.0460000  1
   6921   6919   6933   6939     1  0.0000000  0.0000000  3
   6921   6919   6933   6937     1  0.0000000  0.6508444  3
   6921   6919   6933   6938     1  0.0000000  0.6508444  3
   6921   6919   6941   6925     1  0.0000000  1.6038667  3
   6922   6920   6923   6924     1  0.0000000  0.6508444  3
   6922   6920   6923   6931     1  0.0000000  1.0460000  1
   6922   6920   6923   6931     1  0.0000000  0.0000000  3
   6922   6920   6923   6927     1  0.0000000  0.6508444  3
   6922   6920   6932   6935     1  0.0000000  0.6973333  3
   6922   6920   6919   6933     1  0.0000000  0.6508444  3
   6922   6920   6919   6941     1  0.0000000  1.0460000  1
   6922   6920   6919   6941     1  0.0000000  0.0000000  3
   6923   6924   6925   6928     1  0.0000000  0.6508444  3
   6923   6924   6930   6936     1  0.0000000  1.0460000  1
   6923   6924   6930   6936     1  0.0000000  0.6694400  3
   6923   6920   6932   6935     1  0.0000000  1.0460000  1
   6923   6920   6932   6935     1  0.0000000  0.6694400  3
   6924   6923   6931   6934     1  0.0000000  1.0460000  1
   6924   6923   6931   6934     1  0.0000000  0.6694400  3
   6925   6924   6930   6936     1  0.0000000  1.0460000  1
   6925   6924   6930   6936     1  0.0000000  0.6694400  3
   6925   6924   6923   6927     1  0.0000000  0.6508444  3
   6926   6924   6925   6929     1  0.0000000  1.0460000  1
   6926   6924   6925   6929     1  0.0000000  0.0000000  3
   6926   6924   6925   6941     1  0.0000000  1.0460000  1
   6926   6924   6925   6941     1  0.0000000  0.0000000  3
   6926   6924   6925   6928     1  0.0000000  0.6508444  3
   6926   6924   6930   6936     1  0.0000000  0.6973333  3
   6926   6924   6923   6931     1  0.0000000  1.0460000  1
   6926   6924   6923   6931     1  0.0000000  0.0000000  3
   6926   6924   6923   6927     1  0.0000000  0.6508444  3
   6927   6923   6924   6930     1  0.0000000  1.0460000  1
   6927   6923   6924   6930     1  0.0000000  0.0000000  3
   6927   6923   6931   6934     1  0.0000000  0.6973333  3
   6927   6923   6920   6932     1  0.0000000  1.0460000  1
   6927   6923   6920   6932     1  0.0000000  0.0000000  3
   6928   6925   6924   6930     1  0.0000000  0.6508444  3
   6937   6933   6939   6940     1  0.0000000  0.6973333  3
   6937   6933   6919   6941     1  0.0000000  1.0460000  1
   6937   6933   6919   6941     1  0.0000000  0.0000000  3
   6938   6933   6939   6940     1  0.0000000  0.6973333  3
   6938   6933   6919   6941     1  0.0000000  1.0460000  1
   6938   6933   6919   6941     1  0.0000000  0.0000000  3
   6942   6943   6946   6950     1  0.0000000  0.6508444  3
   6942   6943   6955   6958     1  0.0000000  1.0460000  1
   6942   6943   6955   6958     1  0.0000000  0.6694400  3
   6942   6956   6962   6963     1  0.0000000  1.0460000  1
   6942   6956   6962   6963     1  0.0000000  0.6694400  3
   6942   6964   6948   6951     1  0.0000000  1.6038667  3
   6943   6942   6956   6960     1  0.0000000  0.6508444  3
   6943   6942   6956   6961     1  0.0000000  0.6508444  3
   6943   6946   6947   6949     1  0.0000000  0.6508444  3
   6943   6946   6954   6957     1  0.0000000  1.0460000  1
   6943   6946   6954   6957     1  0.0000000  0.6694400  3
   6944   6942   6943   6946     1  0.0000000  0.6508444  3
   6944   6942   6943   6955     1  0.0000000  1.0460000  1
   6944   6942   6943   6955     1  0.0000000  0.0000000  3
   6944   6942   6943   6945     1  0.0000000  0.6508444  3
   6944   6942   6956   6962     1  0.0000000  1.0460000  1
   6944   6942   6956   6962     1  0.0000000  0.0000000  3
   6944   6942   6956   6960     1  0.0000000  0.6508444  3
   6944   6942   6956   6961     1  0.0000000  0.6508444  3
   6944   6942   6964   6948     1  0.0000000  1.6038667  3
   6945   6943   6942   6956     1  0.0000000  0.6508444  3
   6945   6943   6942   6964     1  0.0000000  1.0460000  1
   6945   6943   6942   6964     1  0.0000000  0.0000000  3
   6945   6943   6946   6947     1  0.0000000  0.6508444  3
   6945   6943   6946   6954     1  0.0000000  1.0460000  1
   6945   6943   6946   6954     1  0.0000000  0.0000000  3
   6945   6943   6946   6950     1  0.0000000  0.6508444  3
   6945   6943   6955   6958     1  0.0000000  0.6973333  3
   6946   6943   6955   6958     1  0.0000000  1.0460000  1
   6946   6943   6955   6958     1  0.0000000  0.6694400  3
   6946   6947   6948   6951     1  0.0000000  0.6508444  3
   6946   6947   6953   6959     1  0.0000000  1.0460000  1
   6946   6947   6953   6959     1  0.0000000  0.6694400  3
   6947   6946   6954   6957     1  0.0000000  1.0460000  1
   6947   6946   6954   6957     1  0.0000000  0.6694400  3
   6948   6947   6946   6950     1  0.0000000  0.6508444  3
   6948   6947   6953   6959     1  0.0000000  1.0460000  1
   6948   6947   6953   6959     1  0.0000000  0.6694400  3
   6949   6947   6946   6954     1  0.0000000  1.0460000  1
   6949   6947   6946   6954     1  0.0000000  0.0000000  3
   6949   6947   6946   6950     1  0.0000000  0.6508444  3
   6949   6947   6948   6952     1  0.0000000  1.0460000  1
   6949   6947   6948   6952     1  0.0000000  0.0000000  3
   6949   6947   6948   6964     1  0.0000000  1.0460000  1
   6949   6947   6948   6964     1  0.0000000  0.0000000  3
   6949   6947   6948   6951     1  0.0000000  0.6508444  3
   6949   6947   6953   6959     1  0.0000000  0.6973333  3
   6950   6946   6943   6955     1  0.0000000  1.0460000  1
   6950   6946   6943   6955     1  0.0000000  0.0000000  3
   6950   6946   6947   6953     1  0.0000000  1.0460000  1
   6950   6946   6947   6953     1  0.0000000  0.0000000  3
   6950   6946   6954   6957     1  0.0000000  0.6973333  3
   6951   6948   6947   6953     1  0.0000000  0.6508444  3
   6960   6956   6942   6964     1  0.0000000  1.0460000  1
   6960   6956   6942   6964     1  0.0000000  0.0000000  3
   6960   6956   6962   6963     1  0.0000000  0.6973333  3
   6961   6956   6942   6964     1  0.0000000  1.0460000  1
   6961   6956   6942   6964     1  0.0000000  0.0000000  3
   6961   6956   6962   6963     1  0.0000000  0.6973333  3
   6965   6966   6969   6973     1  0.0000000  0.6508444  3
   6965   6966   6978   6981     1  0.0000000  1.0460000  1
   6965   6966   6978   6981     1  0.0000000  0.6694400  3
   6965   6979   6985   6986     1  0.0000000  1.0460000  1
   6965   6979   6985   6986     1  0.0000000  0.6694400  3
   6965   6987   6971   6974     1  0.0000000  1.6038667  3
   6966   6969   6970   6972     1  0.0000000  0.6508444  3
   6966   6969   6977   6980     1  0.0000000  1.0460000  1
   6966   6969   6977   6980     1  0.0000000  0.6694400  3
   6966   6965   6979   6983     1  0.0000000  0.6508444  3
   6966   6965   6979   6984     1  0.0000000  0.6508444  3
   6967   6965   6966   6969     1  0.0000000  0.6508444  3
   6967   6965   6966   6978     1  0.0000000  1.0460000  1
   6967   6965   6966   6978     1  0.0000000  0.0000000  3
   6967   6965   6966   6968     1  0.0000000  0.6508444  3
   6967   6965   6979   6985     1  0.0000000  1.0460000  1
   6967   6965   6979   6985     1  0.0000000  0.0000000  3
   6967   6965   6979   6983     1  0.0000000  0.6508444  3
   6967   6965   6979   6984     1  0.0000000  0.6508444  3
   6967   6965   6987   6971     1  0.0000000  1.6038667  3
   6968   6966   6969   6970     1  0.0000000  0.6508444  3
   6968   6966   6969   6977     1  0.0000000  1.0460000  1
   6968   6966   6969   6977     1  0.0000000  0.0000000  3
   6968   6966   6969   6973     1  0.0000000  0.6508444  3
   6968   6966   6978   6981     1  0.0000000  0.6973333  3
   6968   6966   6965   6979     1  0.0000000  0.6508444  3
   6968   6966   6965   6987     1  0.0000000  1.0460000  1
   6968   6966   6965   6987     1  0.0000000  0.0000000  3
   6969   6970   6971   6974     1  0.0000000  0.6508444  3
   6969   6970   6976   6982     1  0.0000000  1.0460000  1
   6969   6970   6976   6982     1  0.0000000  0.6694400  3
   6969   6966   6978   6981     1  0.0000000  1.0460000  1
   6969   6966   6978   6981     1  0.0000000  0.6694400  3
   6970   6969   6977   6980     1  0.0000000  1.0460000  1
   6970   6969   6977   6980     1  0.0000000  0.6694400  3
   6971   6970   6976   6982     1  0.0000000  1.0460000  1
   6971   6970   6976   6982     1  0.0000000  0.6694400  3
   6971   6970   6969   6973     1  0.0000000  0.6508444  3
   6972   6970   6971   6975     1  0.0000000  1.0460000  1
   6972   6970   6971   6975     1  0.0000000  0.0000000  3
   6972   6970   6971   6987     1  0.0000000  1.0460000  1
   6972   6970   6971   6987     1  0.0000000  0.0000000  3
   6972   6970   6971   6974     1  0.0000000  0.6508444  3
   6972   6970   6976   6982     1  0.0000000  0.6973333  3
   6972   6970   6969   6977     1  0.0000000  1.0460000  1
   6972   6970   6969   6977     1  0.0000000  0.0000000  3
   6972   6970   6969   6973     1  0.0000000  0.6508444  3
   6973   6969   6970   6976     1  0.0000000  1.0460000  1
   6973   6969   6970   6976     1  0.0000000  0.0000000  3
   6973   6969   6977   6980     1  0.0000000  0.6973333  3
   6973   6969   6966   6978     1  0.0000000  1.0460000  1
   6973   6969   6966   6978     1  0.0000000  0.0000000  3
   6974   6971   6970   6976     1  0.0000000  0.6508444  3
   6983   6979   6985   6986     1  0.0000000  0.6973333  3
   6983   6979   6965   6987     1  0.0000000  1.0460000  1
   6983   6979   6965   6987     1  0.0000000  0.0000000  3
   6984   6979   6985   6986     1  0.0000000  0.6973333  3
   6984   6979   6965   6987     1  0.0000000  1.0460000  1
   6984   6979   6965   6987     1  0.0000000  0.0000000  3
   6988   6989   6992   6996     1  0.0000000  0.6508444  3
   6988   6989   7001   7004     1  0.0000000  1.0460000  1
   6988   6989   7001   7004     1  0.0000000  0.6694400  3
   6988   7002   7008   7009     1  0.0000000  1.0460000  1
   6988   7002   7008   7009     1  0.0000000  0.6694400  3
   6988   7010   6994   6997     1  0.0000000  1.6038667  3
   6989   6988   7002   7006     1  0.0000000  0.6508444  3
   6989   6988   7002   7007     1  0.0000000  0.6508444  3
   6989   6992   6993   6995     1  0.0000000  0.6508444  3
   6989   6992   7000   7003     1  0.0000000  1.0460000  1
   6989   6992   7000   7003     1  0.0000000  0.6694400  3
   6990   6988   6989   6992     1  0.0000000  0.6508444  3
   6990   6988   6989   7001     1  0.0000000  1.0460000  1
   6990   6988   6989   7001     1  0.0000000  0.0000000  3
   6990   6988   6989   6991     1  0.0000000  0.6508444  3
   6990   6988   7002   7008     1  0.0000000  1.0460000  1
   6990   6988   7002   7008     1  0.0000000  0.0000000  3
   6990   6988   7002   7006     1  0.0000000  0.6508444  3
   6990   6988   7002   7007     1  0.0000000  0.6508444  3
   6990   6988   7010   6994     1  0.0000000  1.6038667  3
   6991   6989   6988   7002     1  0.0000000  0.6508444  3
   6991   6989   6988   7010     1  0.0000000  1.0460000  1
   6991   6989   6988   7010     1  0.0000000  0.0000000  3
   6991   6989   6992   6993     1  0.0000000  0.6508444  3
   6991   6989   6992   7000     1  0.0000000  1.0460000  1
   6991   6989   6992   7000     1  0.0000000  0.0000000  3
   6991   6989   6992   6996     1  0.0000000  0.6508444  3
   6991   6989   7001   7004     1  0.0000000  0.6973333  3
   6992   6989   7001   7004     1  0.0000000  1.0460000  1
   6992   6989   7001   7004     1  0.0000000  0.6694400  3
   6992   6993   6994   6997     1  0.0000000  0.6508444  3
   6992   6993   6999   7005     1  0.0000000  1.0460000  1
   6992   6993   6999   7005     1  0.0000000  0.6694400  3
   6993   6992   7000   7003     1  0.0000000  1.0460000  1
   6993   6992   7000   7003     1  0.0000000  0.6694400  3
   6994   6993   6992   6996     1  0.0000000  0.6508444  3
   6994   6993   6999   7005     1  0.0000000  1.0460000  1
   6994   6993   6999   7005     1  0.0000000  0.6694400  3
   6995   6993   6992   7000     1  0.0000000  1.0460000  1
   6995   6993   6992   7000     1  0.0000000  0.0000000  3
   6995   6993   6992   6996     1  0.0000000  0.6508444  3
   6995   6993   6994   6998     1  0.0000000  1.0460000  1
   6995   6993   6994   6998     1  0.0000000  0.0000000  3
   6995   6993   6994   7010     1  0.0000000  1.0460000  1
   6995   6993   6994   7010     1  0.0000000  0.0000000  3
   6995   6993   6994   6997     1  0.0000000  0.6508444  3
   6995   6993   6999   7005     1  0.0000000  0.6973333  3
   6996   6992   6989   7001     1  0.0000000  1.0460000  1
   6996   6992   6989   7001     1  0.0000000  0.0000000  3
   6996   6992   6993   6999     1  0.0000000  1.0460000  1
   6996   6992   6993   6999     1  0.0000000  0.0000000  3
   6996   6992   7000   7003     1  0.0000000  0.6973333  3
   6997   6994   6993   6999     1  0.0000000  0.6508444  3
   7006   7002   6988   7010     1  0.0000000  1.0460000  1
   7006   7002   6988   7010     1  0.0000000  0.0000000  3
   7006   7002   7008   7009     1  0.0000000  0.6973333  3
   7007   7002   6988   7010     1  0.0000000  1.0460000  1
   7007   7002   6988   7010     1  0.0000000  0.0000000  3
   7007   7002   7008   7009     1  0.0000000  0.6973333  3
   7011   7012   7015   7019     1  0.0000000  0.6508444  3
   7011   7012   7024   7027     1  0.0000000  1.0460000  1
   7011   7012   7024   7027     1  0.0000000  0.6694400  3
   7011   7025   7031   7032     1  0.0000000  1.0460000  1
   7011   7025   7031   7032     1  0.0000000  0.6694400  3
   7011   7033   7017   7020     1  0.0000000  1.6038667  3
   7012   7015   7016   7018     1  0.0000000  0.6508444  3
   7012   7015   7023   7026     1  0.0000000  1.0460000  1
   7012   7015   7023   7026     1  0.0000000  0.6694400  3
   7012   7011   7025   7029     1  0.0000000  0.6508444  3
   7012   7011   7025   7030     1  0.0000000  0.6508444  3
   7013   7011   7012   7015     1  0.0000000  0.6508444  3
   7013   7011   7012   7024     1  0.0000000  1.0460000  1
   7013   7011   7012   7024     1  0.0000000  0.0000000  3
   7013   7011   7012   7014     1  0.0000000  0.6508444  3
   7013   7011   7025   7031     1  0.0000000  1.0460000  1
   7013   7011   7025   7031     1  0.0000000  0.0000000  3
   7013   7011   7025   7029     1  0.0000000  0.6508444  3
   7013   7011   7025   7030     1  0.0000000  0.6508444  3
   7013   7011   7033   7017     1  0.0000000  1.6038667  3
   7014   7012   7015   7016     1  0.0000000  0.6508444  3
   7014   7012   7015   7023     1  0.0000000  1.0460000  1
   7014   7012   7015   7023     1  0.0000000  0.0000000  3
   7014   7012   7015   7019     1  0.0000000  0.6508444  3
   7014   7012   7024   7027     1  0.0000000  0.6973333  3
   7014   7012   7011   7025     1  0.0000000  0.6508444  3
   7014   7012   7011   7033     1  0.0000000  1.0460000  1
   7014   7012   7011   7033     1  0.0000000  0.0000000  3
   7015   7016   7017   7020     1  0.0000000  0.6508444  3
   7015   7016   7022   7028     1  0.0000000  1.0460000  1
   7015   7016   7022   7028     1  0.0000000  0.6694400  3
   7015   7012   7024   7027     1  0.0000000  1.0460000  1
   7015   7012   7024   7027     1  0.0000000  0.6694400  3
   7016   7015   7023   7026     1  0.0000000  1.0460000  1
   7016   7015   7023   7026     1  0.0000000  0.6694400  3
   7017   7016   7022   7028     1  0.0000000  1.0460000  1
   7017   7016   7022   7028     1  0.0000000  0.6694400  3
   7017   7016   7015   7019     1  0.0000000  0.6508444  3
   7018   7016   7017   7021     1  0.0000000  1.0460000  1
   7018   7016   7017   7021     1  0.0000000  0.0000000  3
   7018   7016   7017   7033     1  0.0000000  1.0460000  1
   7018   7016   7017   7033     1  0.0000000  0.0000000  3
   7018   7016   7017   7020     1  0.0000000  0.6508444  3
   7018   7016   7022   7028     1  0.0000000  0.6973333  3
   7018   7016   7015   7023     1  0.0000000  1.0460000  1
   7018   7016   7015   7023     1  0.0000000  0.0000000  3
   7018   7016   7015   7019     1  0.0000000  0.6508444  3
   7019   7015   7016   7022     1  0.0000000  1.0460000  1
   7019   7015   7016   7022     1  0.0000000  0.0000000  3
   7019   7015   7023   7026     1  0.0000000  0.6973333  3
   7019   7015   7012   7024     1  0.0000000  1.0460000  1
   7019   7015   7012   7024     1  0.0000000  0.0000000  3
   7020   7017   7016   7022     1  0.0000000  0.6508444  3
   7029   7025   7031   7032     1  0.0000000  0.6973333  3
   7029   7025   7011   7033     1  0.0000000  1.0460000  1
   7029   7025   7011   7033     1  0.0000000  0.0000000  3
   7030   7025   7031   7032     1  0.0000000  0.6973333  3
   7030   7025   7011   7033     1  0.0000000  1.0460000  1
   7030   7025   7011   7033     1  0.0000000  0.0000000  3
   7034   7035   7038   7042     1  0.0000000  0.6508444  3
   7034   7035   7047   7050     1  0.0000000  1.0460000  1
   7034   7035   7047   7050     1  0.0000000  0.6694400  3
   7034   7048   7054   7055     1  0.0000000  1.0460000  1
   7034   7048   7054   7055     1  0.0000000  0.6694400  3
   7034   7056   7040   7043     1  0.0000000  1.6038667  3
   7035   7034   7048   7052     1  0.0000000  0.6508444  3
   7035   7034   7048   7053     1  0.0000000  0.6508444  3
   7035   7038   7039   7041     1  0.0000000  0.6508444  3
   7035   7038   7046   7049     1  0.0000000  1.0460000  1
   7035   7038   7046   7049     1  0.0000000  0.6694400  3
   7036   7034   7035   7038     1  0.0000000  0.6508444  3
   7036   7034   7035   7047     1  0.0000000  1.0460000  1
   7036   7034   7035   7047     1  0.0000000  0.0000000  3
   7036   7034   7035   7037     1  0.0000000  0.6508444  3
   7036   7034   7048   7054     1  0.0000000  1.0460000  1
   7036   7034   7048   7054     1  0.0000000  0.0000000  3
   7036   7034   7048   7052     1  0.0000000  0.6508444  3
   7036   7034   7048   7053     1  0.0000000  0.6508444  3
   7036   7034   7056   7040     1  0.0000000  1.6038667  3
   7037   7035   7034   7048     1  0.0000000  0.6508444  3
   7037   7035   7034   7056     1  0.0000000  1.0460000  1
   7037   7035   7034   7056     1  0.0000000  0.0000000  3
   7037   7035   7038   7039     1  0.0000000  0.6508444  3
   7037   7035   7038   7046     1  0.0000000  1.0460000  1
   7037   7035   7038   7046     1  0.0000000  0.0000000  3
   7037   7035   7038   7042     1  0.0000000  0.6508444  3
   7037   7035   7047   7050     1  0.0000000  0.6973333  3
   7038   7035   7047   7050     1  0.0000000  1.0460000  1
   7038   7035   7047   7050     1  0.0000000  0.6694400  3
   7038   7039   7040   7043     1  0.0000000  0.6508444  3
   7038   7039   7045   7051     1  0.0000000  1.0460000  1
   7038   7039   7045   7051     1  0.0000000  0.6694400  3
   7039   7038   7046   7049     1  0.0000000  1.0460000  1
   7039   7038   7046   7049     1  0.0000000  0.6694400  3
   7040   7039   7038   7042     1  0.0000000  0.6508444  3
   7040   7039   7045   7051     1  0.0000000  1.0460000  1
   7040   7039   7045   7051     1  0.0000000  0.6694400  3
   7041   7039   7038   7046     1  0.0000000  1.0460000  1
   7041   7039   7038   7046     1  0.0000000  0.0000000  3
   7041   7039   7038   7042     1  0.0000000  0.6508444  3
   7041   7039   7040   7044     1  0.0000000  1.0460000  1
   7041   7039   7040   7044     1  0.0000000  0.0000000  3
   7041   7039   7040   7056     1  0.0000000  1.0460000  1
   7041   7039   7040   7056     1  0.0000000  0.0000000  3
   7041   7039   7040   7043     1  0.0000000  0.6508444  3
   7041   7039   7045   7051     1  0.0000000  0.6973333  3
   7042   7038   7035   7047     1  0.0000000  1.0460000  1
   7042   7038   7035   7047     1  0.0000000  0.0000000  3
   7042   7038   7039   7045     1  0.0000000  1.0460000  1
   7042   7038   7039   7045     1  0.0000000  0.0000000  3
   7042   7038   7046   7049     1  0.0000000  0.6973333  3
   7043   7040   7039   7045     1  0.0000000  0.6508444  3
   7052   7048   7034   7056     1  0.0000000  1.0460000  1
   7052   7048   7034   7056     1  0.0000000  0.0000000  3
   7052   7048   7054   7055     1  0.0000000  0.6973333  3
   7053   7048   7034   7056     1  0.0000000  1.0460000  1
   7053   7048   7034   7056     1  0.0000000  0.0000000  3
   7053   7048   7054   7055     1  0.0000000  0.6973333  3
   7057   7058   7061   7065     1  0.0000000  0.6508444  3
   7057   7058   7070   7073     1  0.0000000  1.0460000  1
   7057   7058   7070   7073     1  0.0000000  0.6694400  3
   7057   7071   7077   7078     1  0.0000000  1.0460000  1
   7057   7071   7077   7078     1  0.0000000  0.6694400  3
   7057   7079   7063   7066     1  0.0000000  1.6038667  3
   7058   7061   7062   7064     1  0.0000000  0.6508444  3
   7058   7061   7069   7072     1  0.0000000  1.0460000  1
   7058   7061   7069   7072     1  0.0000000  0.6694400  3
   7058   7057   7071   7075     1  0.0000000  0.6508444  3
   7058   7057   7071   7076     1  0.0000000  0.6508444  3
   7059   7057   7058   7061     1  0.0000000  0.6508444  3
   7059   7057   7058   7070     1  0.0000000  1.0460000  1
   7059   7057   7058   7070     1  0.0000000  0.0000000  3
   7059   7057   7058   7060     1  0.0000000  0.6508444  3
   7059   7057   7071   7077     1  0.0000000  1.0460000  1
   7059   7057   7071   7077     1  0.0000000  0.0000000  3
   7059   7057   7071   7075     1  0.0000000  0.6508444  3
   7059   7057   7071   7076     1  0.0000000  0.6508444  3
   7059   7057   7079   7063     1  0.0000000  1.6038667  3
   7060   7058   7061   7062     1  0.0000000  0.6508444  3
   7060   7058   7061   7069     1  0.0000000  1.0460000  1
   7060   7058   7061   7069     1  0.0000000  0.0000000  3
   7060   7058   7061   7065     1  0.0000000  0.6508444  3
   7060   7058   7070   7073     1  0.0000000  0.6973333  3
   7060   7058   7057   7071     1  0.0000000  0.6508444  3
   7060   7058   7057   7079     1  0.0000000  1.0460000  1
   7060   7058   7057   7079     1  0.0000000  0.0000000  3
   7061   7062   7063   7066     1  0.0000000  0.6508444  3
   7061   7062   7068   7074     1  0.0000000  1.0460000  1
   7061   7062   7068   7074     1  0.0000000  0.6694400  3
   7061   7058   7070   7073     1  0.0000000  1.0460000  1
   7061   7058   7070   7073     1  0.0000000  0.6694400  3
   7062   7061   7069   7072     1  0.0000000  1.0460000  1
   7062   7061   7069   7072     1  0.0000000  0.6694400  3
   7063   7062   7068   7074     1  0.0000000  1.0460000  1
   7063   7062   7068   7074     1  0.0000000  0.6694400  3
   7063   7062   7061   7065     1  0.0000000  0.6508444  3
   7064   7062   7063   7067     1  0.0000000  1.0460000  1
   7064   7062   7063   7067     1  0.0000000  0.0000000  3
   7064   7062   7063   7079     1  0.0000000  1.0460000  1
   7064   7062   7063   7079     1  0.0000000  0.0000000  3
   7064   7062   7063   7066     1  0.0000000  0.6508444  3
   7064   7062   7068   7074     1  0.0000000  0.6973333  3
   7064   7062   7061   7069     1  0.0000000  1.0460000  1
   7064   7062   7061   7069     1  0.0000000  0.0000000  3
   7064   7062   7061   7065     1  0.0000000  0.6508444  3
   7065   7061   7062   7068     1  0.0000000  1.0460000  1
   7065   7061   7062   7068     1  0.0000000  0.0000000  3
   7065   7061   7069   7072     1  0.0000000  0.6973333  3
   7065   7061   7058   7070     1  0.0000000  1.0460000  1
   7065   7061   7058   7070     1  0.0000000  0.0000000  3
   7066   7063   7062   7068     1  0.0000000  0.6508444  3
   7075   7071   7077   7078     1  0.0000000  0.6973333  3
   7075   7071   7057   7079     1  0.0000000  1.0460000  1
   7075   7071   7057   7079     1  0.0000000  0.0000000  3
   7076   7071   7077   7078     1  0.0000000  0.6973333  3
   7076   7071   7057   7079     1  0.0000000  1.0460000  1
   7076   7071   7057   7079     1  0.0000000  0.0000000  3
   7080   7081   7084   7088     1  0.0000000  0.6508444  3
   7080   7081   7093   7096     1  0.0000000  1.0460000  1
   7080   7081   7093   7096     1  0.0000000  0.6694400  3
   7080   7094   7100   7101     1  0.0000000  1.0460000  1
   7080   7094   7100   7101     1  0.0000000  0.6694400  3
   7080   7102   7086   7089     1  0.0000000  1.6038667  3
   7081   7080   7094   7098     1  0.0000000  0.6508444  3
   7081   7080   7094   7099     1  0.0000000  0.6508444  3
   7081   7084   7085   7087     1  0.0000000  0.6508444  3
   7081   7084   7092   7095     1  0.0000000  1.0460000  1
   7081   7084   7092   7095     1  0.0000000  0.6694400  3
   7082   7080   7081   7084     1  0.0000000  0.6508444  3
   7082   7080   7081   7093     1  0.0000000  1.0460000  1
   7082   7080   7081   7093     1  0.0000000  0.0000000  3
   7082   7080   7081   7083     1  0.0000000  0.6508444  3
   7082   7080   7094   7100     1  0.0000000  1.0460000  1
   7082   7080   7094   7100     1  0.0000000  0.0000000  3
   7082   7080   7094   7098     1  0.0000000  0.6508444  3
   7082   7080   7094   7099     1  0.0000000  0.6508444  3
   7082   7080   7102   7086     1  0.0000000  1.6038667  3
   7083   7081   7080   7094     1  0.0000000  0.6508444  3
   7083   7081   7080   7102     1  0.0000000  1.0460000  1
   7083   7081   7080   7102     1  0.0000000  0.0000000  3
   7083   7081   7084   7085     1  0.0000000  0.6508444  3
   7083   7081   7084   7092     1  0.0000000  1.0460000  1
   7083   7081   7084   7092     1  0.0000000  0.0000000  3
   7083   7081   7084   7088     1  0.0000000  0.6508444  3
   7083   7081   7093   7096     1  0.0000000  0.6973333  3
   7084   7081   7093   7096     1  0.0000000  1.0460000  1
   7084   7081   7093   7096     1  0.0000000  0.6694400  3
   7084   7085   7086   7089     1  0.0000000  0.6508444  3
   7084   7085   7091   7097     1  0.0000000  1.0460000  1
   7084   7085   7091   7097     1  0.0000000  0.6694400  3
   7085   7084   7092   7095     1  0.0000000  1.0460000  1
   7085   7084   7092   7095     1  0.0000000  0.6694400  3
   7086   7085   7084   7088     1  0.0000000  0.6508444  3
   7086   7085   7091   7097     1  0.0000000  1.0460000  1
   7086   7085   7091   7097     1  0.0000000  0.6694400  3
   7087   7085   7084   7092     1  0.0000000  1.0460000  1
   7087   7085   7084   7092     1  0.0000000  0.0000000  3
   7087   7085   7084   7088     1  0.0000000  0.6508444  3
   7087   7085   7086   7090     1  0.0000000  1.0460000  1
   7087   7085   7086   7090     1  0.0000000  0.0000000  3
   7087   7085   7086   7102     1  0.0000000  1.0460000  1
   7087   7085   7086   7102     1  0.0000000  0.0000000  3
   7087   7085   7086   7089     1  0.0000000  0.6508444  3
   7087   7085   7091   7097     1  0.0000000  0.6973333  3
   7088   7084   7081   7093     1  0.0000000  1.0460000  1
   7088   7084   7081   7093     1  0.0000000  0.0000000  3
   7088   7084   7085   7091     1  0.0000000  1.0460000  1
   7088   7084   7085   7091     1  0.0000000  0.0000000  3
   7088   7084   7092   7095     1  0.0000000  0.6973333  3
   7089   7086   7085   7091     1  0.0000000  0.6508444  3
   7098   7094   7080   7102     1  0.0000000  1.0460000  1
   7098   7094   7080   7102     1  0.0000000  0.0000000  3
   7098   7094   7100   7101     1  0.0000000  0.6973333  3
   7099   7094   7080   7102     1  0.0000000  1.0460000  1
   7099   7094   7080   7102     1  0.0000000  0.0000000  3
   7099   7094   7100   7101     1  0.0000000  0.6973333  3
   7103   7104   7107   7111     1  0.0000000  0.6508444  3
   7103   7104   7116   7119     1  0.0000000  1.0460000  1
   7103   7104   7116   7119     1  0.0000000  0.6694400  3
   7103   7117   7123   7124     1  0.0000000  1.0460000  1
   7103   7117   7123   7124     1  0.0000000  0.6694400  3
   7103   7125   7109   7112     1  0.0000000  1.6038667  3
   7104   7107   7108   7110     1  0.0000000  0.6508444  3
   7104   7107   7115   7118     1  0.0000000  1.0460000  1
   7104   7107   7115   7118     1  0.0000000  0.6694400  3
   7104   7103   7117   7121     1  0.0000000  0.6508444  3
   7104   7103   7117   7122     1  0.0000000  0.6508444  3
   7105   7103   7104   7107     1  0.0000000  0.6508444  3
   7105   7103   7104   7116     1  0.0000000  1.0460000  1
   7105   7103   7104   7116     1  0.0000000  0.0000000  3
   7105   7103   7104   7106     1  0.0000000  0.6508444  3
   7105   7103   7117   7123     1  0.0000000  1.0460000  1
   7105   7103   7117   7123     1  0.0000000  0.0000000  3
   7105   7103   7117   7121     1  0.0000000  0.6508444  3
   7105   7103   7117   7122     1  0.0000000  0.6508444  3
   7105   7103   7125   7109     1  0.0000000  1.6038667  3
   7106   7104   7107   7108     1  0.0000000  0.6508444  3
   7106   7104   7107   7115     1  0.0000000  1.0460000  1
   7106   7104   7107   7115     1  0.0000000  0.0000000  3
   7106   7104   7107   7111     1  0.0000000  0.6508444  3
   7106   7104   7116   7119     1  0.0000000  0.6973333  3
   7106   7104   7103   7117     1  0.0000000  0.6508444  3
   7106   7104   7103   7125     1  0.0000000  1.0460000  1
   7106   7104   7103   7125     1  0.0000000  0.0000000  3
   7107   7108   7109   7112     1  0.0000000  0.6508444  3
   7107   7108   7114   7120     1  0.0000000  1.0460000  1
   7107   7108   7114   7120     1  0.0000000  0.6694400  3
   7107   7104   7116   7119     1  0.0000000  1.0460000  1
   7107   7104   7116   7119     1  0.0000000  0.6694400  3
   7108   7107   7115   7118     1  0.0000000  1.0460000  1
   7108   7107   7115   7118     1  0.0000000  0.6694400  3
   7109   7108   7114   7120     1  0.0000000  1.0460000  1
   7109   7108   7114   7120     1  0.0000000  0.6694400  3
   7109   7108   7107   7111     1  0.0000000  0.6508444  3
   7110   7108   7109   7113     1  0.0000000  1.0460000  1
   7110   7108   7109   7113     1  0.0000000  0.0000000  3
   7110   7108   7109   7125     1  0.0000000  1.0460000  1
   7110   7108   7109   7125     1  0.0000000  0.0000000  3
   7110   7108   7109   7112     1  0.0000000  0.6508444  3
   7110   7108   7114   7120     1  0.0000000  0.6973333  3
   7110   7108   7107   7115     1  0.0000000  1.0460000  1
   7110   7108   7107   7115     1  0.0000000  0.0000000  3
   7110   7108   7107   7111     1  0.0000000  0.6508444  3
   7111   7107   7108   7114     1  0.0000000  1.0460000  1
   7111   7107   7108   7114     1  0.0000000  0.0000000  3
   7111   7107   7115   7118     1  0.0000000  0.6973333  3
   7111   7107   7104   7116     1  0.0000000  1.0460000  1
   7111   7107   7104   7116     1  0.0000000  0.0000000  3
   7112   7109   7108   7114     1  0.0000000  0.6508444  3
   7121   7117   7123   7124     1  0.0000000  0.6973333  3
   7121   7117   7103   7125     1  0.0000000  1.0460000  1
   7121   7117   7103   7125     1  0.0000000  0.0000000  3
   7122   7117   7123   7124     1  0.0000000  0.6973333  3
   7122   7117   7103   7125     1  0.0000000  1.0460000  1
   7122   7117   7103   7125     1  0.0000000  0.0000000  3
   7126   7127   7130   7134     1  0.0000000  0.6508444  3
   7126   7127   7139   7142     1  0.0000000  1.0460000  1
   7126   7127   7139   7142     1  0.0000000  0.6694400  3
   7126   7140   7146   7147     1  0.0000000  1.0460000  1
   7126   7140   7146   7147     1  0.0000000  0.6694400  3
   7126   7148   7132   7135     1  0.0000000  1.6038667  3
   7127   7126   7140   7144     1  0.0000000  0.6508444  3
   7127   7126   7140   7145     1  0.0000000  0.6508444  3
   7127   7130   7131   7133     1  0.0000000  0.6508444  3
   7127   7130   7138   7141     1  0.0000000  1.0460000  1
   7127   7130   7138   7141     1  0.0000000  0.6694400  3
   7128   7126   7127   7130     1  0.0000000  0.6508444  3
   7128   7126   7127   7139     1  0.0000000  1.0460000  1
   7128   7126   7127   7139     1  0.0000000  0.0000000  3
   7128   7126   7127   7129     1  0.0000000  0.6508444  3
   7128   7126   7140   7146     1  0.0000000  1.0460000  1
   7128   7126   7140   7146     1  0.0000000  0.0000000  3
   7128   7126   7140   7144     1  0.0000000  0.6508444  3
   7128   7126   7140   7145     1  0.0000000  0.6508444  3
   7128   7126   7148   7132     1  0.0000000  1.6038667  3
   7129   7127   7126   7140     1  0.0000000  0.6508444  3
   7129   7127   7126   7148     1  0.0000000  1.0460000  1
   7129   7127   7126   7148     1  0.0000000  0.0000000  3
   7129   7127   7130   7131     1  0.0000000  0.6508444  3
   7129   7127   7130   7138     1  0.0000000  1.0460000  1
   7129   7127   7130   7138     1  0.0000000  0.0000000  3
   7129   7127   7130   7134     1  0.0000000  0.6508444  3
   7129   7127   7139   7142     1  0.0000000  0.6973333  3
   7130   7127   7139   7142     1  0.0000000  1.0460000  1
   7130   7127   7139   7142     1  0.0000000  0.6694400  3
   7130   7131   7132   7135     1  0.0000000  0.6508444  3
   7130   7131   7137   7143     1  0.0000000  1.0460000  1
   7130   7131   7137   7143     1  0.0000000  0.6694400  3
   7131   7130   7138   7141     1  0.0000000  1.0460000  1
   7131   7130   7138   7141     1  0.0000000  0.6694400  3
   7132   7131   7130   7134     1  0.0000000  0.6508444  3
   7132   7131   7137   7143     1  0.0000000  1.0460000  1
   7132   7131   7137   7143     1  0.0000000  0.6694400  3
   7133   7131   7130   7138     1  0.0000000  1.0460000  1
   7133   7131   7130   7138     1  0.0000000  0.0000000  3
   7133   7131   7130   7134     1  0.0000000  0.6508444  3
   7133   7131   7132   7136     1  0.0000000  1.0460000  1
   7133   7131   7132   7136     1  0.0000000  0.0000000  3
   7133   7131   7132   7148     1  0.0000000  1.0460000  1
   7133   7131   7132   7148     1  0.0000000  0.0000000  3
   7133   7131   7132   7135     1  0.0000000  0.6508444  3
   7133   7131   7137   7143     1  0.0000000  0.6973333  3
   7134   7130   7127   7139     1  0.0000000  1.0460000  1
   7134   7130   7127   7139     1  0.0000000  0.0000000  3
   7134   7130   7131   7137     1  0.0000000  1.0460000  1
   7134   7130   7131   7137     1  0.0000000  0.0000000  3
   7134   7130   7138   7141     1  0.0000000  0.6973333  3
   7135   7132   7131   7137     1  0.0000000  0.6508444  3
   7144   7140   7126   7148     1  0.0000000  1.0460000  1
   7144   7140   7126   7148     1  0.0000000  0.0000000  3
   7144   7140   7146   7147     1  0.0000000  0.6973333  3
   7145   7140   7126   7148     1  0.0000000  1.0460000  1
   7145   7140   7126   7148     1  0.0000000  0.0000000  3
   7145   7140   7146   7147     1  0.0000000  0.6973333  3
   7149   7150   7153   7157     1  0.0000000  0.6508444  3
   7149   7150   7162   7165     1  0.0000000  1.0460000  1
   7149   7150   7162   7165     1  0.0000000  0.6694400  3
   7149   7163   7169   7170     1  0.0000000  1.0460000  1
   7149   7163   7169   7170     1  0.0000000  0.6694400  3
   7149   7171   7155   7158     1  0.0000000  1.6038667  3
   7150   7153   7154   7156     1  0.0000000  0.6508444  3
   7150   7153   7161   7164     1  0.0000000  1.0460000  1
   7150   7153   7161   7164     1  0.0000000  0.6694400  3
   7150   7149   7163   7167     1  0.0000000  0.6508444  3
   7150   7149   7163   7168     1  0.0000000  0.6508444  3
   7151   7149   7150   7153     1  0.0000000  0.6508444  3
   7151   7149   7150   7162     1  0.0000000  1.0460000  1
   7151   7149   7150   7162     1  0.0000000  0.0000000  3
   7151   7149   7150   7152     1  0.0000000  0.6508444  3
   7151   7149   7163   7169     1  0.0000000  1.0460000  1
   7151   7149   7163   7169     1  0.0000000  0.0000000  3
   7151   7149   7163   7167     1  0.0000000  0.6508444  3
   7151   7149   7163   7168     1  0.0000000  0.6508444  3
   7151   7149   7171   7155     1  0.0000000  1.6038667  3
   7152   7150   7153   7154     1  0.0000000  0.6508444  3
   7152   7150   7153   7161     1  0.0000000  1.0460000  1
   7152   7150   7153   7161     1  0.0000000  0.0000000  3
   7152   7150   7153   7157     1  0.0000000  0.6508444  3
   7152   7150   7162   7165     1  0.0000000  0.6973333  3
   7152   7150   7149   7163     1  0.0000000  0.6508444  3
   7152   7150   7149   7171     1  0.0000000  1.0460000  1
   7152   7150   7149   7171     1  0.0000000  0.0000000  3
   7153   7154   7155   7158     1  0.0000000  0.6508444  3
   7153   7154   7160   7166     1  0.0000000  1.0460000  1
   7153   7154   7160   7166     1  0.0000000  0.6694400  3
   7153   7150   7162   7165     1  0.0000000  1.0460000  1
   7153   7150   7162   7165     1  0.0000000  0.6694400  3
   7154   7153   7161   7164     1  0.0000000  1.0460000  1
   7154   7153   7161   7164     1  0.0000000  0.6694400  3
   7155   7154   7160   7166     1  0.0000000  1.0460000  1
   7155   7154   7160   7166     1  0.0000000  0.6694400  3
   7155   7154   7153   7157     1  0.0000000  0.6508444  3
   7156   7154   7155   7159     1  0.0000000  1.0460000  1
   7156   7154   7155   7159     1  0.0000000  0.0000000  3
   7156   7154   7155   7171     1  0.0000000  1.0460000  1
   7156   7154   7155   7171     1  0.0000000  0.0000000  3
   7156   7154   7155   7158     1  0.0000000  0.6508444  3
   7156   7154   7160   7166     1  0.0000000  0.6973333  3
   7156   7154   7153   7161     1  0.0000000  1.0460000  1
   7156   7154   7153   7161     1  0.0000000  0.0000000  3
   7156   7154   7153   7157     1  0.0000000  0.6508444  3
   7157   7153   7154   7160     1  0.0000000  1.0460000  1
   7157   7153   7154   7160     1  0.0000000  0.0000000  3
   7157   7153   7161   7164     1  0.0000000  0.6973333  3
   7157   7153   7150   7162     1  0.0000000  1.0460000  1
   7157   7153   7150   7162     1  0.0000000  0.0000000  3
   7158   7155   7154   7160     1  0.0000000  0.6508444  3
   7167   7163   7169   7170     1  0.0000000  0.6973333  3
   7167   7163   7149   7171     1  0.0000000  1.0460000  1
   7167   7163   7149   7171     1  0.0000000  0.0000000  3
   7168   7163   7169   7170     1  0.0000000  0.6973333  3
   7168   7163   7149   7171     1  0.0000000  1.0460000  1
   7168   7163   7149   7171     1  0.0000000  0.0000000  3
   7172   7173   7176   7180     1  0.0000000  0.6508444  3
   7172   7173   7185   7188     1  0.0000000  1.0460000  1
   7172   7173   7185   7188     1  0.0000000  0.6694400  3
   7172   7186   7192   7193     1  0.0000000  1.0460000  1
   7172   7186   7192   7193     1  0.0000000  0.6694400  3
   7172   7194   7178   7181     1  0.0000000  1.6038667  3
   7173   7172   7186   7190     1  0.0000000  0.6508444  3
   7173   7172   7186   7191     1  0.0000000  0.6508444  3
   7173   7176   7177   7179     1  0.0000000  0.6508444  3
   7173   7176   7184   7187     1  0.0000000  1.0460000  1
   7173   7176   7184   7187     1  0.0000000  0.6694400  3
   7174   7172   7173   7176     1  0.0000000  0.6508444  3
   7174   7172   7173   7185     1  0.0000000  1.0460000  1
   7174   7172   7173   7185     1  0.0000000  0.0000000  3
   7174   7172   7173   7175     1  0.0000000  0.6508444  3
   7174   7172   7186   7192     1  0.0000000  1.0460000  1
   7174   7172   7186   7192     1  0.0000000  0.0000000  3
   7174   7172   7186   7190     1  0.0000000  0.6508444  3
   7174   7172   7186   7191     1  0.0000000  0.6508444  3
   7174   7172   7194   7178     1  0.0000000  1.6038667  3
   7175   7173   7172   7186     1  0.0000000  0.6508444  3
   7175   7173   7172   7194     1  0.0000000  1.0460000  1
   7175   7173   7172   7194     1  0.0000000  0.0000000  3
   7175   7173   7176   7177     1  0.0000000  0.6508444  3
   7175   7173   7176   7184     1  0.0000000  1.0460000  1
   7175   7173   7176   7184     1  0.0000000  0.0000000  3
   7175   7173   7176   7180     1  0.0000000  0.6508444  3
   7175   7173   7185   7188     1  0.0000000  0.6973333  3
   7176   7173   7185   7188     1  0.0000000  1.0460000  1
   7176   7173   7185   7188     1  0.0000000  0.6694400  3
   7176   7177   7178   7181     1  0.0000000  0.6508444  3
   7176   7177   7183   7189     1  0.0000000  1.0460000  1
   7176   7177   7183   7189     1  0.0000000  0.6694400  3
   7177   7176   7184   7187     1  0.0000000  1.0460000  1
   7177   7176   7184   7187     1  0.0000000  0.6694400  3
   7178   7177   7176   7180     1  0.0000000  0.6508444  3
   7178   7177   7183   7189     1  0.0000000  1.0460000  1
   7178   7177   7183   7189     1  0.0000000  0.6694400  3
   7179   7177   7176   7184     1  0.0000000  1.0460000  1
   7179   7177   7176   7184     1  0.0000000  0.0000000  3
   7179   7177   7176   7180     1  0.0000000  0.6508444  3
   7179   7177   7178   7182     1  0.0000000  1.0460000  1
   7179   7177   7178   7182     1  0.0000000  0.0000000  3
   7179   7177   7178   7194     1  0.0000000  1.0460000  1
   7179   7177   7178   7194     1  0.0000000  0.0000000  3
   7179   7177   7178   7181     1  0.0000000  0.6508444  3
   7179   7177   7183   7189     1  0.0000000  0.6973333  3
   7180   7176   7173   7185     1  0.0000000  1.0460000  1
   7180   7176   7173   7185     1  0.0000000  0.0000000  3
   7180   7176   7177   7183     1  0.0000000  1.0460000  1
   7180   7176   7177   7183     1  0.0000000  0.0000000  3
   7180   7176   7184   7187     1  0.0000000  0.6973333  3
   7181   7178   7177   7183     1  0.0000000  0.6508444  3
   7190   7186   7172   7194     1  0.0000000  1.0460000  1
   7190   7186   7172   7194     1  0.0000000  0.0000000  3
   7190   7186   7192   7193     1  0.0000000  0.6973333  3
   7191   7186   7172   7194     1  0.0000000  1.0460000  1
   7191   7186   7172   7194     1  0.0000000  0.0000000  3
   7191   7186   7192   7193     1  0.0000000  0.6973333  3
   7195   7196   7199   7203     1  0.0000000  0.6508444  3
   7195   7196   7208   7211     1  0.0000000  1.0460000  1
   7195   7196   7208   7211     1  0.0000000  0.6694400  3
   7195   7209   7215   7216     1  0.0000000  1.0460000  1
   7195   7209   7215   7216     1  0.0000000  0.6694400  3
   7195   7217   7201   7204     1  0.0000000  1.6038667  3
   7196   7199   7200   7202     1  0.0000000  0.6508444  3
   7196   7199   7207   7210     1  0.0000000  1.0460000  1
   7196   7199   7207   7210     1  0.0000000  0.6694400  3
   7196   7195   7209   7213     1  0.0000000  0.6508444  3
   7196   7195   7209   7214     1  0.0000000  0.6508444  3
   7197   7195   7196   7199     1  0.0000000  0.6508444  3
   7197   7195   7196   7208     1  0.0000000  1.0460000  1
   7197   7195   7196   7208     1  0.0000000  0.0000000  3
   7197   7195   7196   7198     1  0.0000000  0.6508444  3
   7197   7195   7209   7215     1  0.0000000  1.0460000  1
   7197   7195   7209   7215     1  0.0000000  0.0000000  3
   7197   7195   7209   7213     1  0.0000000  0.6508444  3
   7197   7195   7209   7214     1  0.0000000  0.6508444  3
   7197   7195   7217   7201     1  0.0000000  1.6038667  3
   7198   7196   7199   7200     1  0.0000000  0.6508444  3
   7198   7196   7199   7207     1  0.0000000  1.0460000  1
   7198   7196   7199   7207     1  0.0000000  0.0000000  3
   7198   7196   7199   7203     1  0.0000000  0.6508444  3
   7198   7196   7208   7211     1  0.0000000  0.6973333  3
   7198   7196   7195   7209     1  0.0000000  0.6508444  3
   7198   7196   7195   7217     1  0.0000000  1.0460000  1
   7198   7196   7195   7217     1  0.0000000  0.0000000  3
   7199   7200   7201   7204     1  0.0000000  0.6508444  3
   7199   7200   7206   7212     1  0.0000000  1.0460000  1
   7199   7200   7206   7212     1  0.0000000  0.6694400  3
   7199   7196   7208   7211     1  0.0000000  1.0460000  1
   7199   7196   7208   7211     1  0.0000000  0.6694400  3
   7200   7199   7207   7210     1  0.0000000  1.0460000  1
   7200   7199   7207   7210     1  0.0000000  0.6694400  3
   7201   7200   7206   7212     1  0.0000000  1.0460000  1
   7201   7200   7206   7212     1  0.0000000  0.6694400  3
   7201   7200   7199   7203     1  0.0000000  0.6508444  3
   7202   7200   7201   7205     1  0.0000000  1.0460000  1
   7202   7200   7201   7205     1  0.0000000  0.0000000  3
   7202   7200   7201   7217     1  0.0000000  1.0460000  1
   7202   7200   7201   7217     1  0.0000000  0.0000000  3
   7202   7200   7201   7204     1  0.0000000  0.6508444  3
   7202   7200   7206   7212     1  0.0000000  0.6973333  3
   7202   7200   7199   7207     1  0.0000000  1.0460000  1
   7202   7200   7199   7207     1  0.0000000  0.0000000  3
   7202   7200   7199   7203     1  0.0000000  0.6508444  3
   7203   7199   7200   7206     1  0.0000000  1.0460000  1
   7203   7199   7200   7206     1  0.0000000  0.0000000  3
   7203   7199   7207   7210     1  0.0000000  0.6973333  3
   7203   7199   7196   7208     1  0.0000000  1.0460000  1
   7203   7199   7196   7208     1  0.0000000  0.0000000  3
   7204   7201   7200   7206     1  0.0000000  0.6508444  3
   7213   7209   7215   7216     1  0.0000000  0.6973333  3
   7213   7209   7195   7217     1  0.0000000  1.0460000  1
   7213   7209   7195   7217     1  0.0000000  0.0000000  3
   7214   7209   7215   7216     1  0.0000000  0.6973333  3
   7214   7209   7195   7217     1  0.0000000  1.0460000  1
   7214   7209   7195   7217     1  0.0000000  0.0000000  3
   7218   7219   7222   7226     1  0.0000000  0.6508444  3
   7218   7219   7231   7234     1  0.0000000  1.0460000  1
   7218   7219   7231   7234     1  0.0000000  0.6694400  3
   7218   7232   7238   7239     1  0.0000000  1.0460000  1
   7218   7232   7238   7239     1  0.0000000  0.6694400  3
   7218   7240   7224   7227     1  0.0000000  1.6038667  3
   7219   7218   7232   7236     1  0.0000000  0.6508444  3
   7219   7218   7232   7237     1  0.0000000  0.6508444  3
   7219   7222   7223   7225     1  0.0000000  0.6508444  3
   7219   7222   7230   7233     1  0.0000000  1.0460000  1
   7219   7222   7230   7233     1  0.0000000  0.6694400  3
   7220   7218   7219   7222     1  0.0000000  0.6508444  3
   7220   7218   7219   7231     1  0.0000000  1.0460000  1
   7220   7218   7219   7231     1  0.0000000  0.0000000  3
   7220   7218   7219   7221     1  0.0000000  0.6508444  3
   7220   7218   7232   7238     1  0.0000000  1.0460000  1
   7220   7218   7232   7238     1  0.0000000  0.0000000  3
   7220   7218   7232   7236     1  0.0000000  0.6508444  3
   7220   7218   7232   7237     1  0.0000000  0.6508444  3
   7220   7218   7240   7224     1  0.0000000  1.6038667  3
   7221   7219   7218   7232     1  0.0000000  0.6508444  3
   7221   7219   7218   7240     1  0.0000000  1.0460000  1
   7221   7219   7218   7240     1  0.0000000  0.0000000  3
   7221   7219   7222   7223     1  0.0000000  0.6508444  3
   7221   7219   7222   7230     1  0.0000000  1.0460000  1
   7221   7219   7222   7230     1  0.0000000  0.0000000  3
   7221   7219   7222   7226     1  0.0000000  0.6508444  3
   7221   7219   7231   7234     1  0.0000000  0.6973333  3
   7222   7219   7231   7234     1  0.0000000  1.0460000  1
   7222   7219   7231   7234     1  0.0000000  0.6694400  3
   7222   7223   7224   7227     1  0.0000000  0.6508444  3
   7222   7223   7229   7235     1  0.0000000  1.0460000  1
   7222   7223   7229   7235     1  0.0000000  0.6694400  3
   7223   7222   7230   7233     1  0.0000000  1.0460000  1
   7223   7222   7230   7233     1  0.0000000  0.6694400  3
   7224   7223   7222   7226     1  0.0000000  0.6508444  3
   7224   7223   7229   7235     1  0.0000000  1.0460000  1
   7224   7223   7229   7235     1  0.0000000  0.6694400  3
   7225   7223   7222   7230     1  0.0000000  1.0460000  1
   7225   7223   7222   7230     1  0.0000000  0.0000000  3
   7225   7223   7222   7226     1  0.0000000  0.6508444  3
   7225   7223   7224   7228     1  0.0000000  1.0460000  1
   7225   7223   7224   7228     1  0.0000000  0.0000000  3
   7225   7223   7224   7240     1  0.0000000  1.0460000  1
   7225   7223   7224   7240     1  0.0000000  0.0000000  3
   7225   7223   7224   7227     1  0.0000000  0.6508444  3
   7225   7223   7229   7235     1  0.0000000  0.6973333  3
   7226   7222   7219   7231     1  0.0000000  1.0460000  1
   7226   7222   7219   7231     1  0.0000000  0.0000000  3
   7226   7222   7223   7229     1  0.0000000  1.0460000  1
   7226   7222   7223   7229     1  0.0000000  0.0000000  3
   7226   7222   7230   7233     1  0.0000000  0.6973333  3
   7227   7224   7223   7229     1  0.0000000  0.6508444  3
   7236   7232   7218   7240     1  0.0000000  1.0460000  1
   7236   7232   7218   7240     1  0.0000000  0.0000000  3
   7236   7232   7238   7239     1  0.0000000  0.6973333  3
   7237   7232   7218   7240     1  0.0000000  1.0460000  1
   7237   7232   7218   7240     1  0.0000000  0.0000000  3
   7237   7232   7238   7239     1  0.0000000  0.6973333  3
   7241   7242   7245   7249     1  0.0000000  0.6508444  3
   7241   7242   7254   7257     1  0.0000000  1.0460000  1
   7241   7242   7254   7257     1  0.0000000  0.6694400  3
   7241   7255   7261   7262     1  0.0000000  1.0460000  1
   7241   7255   7261   7262     1  0.0000000  0.6694400  3
   7241   7263   7247   7250     1  0.0000000  1.6038667  3
   7242   7245   7246   7248     1  0.0000000  0.6508444  3
   7242   7245   7253   7256     1  0.0000000  1.0460000  1
   7242   7245   7253   7256     1  0.0000000  0.6694400  3
   7242   7241   7255   7259     1  0.0000000  0.6508444  3
   7242   7241   7255   7260     1  0.0000000  0.6508444  3
   7243   7241   7242   7245     1  0.0000000  0.6508444  3
   7243   7241   7242   7254     1  0.0000000  1.0460000  1
   7243   7241   7242   7254     1  0.0000000  0.0000000  3
   7243   7241   7242   7244     1  0.0000000  0.6508444  3
   7243   7241   7255   7261     1  0.0000000  1.0460000  1
   7243   7241   7255   7261     1  0.0000000  0.0000000  3
   7243   7241   7255   7259     1  0.0000000  0.6508444  3
   7243   7241   7255   7260     1  0.0000000  0.6508444  3
   7243   7241   7263   7247     1  0.0000000  1.6038667  3
   7244   7242   7245   7246     1  0.0000000  0.6508444  3
   7244   7242   7245   7253     1  0.0000000  1.0460000  1
   7244   7242   7245   7253     1  0.0000000  0.0000000  3
   7244   7242   7245   7249     1  0.0000000  0.6508444  3
   7244   7242   7254   7257     1  0.0000000  0.6973333  3
   7244   7242   7241   7255     1  0.0000000  0.6508444  3
   7244   7242   7241   7263     1  0.0000000  1.0460000  1
   7244   7242   7241   7263     1  0.0000000  0.0000000  3
   7245   7246   7247   7250     1  0.0000000  0.6508444  3
   7245   7246   7252   7258     1  0.0000000  1.0460000  1
   7245   7246   7252   7258     1  0.0000000  0.6694400  3
   7245   7242   7254   7257     1  0.0000000  1.0460000  1
   7245   7242   7254   7257     1  0.0000000  0.6694400  3
   7246   7245   7253   7256     1  0.0000000  1.0460000  1
   7246   7245   7253   7256     1  0.0000000  0.6694400  3
   7247   7246   7252   7258     1  0.0000000  1.0460000  1
   7247   7246   7252   7258     1  0.0000000  0.6694400  3
   7247   7246   7245   7249     1  0.0000000  0.6508444  3
   7248   7246   7247   7251     1  0.0000000  1.0460000  1
   7248   7246   7247   7251     1  0.0000000  0.0000000  3
   7248   7246   7247   7263     1  0.0000000  1.0460000  1
   7248   7246   7247   7263     1  0.0000000  0.0000000  3
   7248   7246   7247   7250     1  0.0000000  0.6508444  3
   7248   7246   7252   7258     1  0.0000000  0.6973333  3
   7248   7246   7245   7253     1  0.0000000  1.0460000  1
   7248   7246   7245   7253     1  0.0000000  0.0000000  3
   7248   7246   7245   7249     1  0.0000000  0.6508444  3
   7249   7245   7246   7252     1  0.0000000  1.0460000  1
   7249   7245   7246   7252     1  0.0000000  0.0000000  3
   7249   7245   7253   7256     1  0.0000000  0.6973333  3
   7249   7245   7242   7254     1  0.0000000  1.0460000  1
   7249   7245   7242   7254     1  0.0000000  0.0000000  3
   7250   7247   7246   7252     1  0.0000000  0.6508444  3
   7259   7255   7261   7262     1  0.0000000  0.6973333  3
   7259   7255   7241   7263     1  0.0000000  1.0460000  1
   7259   7255   7241   7263     1  0.0000000  0.0000000  3
   7260   7255   7261   7262     1  0.0000000  0.6973333  3
   7260   7255   7241   7263     1  0.0000000  1.0460000  1
   7260   7255   7241   7263     1  0.0000000  0.0000000  3
   7264   7265   7268   7272     1  0.0000000  0.6508444  3
   7264   7265   7277   7280     1  0.0000000  1.0460000  1
   7264   7265   7277   7280     1  0.0000000  0.6694400  3
   7264   7278   7284   7285     1  0.0000000  1.0460000  1
   7264   7278   7284   7285     1  0.0000000  0.6694400  3
   7264   7286   7270   7273     1  0.0000000  1.6038667  3
   7265   7264   7278   7282     1  0.0000000  0.6508444  3
   7265   7264   7278   7283     1  0.0000000  0.6508444  3
   7265   7268   7269   7271     1  0.0000000  0.6508444  3
   7265   7268   7276   7279     1  0.0000000  1.0460000  1
   7265   7268   7276   7279     1  0.0000000  0.6694400  3
   7266   7264   7265   7268     1  0.0000000  0.6508444  3
   7266   7264   7265   7277     1  0.0000000  1.0460000  1
   7266   7264   7265   7277     1  0.0000000  0.0000000  3
   7266   7264   7265   7267     1  0.0000000  0.6508444  3
   7266   7264   7278   7284     1  0.0000000  1.0460000  1
   7266   7264   7278   7284     1  0.0000000  0.0000000  3
   7266   7264   7278   7282     1  0.0000000  0.6508444  3
   7266   7264   7278   7283     1  0.0000000  0.6508444  3
   7266   7264   7286   7270     1  0.0000000  1.6038667  3
   7267   7265   7264   7278     1  0.0000000  0.6508444  3
   7267   7265   7264   7286     1  0.0000000  1.0460000  1
   7267   7265   7264   7286     1  0.0000000  0.0000000  3
   7267   7265   7268   7269     1  0.0000000  0.6508444  3
   7267   7265   7268   7276     1  0.0000000  1.0460000  1
   7267   7265   7268   7276     1  0.0000000  0.0000000  3
   7267   7265   7268   7272     1  0.0000000  0.6508444  3
   7267   7265   7277   7280     1  0.0000000  0.6973333  3
   7268   7265   7277   7280     1  0.0000000  1.0460000  1
   7268   7265   7277   7280     1  0.0000000  0.6694400  3
   7268   7269   7270   7273     1  0.0000000  0.6508444  3
   7268   7269   7275   7281     1  0.0000000  1.0460000  1
   7268   7269   7275   7281     1  0.0000000  0.6694400  3
   7269   7268   7276   7279     1  0.0000000  1.0460000  1
   7269   7268   7276   7279     1  0.0000000  0.6694400  3
   7270   7269   7268   7272     1  0.0000000  0.6508444  3
   7270   7269   7275   7281     1  0.0000000  1.0460000  1
   7270   7269   7275   7281     1  0.0000000  0.6694400  3
   7271   7269   7268   7276     1  0.0000000  1.0460000  1
   7271   7269   7268   7276     1  0.0000000  0.0000000  3
   7271   7269   7268   7272     1  0.0000000  0.6508444  3
   7271   7269   7270   7274     1  0.0000000  1.0460000  1
   7271   7269   7270   7274     1  0.0000000  0.0000000  3
   7271   7269   7270   7286     1  0.0000000  1.0460000  1
   7271   7269   7270   7286     1  0.0000000  0.0000000  3
   7271   7269   7270   7273     1  0.0000000  0.6508444  3
   7271   7269   7275   7281     1  0.0000000  0.6973333  3
   7272   7268   7265   7277     1  0.0000000  1.0460000  1
   7272   7268   7265   7277     1  0.0000000  0.0000000  3
   7272   7268   7269   7275     1  0.0000000  1.0460000  1
   7272   7268   7269   7275     1  0.0000000  0.0000000  3
   7272   7268   7276   7279     1  0.0000000  0.6973333  3
   7273   7270   7269   7275     1  0.0000000  0.6508444  3
   7282   7278   7264   7286     1  0.0000000  1.0460000  1
   7282   7278   7264   7286     1  0.0000000  0.0000000  3
   7282   7278   7284   7285     1  0.0000000  0.6973333  3
   7283   7278   7264   7286     1  0.0000000  1.0460000  1
   7283   7278   7264   7286     1  0.0000000  0.0000000  3
   7283   7278   7284   7285     1  0.0000000  0.6973333  3
   7287   7288   7291   7295     1  0.0000000  0.6508444  3
   7287   7288   7300   7303     1  0.0000000  1.0460000  1
   7287   7288   7300   7303     1  0.0000000  0.6694400  3
   7287   7301   7307   7308     1  0.0000000  1.0460000  1
   7287   7301   7307   7308     1  0.0000000  0.6694400  3
   7287   7309   7293   7296     1  0.0000000  1.6038667  3
   7288   7291   7292   7294     1  0.0000000  0.6508444  3
   7288   7291   7299   7302     1  0.0000000  1.0460000  1
   7288   7291   7299   7302     1  0.0000000  0.6694400  3
   7288   7287   7301   7305     1  0.0000000  0.6508444  3
   7288   7287   7301   7306     1  0.0000000  0.6508444  3
   7289   7287   7288   7291     1  0.0000000  0.6508444  3
   7289   7287   7288   7300     1  0.0000000  1.0460000  1
   7289   7287   7288   7300     1  0.0000000  0.0000000  3
   7289   7287   7288   7290     1  0.0000000  0.6508444  3
   7289   7287   7301   7307     1  0.0000000  1.0460000  1
   7289   7287   7301   7307     1  0.0000000  0.0000000  3
   7289   7287   7301   7305     1  0.0000000  0.6508444  3
   7289   7287   7301   7306     1  0.0000000  0.6508444  3
   7289   7287   7309   7293     1  0.0000000  1.6038667  3
   7290   7288   7291   7292     1  0.0000000  0.6508444  3
   7290   7288   7291   7299     1  0.0000000  1.0460000  1
   7290   7288   7291   7299     1  0.0000000  0.0000000  3
   7290   7288   7291   7295     1  0.0000000  0.6508444  3
   7290   7288   7300   7303     1  0.0000000  0.6973333  3
   7290   7288   7287   7301     1  0.0000000  0.6508444  3
   7290   7288   7287   7309     1  0.0000000  1.0460000  1
   7290   7288   7287   7309     1  0.0000000  0.0000000  3
   7291   7292   7293   7296     1  0.0000000  0.6508444  3
   7291   7292   7298   7304     1  0.0000000  1.0460000  1
   7291   7292   7298   7304     1  0.0000000  0.6694400  3
   7291   7288   7300   7303     1  0.0000000  1.0460000  1
   7291   7288   7300   7303     1  0.0000000  0.6694400  3
   7292   7291   7299   7302     1  0.0000000  1.0460000  1
   7292   7291   7299   7302     1  0.0000000  0.6694400  3
   7293   7292   7298   7304     1  0.0000000  1.0460000  1
   7293   7292   7298   7304     1  0.0000000  0.6694400  3
   7293   7292   7291   7295     1  0.0000000  0.6508444  3
   7294   7292   7293   7297     1  0.0000000  1.0460000  1
   7294   7292   7293   7297     1  0.0000000  0.0000000  3
   7294   7292   7293   7309     1  0.0000000  1.0460000  1
   7294   7292   7293   7309     1  0.0000000  0.0000000  3
   7294   7292   7293   7296     1  0.0000000  0.6508444  3
   7294   7292   7298   7304     1  0.0000000  0.6973333  3
   7294   7292   7291   7299     1  0.0000000  1.0460000  1
   7294   7292   7291   7299     1  0.0000000  0.0000000  3
   7294   7292   7291   7295     1  0.0000000  0.6508444  3
   7295   7291   7292   7298     1  0.0000000  1.0460000  1
   7295   7291   7292   7298     1  0.0000000  0.0000000  3
   7295   7291   7299   7302     1  0.0000000  0.6973333  3
   7295   7291   7288   7300     1  0.0000000  1.0460000  1
   7295   7291   7288   7300     1  0.0000000  0.0000000  3
   7296   7293   7292   7298     1  0.0000000  0.6508444  3
   7305   7301   7307   7308     1  0.0000000  0.6973333  3
   7305   7301   7287   7309     1  0.0000000  1.0460000  1
   7305   7301   7287   7309     1  0.0000000  0.0000000  3
   7306   7301   7307   7308     1  0.0000000  0.6973333  3
   7306   7301   7287   7309     1  0.0000000  1.0460000  1
   7306   7301   7287   7309     1  0.0000000  0.0000000  3
   7310   7311   7314   7318     1  0.0000000  0.6508444  3
   7310   7311   7323   7326     1  0.0000000  1.0460000  1
   7310   7311   7323   7326     1  0.0000000  0.6694400  3
   7310   7324   7330   7331     1  0.0000000  1.0460000  1
   7310   7324   7330   7331     1  0.0000000  0.6694400  3
   7310   7332   7316   7319     1  0.0000000  1.6038667  3
   7311   7310   7324   7328     1  0.0000000  0.6508444  3
   7311   7310   7324   7329     1  0.0000000  0.6508444  3
   7311   7314   7315   7317     1  0.0000000  0.6508444  3
   7311   7314   7322   7325     1  0.0000000  1.0460000  1
   7311   7314   7322   7325     1  0.0000000  0.6694400  3
   7312   7310   7311   7314     1  0.0000000  0.6508444  3
   7312   7310   7311   7323     1  0.0000000  1.0460000  1
   7312   7310   7311   7323     1  0.0000000  0.0000000  3
   7312   7310   7311   7313     1  0.0000000  0.6508444  3
   7312   7310   7324   7330     1  0.0000000  1.0460000  1
   7312   7310   7324   7330     1  0.0000000  0.0000000  3
   7312   7310   7324   7328     1  0.0000000  0.6508444  3
   7312   7310   7324   7329     1  0.0000000  0.6508444  3
   7312   7310   7332   7316     1  0.0000000  1.6038667  3
   7313   7311   7310   7324     1  0.0000000  0.6508444  3
   7313   7311   7310   7332     1  0.0000000  1.0460000  1
   7313   7311   7310   7332     1  0.0000000  0.0000000  3
   7313   7311   7314   7315     1  0.0000000  0.6508444  3
   7313   7311   7314   7322     1  0.0000000  1.0460000  1
   7313   7311   7314   7322     1  0.0000000  0.0000000  3
   7313   7311   7314   7318     1  0.0000000  0.6508444  3
   7313   7311   7323   7326     1  0.0000000  0.6973333  3
   7314   7311   7323   7326     1  0.0000000  1.0460000  1
   7314   7311   7323   7326     1  0.0000000  0.6694400  3
   7314   7315   7316   7319     1  0.0000000  0.6508444  3
   7314   7315   7321   7327     1  0.0000000  1.0460000  1
   7314   7315   7321   7327     1  0.0000000  0.6694400  3
   7315   7314   7322   7325     1  0.0000000  1.0460000  1
   7315   7314   7322   7325     1  0.0000000  0.6694400  3
   7316   7315   7314   7318     1  0.0000000  0.6508444  3
   7316   7315   7321   7327     1  0.0000000  1.0460000  1
   7316   7315   7321   7327     1  0.0000000  0.6694400  3
   7317   7315   7314   7322     1  0.0000000  1.0460000  1
   7317   7315   7314   7322     1  0.0000000  0.0000000  3
   7317   7315   7314   7318     1  0.0000000  0.6508444  3
   7317   7315   7316   7320     1  0.0000000  1.0460000  1
   7317   7315   7316   7320     1  0.0000000  0.0000000  3
   7317   7315   7316   7332     1  0.0000000  1.0460000  1
   7317   7315   7316   7332     1  0.0000000  0.0000000  3
   7317   7315   7316   7319     1  0.0000000  0.6508444  3
   7317   7315   7321   7327     1  0.0000000  0.6973333  3
   7318   7314   7311   7323     1  0.0000000  1.0460000  1
   7318   7314   7311   7323     1  0.0000000  0.0000000  3
   7318   7314   7315   7321     1  0.0000000  1.0460000  1
   7318   7314   7315   7321     1  0.0000000  0.0000000  3
   7318   7314   7322   7325     1  0.0000000  0.6973333  3
   7319   7316   7315   7321     1  0.0000000  0.6508444  3
   7328   7324   7310   7332     1  0.0000000  1.0460000  1
   7328   7324   7310   7332     1  0.0000000  0.0000000  3
   7328   7324   7330   7331     1  0.0000000  0.6973333  3
   7329   7324   7310   7332     1  0.0000000  1.0460000  1
   7329   7324   7310   7332     1  0.0000000  0.0000000  3
   7329   7324   7330   7331     1  0.0000000  0.6973333  3
   7333   7334   7337   7341     1  0.0000000  0.6508444  3
   7333   7334   7346   7349     1  0.0000000  1.0460000  1
   7333   7334   7346   7349     1  0.0000000  0.6694400  3
   7333   7347   7353   7354     1  0.0000000  1.0460000  1
   7333   7347   7353   7354     1  0.0000000  0.6694400  3
   7333   7355   7339   7342     1  0.0000000  1.6038667  3
   7334   7337   7338   7340     1  0.0000000  0.6508444  3
   7334   7337   7345   7348     1  0.0000000  1.0460000  1
   7334   7337   7345   7348     1  0.0000000  0.6694400  3
   7334   7333   7347   7351     1  0.0000000  0.6508444  3
   7334   7333   7347   7352     1  0.0000000  0.6508444  3
   7335   7333   7334   7337     1  0.0000000  0.6508444  3
   7335   7333   7334   7346     1  0.0000000  1.0460000  1
   7335   7333   7334   7346     1  0.0000000  0.0000000  3
   7335   7333   7334   7336     1  0.0000000  0.6508444  3
   7335   7333   7347   7353     1  0.0000000  1.0460000  1
   7335   7333   7347   7353     1  0.0000000  0.0000000  3
   7335   7333   7347   7351     1  0.0000000  0.6508444  3
   7335   7333   7347   7352     1  0.0000000  0.6508444  3
   7335   7333   7355   7339     1  0.0000000  1.6038667  3
   7336   7334   7337   7338     1  0.0000000  0.6508444  3
   7336   7334   7337   7345     1  0.0000000  1.0460000  1
   7336   7334   7337   7345     1  0.0000000  0.0000000  3
   7336   7334   7337   7341     1  0.0000000  0.6508444  3
   7336   7334   7346   7349     1  0.0000000  0.6973333  3
   7336   7334   7333   7347     1  0.0000000  0.6508444  3
   7336   7334   7333   7355     1  0.0000000  1.0460000  1
   7336   7334   7333   7355     1  0.0000000  0.0000000  3
   7337   7338   7339   7342     1  0.0000000  0.6508444  3
   7337   7338   7344   7350     1  0.0000000  1.0460000  1
   7337   7338   7344   7350     1  0.0000000  0.6694400  3
   7337   7334   7346   7349     1  0.0000000  1.0460000  1
   7337   7334   7346   7349     1  0.0000000  0.6694400  3
   7338   7337   7345   7348     1  0.0000000  1.0460000  1
   7338   7337   7345   7348     1  0.0000000  0.6694400  3
   7339   7338   7344   7350     1  0.0000000  1.0460000  1
   7339   7338   7344   7350     1  0.0000000  0.6694400  3
   7339   7338   7337   7341     1  0.0000000  0.6508444  3
   7340   7338   7339   7343     1  0.0000000  1.0460000  1
   7340   7338   7339   7343     1  0.0000000  0.0000000  3
   7340   7338   7339   7355     1  0.0000000  1.0460000  1
   7340   7338   7339   7355     1  0.0000000  0.0000000  3
   7340   7338   7339   7342     1  0.0000000  0.6508444  3
   7340   7338   7344   7350     1  0.0000000  0.6973333  3
   7340   7338   7337   7345     1  0.0000000  1.0460000  1
   7340   7338   7337   7345     1  0.0000000  0.0000000  3
   7340   7338   7337   7341     1  0.0000000  0.6508444  3
   7341   7337   7338   7344     1  0.0000000  1.0460000  1
   7341   7337   7338   7344     1  0.0000000  0.0000000  3
   7341   7337   7345   7348     1  0.0000000  0.6973333  3
   7341   7337   7334   7346     1  0.0000000  1.0460000  1
   7341   7337   7334   7346     1  0.0000000  0.0000000  3
   7342   7339   7338   7344     1  0.0000000  0.6508444  3
   7351   7347   7353   7354     1  0.0000000  0.6973333  3
   7351   7347   7333   7355     1  0.0000000  1.0460000  1
   7351   7347   7333   7355     1  0.0000000  0.0000000  3
   7352   7347   7353   7354     1  0.0000000  0.6973333  3
   7352   7347   7333   7355     1  0.0000000  1.0460000  1
   7352   7347   7333   7355     1  0.0000000  0.0000000  3
   7356   7357   7360   7364     1  0.0000000  0.6508444  3
   7356   7357   7369   7372     1  0.0000000  1.0460000  1
   7356   7357   7369   7372     1  0.0000000  0.6694400  3
   7356   7370   7376   7377     1  0.0000000  1.0460000  1
   7356   7370   7376   7377     1  0.0000000  0.6694400  3
   7356   7378   7362   7365     1  0.0000000  1.6038667  3
   7357   7356   7370   7374     1  0.0000000  0.6508444  3
   7357   7356   7370   7375     1  0.0000000  0.6508444  3
   7357   7360   7361   7363     1  0.0000000  0.6508444  3
   7357   7360   7368   7371     1  0.0000000  1.0460000  1
   7357   7360   7368   7371     1  0.0000000  0.6694400  3
   7358   7356   7357   7360     1  0.0000000  0.6508444  3
   7358   7356   7357   7369     1  0.0000000  1.0460000  1
   7358   7356   7357   7369     1  0.0000000  0.0000000  3
   7358   7356   7357   7359     1  0.0000000  0.6508444  3
   7358   7356   7370   7376     1  0.0000000  1.0460000  1
   7358   7356   7370   7376     1  0.0000000  0.0000000  3
   7358   7356   7370   7374     1  0.0000000  0.6508444  3
   7358   7356   7370   7375     1  0.0000000  0.6508444  3
   7358   7356   7378   7362     1  0.0000000  1.6038667  3
   7359   7357   7356   7370     1  0.0000000  0.6508444  3
   7359   7357   7356   7378     1  0.0000000  1.0460000  1
   7359   7357   7356   7378     1  0.0000000  0.0000000  3
   7359   7357   7360   7361     1  0.0000000  0.6508444  3
   7359   7357   7360   7368     1  0.0000000  1.0460000  1
   7359   7357   7360   7368     1  0.0000000  0.0000000  3
   7359   7357   7360   7364     1  0.0000000  0.6508444  3
   7359   7357   7369   7372     1  0.0000000  0.6973333  3
   7360   7357   7369   7372     1  0.0000000  1.0460000  1
   7360   7357   7369   7372     1  0.0000000  0.6694400  3
   7360   7361   7362   7365     1  0.0000000  0.6508444  3
   7360   7361   7367   7373     1  0.0000000  1.0460000  1
   7360   7361   7367   7373     1  0.0000000  0.6694400  3
   7361   7360   7368   7371     1  0.0000000  1.0460000  1
   7361   7360   7368   7371     1  0.0000000  0.6694400  3
   7362   7361   7360   7364     1  0.0000000  0.6508444  3
   7362   7361   7367   7373     1  0.0000000  1.0460000  1
   7362   7361   7367   7373     1  0.0000000  0.6694400  3
   7363   7361   7360   7368     1  0.0000000  1.0460000  1
   7363   7361   7360   7368     1  0.0000000  0.0000000  3
   7363   7361   7360   7364     1  0.0000000  0.6508444  3
   7363   7361   7362   7366     1  0.0000000  1.0460000  1
   7363   7361   7362   7366     1  0.0000000  0.0000000  3
   7363   7361   7362   7378     1  0.0000000  1.0460000  1
   7363   7361   7362   7378     1  0.0000000  0.0000000  3
   7363   7361   7362   7365     1  0.0000000  0.6508444  3
   7363   7361   7367   7373     1  0.0000000  0.6973333  3
   7364   7360   7357   7369     1  0.0000000  1.0460000  1
   7364   7360   7357   7369     1  0.0000000  0.0000000  3
   7364   7360   7361   7367     1  0.0000000  1.0460000  1
   7364   7360   7361   7367     1  0.0000000  0.0000000  3
   7364   7360   7368   7371     1  0.0000000  0.6973333  3
   7365   7362   7361   7367     1  0.0000000  0.6508444  3
   7374   7370   7356   7378     1  0.0000000  1.0460000  1
   7374   7370   7356   7378     1  0.0000000  0.0000000  3
   7374   7370   7376   7377     1  0.0000000  0.6973333  3
   7375   7370   7356   7378     1  0.0000000  1.0460000  1
   7375   7370   7356   7378     1  0.0000000  0.0000000  3
   7375   7370   7376   7377     1  0.0000000  0.6973333  3
   7379   7380   7383   7387     1  0.0000000  0.6508444  3
   7379   7380   7392   7395     1  0.0000000  1.0460000  1
   7379   7380   7392   7395     1  0.0000000  0.6694400  3
   7379   7393   7399   7400     1  0.0000000  1.0460000  1
   7379   7393   7399   7400     1  0.0000000  0.6694400  3
   7379   7401   7385   7388     1  0.0000000  1.6038667  3
   7380   7383   7384   7386     1  0.0000000  0.6508444  3
   7380   7383   7391   7394     1  0.0000000  1.0460000  1
   7380   7383   7391   7394     1  0.0000000  0.6694400  3
   7380   7379   7393   7397     1  0.0000000  0.6508444  3
   7380   7379   7393   7398     1  0.0000000  0.6508444  3
   7381   7379   7380   7383     1  0.0000000  0.6508444  3
   7381   7379   7380   7392     1  0.0000000  1.0460000  1
   7381   7379   7380   7392     1  0.0000000  0.0000000  3
   7381   7379   7380   7382     1  0.0000000  0.6508444  3
   7381   7379   7393   7399     1  0.0000000  1.0460000  1
   7381   7379   7393   7399     1  0.0000000  0.0000000  3
   7381   7379   7393   7397     1  0.0000000  0.6508444  3
   7381   7379   7393   7398     1  0.0000000  0.6508444  3
   7381   7379   7401   7385     1  0.0000000  1.6038667  3
   7382   7380   7383   7384     1  0.0000000  0.6508444  3
   7382   7380   7383   7391     1  0.0000000  1.0460000  1
   7382   7380   7383   7391     1  0.0000000  0.0000000  3
   7382   7380   7383   7387     1  0.0000000  0.6508444  3
   7382   7380   7392   7395     1  0.0000000  0.6973333  3
   7382   7380   7379   7393     1  0.0000000  0.6508444  3
   7382   7380   7379   7401     1  0.0000000  1.0460000  1
   7382   7380   7379   7401     1  0.0000000  0.0000000  3
   7383   7384   7385   7388     1  0.0000000  0.6508444  3
   7383   7384   7390   7396     1  0.0000000  1.0460000  1
   7383   7384   7390   7396     1  0.0000000  0.6694400  3
   7383   7380   7392   7395     1  0.0000000  1.0460000  1
   7383   7380   7392   7395     1  0.0000000  0.6694400  3
   7384   7383   7391   7394     1  0.0000000  1.0460000  1
   7384   7383   7391   7394     1  0.0000000  0.6694400  3
   7385   7384   7390   7396     1  0.0000000  1.0460000  1
   7385   7384   7390   7396     1  0.0000000  0.6694400  3
   7385   7384   7383   7387     1  0.0000000  0.6508444  3
   7386   7384   7385   7389     1  0.0000000  1.0460000  1
   7386   7384   7385   7389     1  0.0000000  0.0000000  3
   7386   7384   7385   7401     1  0.0000000  1.0460000  1
   7386   7384   7385   7401     1  0.0000000  0.0000000  3
   7386   7384   7385   7388     1  0.0000000  0.6508444  3
   7386   7384   7390   7396     1  0.0000000  0.6973333  3
   7386   7384   7383   7391     1  0.0000000  1.0460000  1
   7386   7384   7383   7391     1  0.0000000  0.0000000  3
   7386   7384   7383   7387     1  0.0000000  0.6508444  3
   7387   7383   7384   7390     1  0.0000000  1.0460000  1
   7387   7383   7384   7390     1  0.0000000  0.0000000  3
   7387   7383   7391   7394     1  0.0000000  0.6973333  3
   7387   7383   7380   7392     1  0.0000000  1.0460000  1
   7387   7383   7380   7392     1  0.0000000  0.0000000  3
   7388   7385   7384   7390     1  0.0000000  0.6508444  3
   7397   7393   7399   7400     1  0.0000000  0.6973333  3
   7397   7393   7379   7401     1  0.0000000  1.0460000  1
   7397   7393   7379   7401     1  0.0000000  0.0000000  3
   7398   7393   7399   7400     1  0.0000000  0.6973333  3
   7398   7393   7379   7401     1  0.0000000  1.0460000  1
   7398   7393   7379   7401     1  0.0000000  0.0000000  3
   7402   7403   7406   7410     1  0.0000000  0.6508444  3
   7402   7403   7415   7418     1  0.0000000  1.0460000  1
   7402   7403   7415   7418     1  0.0000000  0.6694400  3
   7402   7416   7422   7423     1  0.0000000  1.0460000  1
   7402   7416   7422   7423     1  0.0000000  0.6694400  3
   7402   7424   7408   7411     1  0.0000000  1.6038667  3
   7403   7402   7416   7420     1  0.0000000  0.6508444  3
   7403   7402   7416   7421     1  0.0000000  0.6508444  3
   7403   7406   7407   7409     1  0.0000000  0.6508444  3
   7403   7406   7414   7417     1  0.0000000  1.0460000  1
   7403   7406   7414   7417     1  0.0000000  0.6694400  3
   7404   7402   7403   7406     1  0.0000000  0.6508444  3
   7404   7402   7403   7415     1  0.0000000  1.0460000  1
   7404   7402   7403   7415     1  0.0000000  0.0000000  3
   7404   7402   7403   7405     1  0.0000000  0.6508444  3
   7404   7402   7416   7422     1  0.0000000  1.0460000  1
   7404   7402   7416   7422     1  0.0000000  0.0000000  3
   7404   7402   7416   7420     1  0.0000000  0.6508444  3
   7404   7402   7416   7421     1  0.0000000  0.6508444  3
   7404   7402   7424   7408     1  0.0000000  1.6038667  3
   7405   7403   7402   7416     1  0.0000000  0.6508444  3
   7405   7403   7402   7424     1  0.0000000  1.0460000  1
   7405   7403   7402   7424     1  0.0000000  0.0000000  3
   7405   7403   7406   7407     1  0.0000000  0.6508444  3
   7405   7403   7406   7414     1  0.0000000  1.0460000  1
   7405   7403   7406   7414     1  0.0000000  0.0000000  3
   7405   7403   7406   7410     1  0.0000000  0.6508444  3
   7405   7403   7415   7418     1  0.0000000  0.6973333  3
   7406   7403   7415   7418     1  0.0000000  1.0460000  1
   7406   7403   7415   7418     1  0.0000000  0.6694400  3
   7406   7407   7408   7411     1  0.0000000  0.6508444  3
   7406   7407   7413   7419     1  0.0000000  1.0460000  1
   7406   7407   7413   7419     1  0.0000000  0.6694400  3
   7407   7406   7414   7417     1  0.0000000  1.0460000  1
   7407   7406   7414   7417     1  0.0000000  0.6694400  3
   7408   7407   7406   7410     1  0.0000000  0.6508444  3
   7408   7407   7413   7419     1  0.0000000  1.0460000  1
   7408   7407   7413   7419     1  0.0000000  0.6694400  3
   7409   7407   7406   7414     1  0.0000000  1.0460000  1
   7409   7407   7406   7414     1  0.0000000  0.0000000  3
   7409   7407   7406   7410     1  0.0000000  0.6508444  3
   7409   7407   7408   7412     1  0.0000000  1.0460000  1
   7409   7407   7408   7412     1  0.0000000  0.0000000  3
   7409   7407   7408   7424     1  0.0000000  1.0460000  1
   7409   7407   7408   7424     1  0.0000000  0.0000000  3
   7409   7407   7408   7411     1  0.0000000  0.6508444  3
   7409   7407   7413   7419     1  0.0000000  0.6973333  3
   7410   7406   7403   7415     1  0.0000000  1.0460000  1
   7410   7406   7403   7415     1  0.0000000  0.0000000  3
   7410   7406   7407   7413     1  0.0000000  1.0460000  1
   7410   7406   7407   7413     1  0.0000000  0.0000000  3
   7410   7406   7414   7417     1  0.0000000  0.6973333  3
   7411   7408   7407   7413     1  0.0000000  0.6508444  3
   7420   7416   7402   7424     1  0.0000000  1.0460000  1
   7420   7416   7402   7424     1  0.0000000  0.0000000  3
   7420   7416   7422   7423     1  0.0000000  0.6973333  3
   7421   7416   7402   7424     1  0.0000000  1.0460000  1
   7421   7416   7402   7424     1  0.0000000  0.0000000  3
   7421   7416   7422   7423     1  0.0000000  0.6973333  3
   7425   7426   7429   7433     1  0.0000000  0.6508444  3
   7425   7426   7438   7441     1  0.0000000  1.0460000  1
   7425   7426   7438   7441     1  0.0000000  0.6694400  3
   7425   7439   7445   7446     1  0.0000000  1.0460000  1
   7425   7439   7445   7446     1  0.0000000  0.6694400  3
   7425   7447   7431   7434     1  0.0000000  1.6038667  3
   7426   7429   7430   7432     1  0.0000000  0.6508444  3
   7426   7429   7437   7440     1  0.0000000  1.0460000  1
   7426   7429   7437   7440     1  0.0000000  0.6694400  3
   7426   7425   7439   7443     1  0.0000000  0.6508444  3
   7426   7425   7439   7444     1  0.0000000  0.6508444  3
   7427   7425   7426   7429     1  0.0000000  0.6508444  3
   7427   7425   7426   7438     1  0.0000000  1.0460000  1
   7427   7425   7426   7438     1  0.0000000  0.0000000  3
   7427   7425   7426   7428     1  0.0000000  0.6508444  3
   7427   7425   7439   7445     1  0.0000000  1.0460000  1
   7427   7425   7439   7445     1  0.0000000  0.0000000  3
   7427   7425   7439   7443     1  0.0000000  0.6508444  3
   7427   7425   7439   7444     1  0.0000000  0.6508444  3
   7427   7425   7447   7431     1  0.0000000  1.6038667  3
   7428   7426   7429   7430     1  0.0000000  0.6508444  3
   7428   7426   7429   7437     1  0.0000000  1.0460000  1
   7428   7426   7429   7437     1  0.0000000  0.0000000  3
   7428   7426   7429   7433     1  0.0000000  0.6508444  3
   7428   7426   7438   7441     1  0.0000000  0.6973333  3
   7428   7426   7425   7439     1  0.0000000  0.6508444  3
   7428   7426   7425   7447     1  0.0000000  1.0460000  1
   7428   7426   7425   7447     1  0.0000000  0.0000000  3
   7429   7430   7431   7434     1  0.0000000  0.6508444  3
   7429   7430   7436   7442     1  0.0000000  1.0460000  1
   7429   7430   7436   7442     1  0.0000000  0.6694400  3
   7429   7426   7438   7441     1  0.0000000  1.0460000  1
   7429   7426   7438   7441     1  0.0000000  0.6694400  3
   7430   7429   7437   7440     1  0.0000000  1.0460000  1
   7430   7429   7437   7440     1  0.0000000  0.6694400  3
   7431   7430   7436   7442     1  0.0000000  1.0460000  1
   7431   7430   7436   7442     1  0.0000000  0.6694400  3
   7431   7430   7429   7433     1  0.0000000  0.6508444  3
   7432   7430   7431   7435     1  0.0000000  1.0460000  1
   7432   7430   7431   7435     1  0.0000000  0.0000000  3
   7432   7430   7431   7447     1  0.0000000  1.0460000  1
   7432   7430   7431   7447     1  0.0000000  0.0000000  3
   7432   7430   7431   7434     1  0.0000000  0.6508444  3
   7432   7430   7436   7442     1  0.0000000  0.6973333  3
   7432   7430   7429   7437     1  0.0000000  1.0460000  1
   7432   7430   7429   7437     1  0.0000000  0.0000000  3
   7432   7430   7429   7433     1  0.0000000  0.6508444  3
   7433   7429   7430   7436     1  0.0000000  1.0460000  1
   7433   7429   7430   7436     1  0.0000000  0.0000000  3
   7433   7429   7437   7440     1  0.0000000  0.6973333  3
   7433   7429   7426   7438     1  0.0000000  1.0460000  1
   7433   7429   7426   7438     1  0.0000000  0.0000000  3
   7434   7431   7430   7436     1  0.0000000  0.6508444  3
   7443   7439   7445   7446     1  0.0000000  0.6973333  3
   7443   7439   7425   7447     1  0.0000000  1.0460000  1
   7443   7439   7425   7447     1  0.0000000  0.0000000  3
   7444   7439   7445   7446     1  0.0000000  0.6973333  3
   7444   7439   7425   7447     1  0.0000000  1.0460000  1
   7444   7439   7425   7447     1  0.0000000  0.0000000  3
   7448   7449   7452   7456     1  0.0000000  0.6508444  3
   7448   7449   7461   7464     1  0.0000000  1.0460000  1
   7448   7449   7461   7464     1  0.0000000  0.6694400  3
   7448   7462   7468   7469     1  0.0000000  1.0460000  1
   7448   7462   7468   7469     1  0.0000000  0.6694400  3
   7448   7470   7454   7457     1  0.0000000  1.6038667  3
   7449   7448   7462   7466     1  0.0000000  0.6508444  3
   7449   7448   7462   7467     1  0.0000000  0.6508444  3
   7449   7452   7453   7455     1  0.0000000  0.6508444  3
   7449   7452   7460   7463     1  0.0000000  1.0460000  1
   7449   7452   7460   7463     1  0.0000000  0.6694400  3
   7450   7448   7449   7452     1  0.0000000  0.6508444  3
   7450   7448   7449   7461     1  0.0000000  1.0460000  1
   7450   7448   7449   7461     1  0.0000000  0.0000000  3
   7450   7448   7449   7451     1  0.0000000  0.6508444  3
   7450   7448   7462   7468     1  0.0000000  1.0460000  1
   7450   7448   7462   7468     1  0.0000000  0.0000000  3
   7450   7448   7462   7466     1  0.0000000  0.6508444  3
   7450   7448   7462   7467     1  0.0000000  0.6508444  3
   7450   7448   7470   7454     1  0.0000000  1.6038667  3
   7451   7449   7448   7462     1  0.0000000  0.6508444  3
   7451   7449   7448   7470     1  0.0000000  1.0460000  1
   7451   7449   7448   7470     1  0.0000000  0.0000000  3
   7451   7449   7452   7453     1  0.0000000  0.6508444  3
   7451   7449   7452   7460     1  0.0000000  1.0460000  1
   7451   7449   7452   7460     1  0.0000000  0.0000000  3
   7451   7449   7452   7456     1  0.0000000  0.6508444  3
   7451   7449   7461   7464     1  0.0000000  0.6973333  3
   7452   7449   7461   7464     1  0.0000000  1.0460000  1
   7452   7449   7461   7464     1  0.0000000  0.6694400  3
   7452   7453   7454   7457     1  0.0000000  0.6508444  3
   7452   7453   7459   7465     1  0.0000000  1.0460000  1
   7452   7453   7459   7465     1  0.0000000  0.6694400  3
   7453   7452   7460   7463     1  0.0000000  1.0460000  1
   7453   7452   7460   7463     1  0.0000000  0.6694400  3
   7454   7453   7452   7456     1  0.0000000  0.6508444  3
   7454   7453   7459   7465     1  0.0000000  1.0460000  1
   7454   7453   7459   7465     1  0.0000000  0.6694400  3
   7455   7453   7452   7460     1  0.0000000  1.0460000  1
   7455   7453   7452   7460     1  0.0000000  0.0000000  3
   7455   7453   7452   7456     1  0.0000000  0.6508444  3
   7455   7453   7454   7458     1  0.0000000  1.0460000  1
   7455   7453   7454   7458     1  0.0000000  0.0000000  3
   7455   7453   7454   7470     1  0.0000000  1.0460000  1
   7455   7453   7454   7470     1  0.0000000  0.0000000  3
   7455   7453   7454   7457     1  0.0000000  0.6508444  3
   7455   7453   7459   7465     1  0.0000000  0.6973333  3
   7456   7452   7449   7461     1  0.0000000  1.0460000  1
   7456   7452   7449   7461     1  0.0000000  0.0000000  3
   7456   7452   7453   7459     1  0.0000000  1.0460000  1
   7456   7452   7453   7459     1  0.0000000  0.0000000  3
   7456   7452   7460   7463     1  0.0000000  0.6973333  3
   7457   7454   7453   7459     1  0.0000000  0.6508444  3
   7466   7462   7448   7470     1  0.0000000  1.0460000  1
   7466   7462   7448   7470     1  0.0000000  0.0000000  3
   7466   7462   7468   7469     1  0.0000000  0.6973333  3
   7467   7462   7448   7470     1  0.0000000  1.0460000  1
   7467   7462   7448   7470     1  0.0000000  0.0000000  3
   7467   7462   7468   7469     1  0.0000000  0.6973333  3
   7471   7472   7475   7479     1  0.0000000  0.6508444  3
   7471   7472   7484   7487     1  0.0000000  1.0460000  1
   7471   7472   7484   7487     1  0.0000000  0.6694400  3
   7471   7485   7491   7492     1  0.0000000  1.0460000  1
   7471   7485   7491   7492     1  0.0000000  0.6694400  3
   7471   7493   7477   7480     1  0.0000000  1.6038667  3
   7472   7475   7476   7478     1  0.0000000  0.6508444  3
   7472   7475   7483   7486     1  0.0000000  1.0460000  1
   7472   7475   7483   7486     1  0.0000000  0.6694400  3
   7472   7471   7485   7489     1  0.0000000  0.6508444  3
   7472   7471   7485   7490     1  0.0000000  0.6508444  3
   7473   7471   7472   7475     1  0.0000000  0.6508444  3
   7473   7471   7472   7484     1  0.0000000  1.0460000  1
   7473   7471   7472   7484     1  0.0000000  0.0000000  3
   7473   7471   7472   7474     1  0.0000000  0.6508444  3
   7473   7471   7485   7491     1  0.0000000  1.0460000  1
   7473   7471   7485   7491     1  0.0000000  0.0000000  3
   7473   7471   7485   7489     1  0.0000000  0.6508444  3
   7473   7471   7485   7490     1  0.0000000  0.6508444  3
   7473   7471   7493   7477     1  0.0000000  1.6038667  3
   7474   7472   7475   7476     1  0.0000000  0.6508444  3
   7474   7472   7475   7483     1  0.0000000  1.0460000  1
   7474   7472   7475   7483     1  0.0000000  0.0000000  3
   7474   7472   7475   7479     1  0.0000000  0.6508444  3
   7474   7472   7484   7487     1  0.0000000  0.6973333  3
   7474   7472   7471   7485     1  0.0000000  0.6508444  3
   7474   7472   7471   7493     1  0.0000000  1.0460000  1
   7474   7472   7471   7493     1  0.0000000  0.0000000  3
   7475   7476   7477   7480     1  0.0000000  0.6508444  3
   7475   7476   7482   7488     1  0.0000000  1.0460000  1
   7475   7476   7482   7488     1  0.0000000  0.6694400  3
   7475   7472   7484   7487     1  0.0000000  1.0460000  1
   7475   7472   7484   7487     1  0.0000000  0.6694400  3
   7476   7475   7483   7486     1  0.0000000  1.0460000  1
   7476   7475   7483   7486     1  0.0000000  0.6694400  3
   7477   7476   7482   7488     1  0.0000000  1.0460000  1
   7477   7476   7482   7488     1  0.0000000  0.6694400  3
   7477   7476   7475   7479     1  0.0000000  0.6508444  3
   7478   7476   7477   7481     1  0.0000000  1.0460000  1
   7478   7476   7477   7481     1  0.0000000  0.0000000  3
   7478   7476   7477   7493     1  0.0000000  1.0460000  1
   7478   7476   7477   7493     1  0.0000000  0.0000000  3
   7478   7476   7477   7480     1  0.0000000  0.6508444  3
   7478   7476   7482   7488     1  0.0000000  0.6973333  3
   7478   7476   7475   7483     1  0.0000000  1.0460000  1
   7478   7476   7475   7483     1  0.0000000  0.0000000  3
   7478   7476   7475   7479     1  0.0000000  0.6508444  3
   7479   7475   7476   7482     1  0.0000000  1.0460000  1
   7479   7475   7476   7482     1  0.0000000  0.0000000  3
   7479   7475   7483   7486     1  0.0000000  0.6973333  3
   7479   7475   7472   7484     1  0.0000000  1.0460000  1
   7479   7475   7472   7484     1  0.0000000  0.0000000  3
   7480   7477   7476   7482     1  0.0000000  0.6508444  3
   7489   7485   7491   7492     1  0.0000000  0.6973333  3
   7489   7485   7471   7493     1  0.0000000  1.0460000  1
   7489   7485   7471   7493     1  0.0000000  0.0000000  3
   7490   7485   7491   7492     1  0.0000000  0.6973333  3
   7490   7485   7471   7493     1  0.0000000  1.0460000  1
   7490   7485   7471   7493     1  0.0000000  0.0000000  3
   7494   7495   7498   7502     1  0.0000000  0.6508444  3
   7494   7495   7507   7510     1  0.0000000  1.0460000  1
   7494   7495   7507   7510     1  0.0000000  0.6694400  3
   7494   7508   7514   7515     1  0.0000000  1.0460000  1
   7494   7508   7514   7515     1  0.0000000  0.6694400  3
   7494   7516   7500   7503     1  0.0000000  1.6038667  3
   7495   7494   7508   7512     1  0.0000000  0.6508444  3
   7495   7494   7508   7513     1  0.0000000  0.6508444  3
   7495   7498   7499   7501     1  0.0000000  0.6508444  3
   7495   7498   7506   7509     1  0.0000000  1.0460000  1
   7495   7498   7506   7509     1  0.0000000  0.6694400  3
   7496   7494   7495   7498     1  0.0000000  0.6508444  3
   7496   7494   7495   7507     1  0.0000000  1.0460000  1
   7496   7494   7495   7507     1  0.0000000  0.0000000  3
   7496   7494   7495   7497     1  0.0000000  0.6508444  3
   7496   7494   7508   7514     1  0.0000000  1.0460000  1
   7496   7494   7508   7514     1  0.0000000  0.0000000  3
   7496   7494   7508   7512     1  0.0000000  0.6508444  3
   7496   7494   7508   7513     1  0.0000000  0.6508444  3
   7496   7494   7516   7500     1  0.0000000  1.6038667  3
   7497   7495   7494   7508     1  0.0000000  0.6508444  3
   7497   7495   7494   7516     1  0.0000000  1.0460000  1
   7497   7495   7494   7516     1  0.0000000  0.0000000  3
   7497   7495   7498   7499     1  0.0000000  0.6508444  3
   7497   7495   7498   7506     1  0.0000000  1.0460000  1
   7497   7495   7498   7506     1  0.0000000  0.0000000  3
   7497   7495   7498   7502     1  0.0000000  0.6508444  3
   7497   7495   7507   7510     1  0.0000000  0.6973333  3
   7498   7495   7507   7510     1  0.0000000  1.0460000  1
   7498   7495   7507   7510     1  0.0000000  0.6694400  3
   7498   7499   7500   7503     1  0.0000000  0.6508444  3
   7498   7499   7505   7511     1  0.0000000  1.0460000  1
   7498   7499   7505   7511     1  0.0000000  0.6694400  3
   7499   7498   7506   7509     1  0.0000000  1.0460000  1
   7499   7498   7506   7509     1  0.0000000  0.6694400  3
   7500   7499   7498   7502     1  0.0000000  0.6508444  3
   7500   7499   7505   7511     1  0.0000000  1.0460000  1
   7500   7499   7505   7511     1  0.0000000  0.6694400  3
   7501   7499   7498   7506     1  0.0000000  1.0460000  1
   7501   7499   7498   7506     1  0.0000000  0.0000000  3
   7501   7499   7498   7502     1  0.0000000  0.6508444  3
   7501   7499   7500   7504     1  0.0000000  1.0460000  1
   7501   7499   7500   7504     1  0.0000000  0.0000000  3
   7501   7499   7500   7516     1  0.0000000  1.0460000  1
   7501   7499   7500   7516     1  0.0000000  0.0000000  3
   7501   7499   7500   7503     1  0.0000000  0.6508444  3
   7501   7499   7505   7511     1  0.0000000  0.6973333  3
   7502   7498   7495   7507     1  0.0000000  1.0460000  1
   7502   7498   7495   7507     1  0.0000000  0.0000000  3
   7502   7498   7499   7505     1  0.0000000  1.0460000  1
   7502   7498   7499   7505     1  0.0000000  0.0000000  3
   7502   7498   7506   7509     1  0.0000000  0.6973333  3
   7503   7500   7499   7505     1  0.0000000  0.6508444  3
   7512   7508   7494   7516     1  0.0000000  1.0460000  1
   7512   7508   7494   7516     1  0.0000000  0.0000000  3
   7512   7508   7514   7515     1  0.0000000  0.6973333  3
   7513   7508   7494   7516     1  0.0000000  1.0460000  1
   7513   7508   7494   7516     1  0.0000000  0.0000000  3
   7513   7508   7514   7515     1  0.0000000  0.6973333  3
   7517   7518   7521   7525     1  0.0000000  0.6508444  3
   7517   7518   7530   7533     1  0.0000000  1.0460000  1
   7517   7518   7530   7533     1  0.0000000  0.6694400  3
   7517   7531   7537   7538     1  0.0000000  1.0460000  1
   7517   7531   7537   7538     1  0.0000000  0.6694400  3
   7517   7539   7523   7526     1  0.0000000  1.6038667  3
   7518   7521   7522   7524     1  0.0000000  0.6508444  3
   7518   7521   7529   7532     1  0.0000000  1.0460000  1
   7518   7521   7529   7532     1  0.0000000  0.6694400  3
   7518   7517   7531   7535     1  0.0000000  0.6508444  3
   7518   7517   7531   7536     1  0.0000000  0.6508444  3
   7519   7517   7518   7521     1  0.0000000  0.6508444  3
   7519   7517   7518   7530     1  0.0000000  1.0460000  1
   7519   7517   7518   7530     1  0.0000000  0.0000000  3
   7519   7517   7518   7520     1  0.0000000  0.6508444  3
   7519   7517   7531   7537     1  0.0000000  1.0460000  1
   7519   7517   7531   7537     1  0.0000000  0.0000000  3
   7519   7517   7531   7535     1  0.0000000  0.6508444  3
   7519   7517   7531   7536     1  0.0000000  0.6508444  3
   7519   7517   7539   7523     1  0.0000000  1.6038667  3
   7520   7518   7521   7522     1  0.0000000  0.6508444  3
   7520   7518   7521   7529     1  0.0000000  1.0460000  1
   7520   7518   7521   7529     1  0.0000000  0.0000000  3
   7520   7518   7521   7525     1  0.0000000  0.6508444  3
   7520   7518   7530   7533     1  0.0000000  0.6973333  3
   7520   7518   7517   7531     1  0.0000000  0.6508444  3
   7520   7518   7517   7539     1  0.0000000  1.0460000  1
   7520   7518   7517   7539     1  0.0000000  0.0000000  3
   7521   7522   7523   7526     1  0.0000000  0.6508444  3
   7521   7522   7528   7534     1  0.0000000  1.0460000  1
   7521   7522   7528   7534     1  0.0000000  0.6694400  3
   7521   7518   7530   7533     1  0.0000000  1.0460000  1
   7521   7518   7530   7533     1  0.0000000  0.6694400  3
   7522   7521   7529   7532     1  0.0000000  1.0460000  1
   7522   7521   7529   7532     1  0.0000000  0.6694400  3
   7523   7522   7528   7534     1  0.0000000  1.0460000  1
   7523   7522   7528   7534     1  0.0000000  0.6694400  3
   7523   7522   7521   7525     1  0.0000000  0.6508444  3
   7524   7522   7523   7527     1  0.0000000  1.0460000  1
   7524   7522   7523   7527     1  0.0000000  0.0000000  3
   7524   7522   7523   7539     1  0.0000000  1.0460000  1
   7524   7522   7523   7539     1  0.0000000  0.0000000  3
   7524   7522   7523   7526     1  0.0000000  0.6508444  3
   7524   7522   7528   7534     1  0.0000000  0.6973333  3
   7524   7522   7521   7529     1  0.0000000  1.0460000  1
   7524   7522   7521   7529     1  0.0000000  0.0000000  3
   7524   7522   7521   7525     1  0.0000000  0.6508444  3
   7525   7521   7522   7528     1  0.0000000  1.0460000  1
   7525   7521   7522   7528     1  0.0000000  0.0000000  3
   7525   7521   7529   7532     1  0.0000000  0.6973333  3
   7525   7521   7518   7530     1  0.0000000  1.0460000  1
   7525   7521   7518   7530     1  0.0000000  0.0000000  3
   7526   7523   7522   7528     1  0.0000000  0.6508444  3
   7535   7531   7537   7538     1  0.0000000  0.6973333  3
   7535   7531   7517   7539     1  0.0000000  1.0460000  1
   7535   7531   7517   7539     1  0.0000000  0.0000000  3
   7536   7531   7537   7538     1  0.0000000  0.6973333  3
   7536   7531   7517   7539     1  0.0000000  1.0460000  1
   7536   7531   7517   7539     1  0.0000000  0.0000000  3
   7540   7541   7544   7548     1  0.0000000  0.6508444  3
   7540   7541   7553   7556     1  0.0000000  1.0460000  1
   7540   7541   7553   7556     1  0.0000000  0.6694400  3
   7540   7554   7560   7561     1  0.0000000  1.0460000  1
   7540   7554   7560   7561     1  0.0000000  0.6694400  3
   7540   7562   7546   7549     1  0.0000000  1.6038667  3
   7541   7540   7554   7558     1  0.0000000  0.6508444  3
   7541   7540   7554   7559     1  0.0000000  0.6508444  3
   7541   7544   7545   7547     1  0.0000000  0.6508444  3
   7541   7544   7552   7555     1  0.0000000  1.0460000  1
   7541   7544   7552   7555     1  0.0000000  0.6694400  3
   7542   7540   7541   7544     1  0.0000000  0.6508444  3
   7542   7540   7541   7553     1  0.0000000  1.0460000  1
   7542   7540   7541   7553     1  0.0000000  0.0000000  3
   7542   7540   7541   7543     1  0.0000000  0.6508444  3
   7542   7540   7554   7560     1  0.0000000  1.0460000  1
   7542   7540   7554   7560     1  0.0000000  0.0000000  3
   7542   7540   7554   7558     1  0.0000000  0.6508444  3
   7542   7540   7554   7559     1  0.0000000  0.6508444  3
   7542   7540   7562   7546     1  0.0000000  1.6038667  3
   7543   7541   7540   7554     1  0.0000000  0.6508444  3
   7543   7541   7540   7562     1  0.0000000  1.0460000  1
   7543   7541   7540   7562     1  0.0000000  0.0000000  3
   7543   7541   7544   7545     1  0.0000000  0.6508444  3
   7543   7541   7544   7552     1  0.0000000  1.0460000  1
   7543   7541   7544   7552     1  0.0000000  0.0000000  3
   7543   7541   7544   7548     1  0.0000000  0.6508444  3
   7543   7541   7553   7556     1  0.0000000  0.6973333  3
   7544   7541   7553   7556     1  0.0000000  1.0460000  1
   7544   7541   7553   7556     1  0.0000000  0.6694400  3
   7544   7545   7546   7549     1  0.0000000  0.6508444  3
   7544   7545   7551   7557     1  0.0000000  1.0460000  1
   7544   7545   7551   7557     1  0.0000000  0.6694400  3
   7545   7544   7552   7555     1  0.0000000  1.0460000  1
   7545   7544   7552   7555     1  0.0000000  0.6694400  3
   7546   7545   7544   7548     1  0.0000000  0.6508444  3
   7546   7545   7551   7557     1  0.0000000  1.0460000  1
   7546   7545   7551   7557     1  0.0000000  0.6694400  3
   7547   7545   7544   7552     1  0.0000000  1.0460000  1
   7547   7545   7544   7552     1  0.0000000  0.0000000  3
   7547   7545   7544   7548     1  0.0000000  0.6508444  3
   7547   7545   7546   7550     1  0.0000000  1.0460000  1
   7547   7545   7546   7550     1  0.0000000  0.0000000  3
   7547   7545   7546   7562     1  0.0000000  1.0460000  1
   7547   7545   7546   7562     1  0.0000000  0.0000000  3
   7547   7545   7546   7549     1  0.0000000  0.6508444  3
   7547   7545   7551   7557     1  0.0000000  0.6973333  3
   7548   7544   7541   7553     1  0.0000000  1.0460000  1
   7548   7544   7541   7553     1  0.0000000  0.0000000  3
   7548   7544   7545   7551     1  0.0000000  1.0460000  1
   7548   7544   7545   7551     1  0.0000000  0.0000000  3
   7548   7544   7552   7555     1  0.0000000  0.6973333  3
   7549   7546   7545   7551     1  0.0000000  0.6508444  3
   7558   7554   7540   7562     1  0.0000000  1.0460000  1
   7558   7554   7540   7562     1  0.0000000  0.0000000  3
   7558   7554   7560   7561     1  0.0000000  0.6973333  3
   7559   7554   7540   7562     1  0.0000000  1.0460000  1
   7559   7554   7540   7562     1  0.0000000  0.0000000  3
   7559   7554   7560   7561     1  0.0000000  0.6973333  3
   7563   7564   7567   7571     1  0.0000000  0.6508444  3
   7563   7564   7576   7579     1  0.0000000  1.0460000  1
   7563   7564   7576   7579     1  0.0000000  0.6694400  3
   7563   7577   7583   7584     1  0.0000000  1.0460000  1
   7563   7577   7583   7584     1  0.0000000  0.6694400  3
   7563   7585   7569   7572     1  0.0000000  1.6038667  3
   7564   7567   7568   7570     1  0.0000000  0.6508444  3
   7564   7567   7575   7578     1  0.0000000  1.0460000  1
   7564   7567   7575   7578     1  0.0000000  0.6694400  3
   7564   7563   7577   7581     1  0.0000000  0.6508444  3
   7564   7563   7577   7582     1  0.0000000  0.6508444  3
   7565   7563   7564   7567     1  0.0000000  0.6508444  3
   7565   7563   7564   7576     1  0.0000000  1.0460000  1
   7565   7563   7564   7576     1  0.0000000  0.0000000  3
   7565   7563   7564   7566     1  0.0000000  0.6508444  3
   7565   7563   7577   7583     1  0.0000000  1.0460000  1
   7565   7563   7577   7583     1  0.0000000  0.0000000  3
   7565   7563   7577   7581     1  0.0000000  0.6508444  3
   7565   7563   7577   7582     1  0.0000000  0.6508444  3
   7565   7563   7585   7569     1  0.0000000  1.6038667  3
   7566   7564   7567   7568     1  0.0000000  0.6508444  3
   7566   7564   7567   7575     1  0.0000000  1.0460000  1
   7566   7564   7567   7575     1  0.0000000  0.0000000  3
   7566   7564   7567   7571     1  0.0000000  0.6508444  3
   7566   7564   7576   7579     1  0.0000000  0.6973333  3
   7566   7564   7563   7577     1  0.0000000  0.6508444  3
   7566   7564   7563   7585     1  0.0000000  1.0460000  1
   7566   7564   7563   7585     1  0.0000000  0.0000000  3
   7567   7568   7569   7572     1  0.0000000  0.6508444  3
   7567   7568   7574   7580     1  0.0000000  1.0460000  1
   7567   7568   7574   7580     1  0.0000000  0.6694400  3
   7567   7564   7576   7579     1  0.0000000  1.0460000  1
   7567   7564   7576   7579     1  0.0000000  0.6694400  3
   7568   7567   7575   7578     1  0.0000000  1.0460000  1
   7568   7567   7575   7578     1  0.0000000  0.6694400  3
   7569   7568   7574   7580     1  0.0000000  1.0460000  1
   7569   7568   7574   7580     1  0.0000000  0.6694400  3
   7569   7568   7567   7571     1  0.0000000  0.6508444  3
   7570   7568   7569   7573     1  0.0000000  1.0460000  1
   7570   7568   7569   7573     1  0.0000000  0.0000000  3
   7570   7568   7569   7585     1  0.0000000  1.0460000  1
   7570   7568   7569   7585     1  0.0000000  0.0000000  3
   7570   7568   7569   7572     1  0.0000000  0.6508444  3
   7570   7568   7574   7580     1  0.0000000  0.6973333  3
   7570   7568   7567   7575     1  0.0000000  1.0460000  1
   7570   7568   7567   7575     1  0.0000000  0.0000000  3
   7570   7568   7567   7571     1  0.0000000  0.6508444  3
   7571   7567   7568   7574     1  0.0000000  1.0460000  1
   7571   7567   7568   7574     1  0.0000000  0.0000000  3
   7571   7567   7575   7578     1  0.0000000  0.6973333  3
   7571   7567   7564   7576     1  0.0000000  1.0460000  1
   7571   7567   7564   7576     1  0.0000000  0.0000000  3
   7572   7569   7568   7574     1  0.0000000  0.6508444  3
   7581   7577   7583   7584     1  0.0000000  0.6973333  3
   7581   7577   7563   7585     1  0.0000000  1.0460000  1
   7581   7577   7563   7585     1  0.0000000  0.0000000  3
   7582   7577   7583   7584     1  0.0000000  0.6973333  3
   7582   7577   7563   7585     1  0.0000000  1.0460000  1
   7582   7577   7563   7585     1  0.0000000  0.0000000  3
   7586   7587   7590   7594     1  0.0000000  0.6508444  3
   7586   7587   7599   7602     1  0.0000000  1.0460000  1
   7586   7587   7599   7602     1  0.0000000  0.6694400  3
   7586   7600   7606   7607     1  0.0000000  1.0460000  1
   7586   7600   7606   7607     1  0.0000000  0.6694400  3
   7586   7608   7592   7595     1  0.0000000  1.6038667  3
   7587   7586   7600   7604     1  0.0000000  0.6508444  3
   7587   7586   7600   7605     1  0.0000000  0.6508444  3
   7587   7590   7591   7593     1  0.0000000  0.6508444  3
   7587   7590   7598   7601     1  0.0000000  1.0460000  1
   7587   7590   7598   7601     1  0.0000000  0.6694400  3
   7588   7586   7587   7590     1  0.0000000  0.6508444  3
   7588   7586   7587   7599     1  0.0000000  1.0460000  1
   7588   7586   7587   7599     1  0.0000000  0.0000000  3
   7588   7586   7587   7589     1  0.0000000  0.6508444  3
   7588   7586   7600   7606     1  0.0000000  1.0460000  1
   7588   7586   7600   7606     1  0.0000000  0.0000000  3
   7588   7586   7600   7604     1  0.0000000  0.6508444  3
   7588   7586   7600   7605     1  0.0000000  0.6508444  3
   7588   7586   7608   7592     1  0.0000000  1.6038667  3
   7589   7587   7586   7600     1  0.0000000  0.6508444  3
   7589   7587   7586   7608     1  0.0000000  1.0460000  1
   7589   7587   7586   7608     1  0.0000000  0.0000000  3
   7589   7587   7590   7591     1  0.0000000  0.6508444  3
   7589   7587   7590   7598     1  0.0000000  1.0460000  1
   7589   7587   7590   7598     1  0.0000000  0.0000000  3
   7589   7587   7590   7594     1  0.0000000  0.6508444  3
   7589   7587   7599   7602     1  0.0000000  0.6973333  3
   7590   7587   7599   7602     1  0.0000000  1.0460000  1
   7590   7587   7599   7602     1  0.0000000  0.6694400  3
   7590   7591   7592   7595     1  0.0000000  0.6508444  3
   7590   7591   7597   7603     1  0.0000000  1.0460000  1
   7590   7591   7597   7603     1  0.0000000  0.6694400  3
   7591   7590   7598   7601     1  0.0000000  1.0460000  1
   7591   7590   7598   7601     1  0.0000000  0.6694400  3
   7592   7591   7590   7594     1  0.0000000  0.6508444  3
   7592   7591   7597   7603     1  0.0000000  1.0460000  1
   7592   7591   7597   7603     1  0.0000000  0.6694400  3
   7593   7591   7590   7598     1  0.0000000  1.0460000  1
   7593   7591   7590   7598     1  0.0000000  0.0000000  3
   7593   7591   7590   7594     1  0.0000000  0.6508444  3
   7593   7591   7592   7596     1  0.0000000  1.0460000  1
   7593   7591   7592   7596     1  0.0000000  0.0000000  3
   7593   7591   7592   7608     1  0.0000000  1.0460000  1
   7593   7591   7592   7608     1  0.0000000  0.0000000  3
   7593   7591   7592   7595     1  0.0000000  0.6508444  3
   7593   7591   7597   7603     1  0.0000000  0.6973333  3
   7594   7590   7587   7599     1  0.0000000  1.0460000  1
   7594   7590   7587   7599     1  0.0000000  0.0000000  3
   7594   7590   7591   7597     1  0.0000000  1.0460000  1
   7594   7590   7591   7597     1  0.0000000  0.0000000  3
   7594   7590   7598   7601     1  0.0000000  0.6973333  3
   7595   7592   7591   7597     1  0.0000000  0.6508444  3
   7604   7600   7586   7608     1  0.0000000  1.0460000  1
   7604   7600   7586   7608     1  0.0000000  0.0000000  3
   7604   7600   7606   7607     1  0.0000000  0.6973333  3
   7605   7600   7586   7608     1  0.0000000  1.0460000  1
   7605   7600   7586   7608     1  0.0000000  0.0000000  3
   7605   7600   7606   7607     1  0.0000000  0.6973333  3
   7609   7610   7613   7617     1  0.0000000  0.6508444  3
   7609   7610   7622   7625     1  0.0000000  1.0460000  1
   7609   7610   7622   7625     1  0.0000000  0.6694400  3
   7609   7623   7629   7630     1  0.0000000  1.0460000  1
   7609   7623   7629   7630     1  0.0000000  0.6694400  3
   7609   7631   7615   7618     1  0.0000000  1.6038667  3
   7610   7613   7614   7616     1  0.0000000  0.6508444  3
   7610   7613   7621   7624     1  0.0000000  1.0460000  1
   7610   7613   7621   7624     1  0.0000000  0.6694400  3
   7610   7609   7623   7627     1  0.0000000  0.6508444  3
   7610   7609   7623   7628     1  0.0000000  0.6508444  3
   7611   7609   7610   7613     1  0.0000000  0.6508444  3
   7611   7609   7610   7622     1  0.0000000  1.0460000  1
   7611   7609   7610   7622     1  0.0000000  0.0000000  3
   7611   7609   7610   7612     1  0.0000000  0.6508444  3
   7611   7609   7623   7629     1  0.0000000  1.0460000  1
   7611   7609   7623   7629     1  0.0000000  0.0000000  3
   7611   7609   7623   7627     1  0.0000000  0.6508444  3
   7611   7609   7623   7628     1  0.0000000  0.6508444  3
   7611   7609   7631   7615     1  0.0000000  1.6038667  3
   7612   7610   7613   7614     1  0.0000000  0.6508444  3
   7612   7610   7613   7621     1  0.0000000  1.0460000  1
   7612   7610   7613   7621     1  0.0000000  0.0000000  3
   7612   7610   7613   7617     1  0.0000000  0.6508444  3
   7612   7610   7622   7625     1  0.0000000  0.6973333  3
   7612   7610   7609   7623     1  0.0000000  0.6508444  3
   7612   7610   7609   7631     1  0.0000000  1.0460000  1
   7612   7610   7609   7631     1  0.0000000  0.0000000  3
   7613   7614   7615   7618     1  0.0000000  0.6508444  3
   7613   7614   7620   7626     1  0.0000000  1.0460000  1
   7613   7614   7620   7626     1  0.0000000  0.6694400  3
   7613   7610   7622   7625     1  0.0000000  1.0460000  1
   7613   7610   7622   7625     1  0.0000000  0.6694400  3
   7614   7613   7621   7624     1  0.0000000  1.0460000  1
   7614   7613   7621   7624     1  0.0000000  0.6694400  3
   7615   7614   7620   7626     1  0.0000000  1.0460000  1
   7615   7614   7620   7626     1  0.0000000  0.6694400  3
   7615   7614   7613   7617     1  0.0000000  0.6508444  3
   7616   7614   7615   7619     1  0.0000000  1.0460000  1
   7616   7614   7615   7619     1  0.0000000  0.0000000  3
   7616   7614   7615   7631     1  0.0000000  1.0460000  1
   7616   7614   7615   7631     1  0.0000000  0.0000000  3
   7616   7614   7615   7618     1  0.0000000  0.6508444  3
   7616   7614   7620   7626     1  0.0000000  0.6973333  3
   7616   7614   7613   7621     1  0.0000000  1.0460000  1
   7616   7614   7613   7621     1  0.0000000  0.0000000  3
   7616   7614   7613   7617     1  0.0000000  0.6508444  3
   7617   7613   7614   7620     1  0.0000000  1.0460000  1
   7617   7613   7614   7620     1  0.0000000  0.0000000  3
   7617   7613   7621   7624     1  0.0000000  0.6973333  3
   7617   7613   7610   7622     1  0.0000000  1.0460000  1
   7617   7613   7610   7622     1  0.0000000  0.0000000  3
   7618   7615   7614   7620     1  0.0000000  0.6508444  3
   7627   7623   7629   7630     1  0.0000000  0.6973333  3
   7627   7623   7609   7631     1  0.0000000  1.0460000  1
   7627   7623   7609   7631     1  0.0000000  0.0000000  3
   7628   7623   7629   7630     1  0.0000000  0.6973333  3
   7628   7623   7609   7631     1  0.0000000  1.0460000  1
   7628   7623   7609   7631     1  0.0000000  0.0000000  3
   7632   7633   7636   7640     1  0.0000000  0.6508444  3
   7632   7633   7645   7648     1  0.0000000  1.0460000  1
   7632   7633   7645   7648     1  0.0000000  0.6694400  3
   7632   7646   7652   7653     1  0.0000000  1.0460000  1
   7632   7646   7652   7653     1  0.0000000  0.6694400  3
   7632   7654   7638   7641     1  0.0000000  1.6038667  3
   7633   7632   7646   7650     1  0.0000000  0.6508444  3
   7633   7632   7646   7651     1  0.0000000  0.6508444  3
   7633   7636   7637   7639     1  0.0000000  0.6508444  3
   7633   7636   7644   7647     1  0.0000000  1.0460000  1
   7633   7636   7644   7647     1  0.0000000  0.6694400  3
   7634   7632   7633   7636     1  0.0000000  0.6508444  3
   7634   7632   7633   7645     1  0.0000000  1.0460000  1
   7634   7632   7633   7645     1  0.0000000  0.0000000  3
   7634   7632   7633   7635     1  0.0000000  0.6508444  3
   7634   7632   7646   7652     1  0.0000000  1.0460000  1
   7634   7632   7646   7652     1  0.0000000  0.0000000  3
   7634   7632   7646   7650     1  0.0000000  0.6508444  3
   7634   7632   7646   7651     1  0.0000000  0.6508444  3
   7634   7632   7654   7638     1  0.0000000  1.6038667  3
   7635   7633   7632   7646     1  0.0000000  0.6508444  3
   7635   7633   7632   7654     1  0.0000000  1.0460000  1
   7635   7633   7632   7654     1  0.0000000  0.0000000  3
   7635   7633   7636   7637     1  0.0000000  0.6508444  3
   7635   7633   7636   7644     1  0.0000000  1.0460000  1
   7635   7633   7636   7644     1  0.0000000  0.0000000  3
   7635   7633   7636   7640     1  0.0000000  0.6508444  3
   7635   7633   7645   7648     1  0.0000000  0.6973333  3
   7636   7633   7645   7648     1  0.0000000  1.0460000  1
   7636   7633   7645   7648     1  0.0000000  0.6694400  3
   7636   7637   7638   7641     1  0.0000000  0.6508444  3
   7636   7637   7643   7649     1  0.0000000  1.0460000  1
   7636   7637   7643   7649     1  0.0000000  0.6694400  3
   7637   7636   7644   7647     1  0.0000000  1.0460000  1
   7637   7636   7644   7647     1  0.0000000  0.6694400  3
   7638   7637   7636   7640     1  0.0000000  0.6508444  3
   7638   7637   7643   7649     1  0.0000000  1.0460000  1
   7638   7637   7643   7649     1  0.0000000  0.6694400  3
   7639   7637   7636   7644     1  0.0000000  1.0460000  1
   7639   7637   7636   7644     1  0.0000000  0.0000000  3
   7639   7637   7636   7640     1  0.0000000  0.6508444  3
   7639   7637   7638   7642     1  0.0000000  1.0460000  1
   7639   7637   7638   7642     1  0.0000000  0.0000000  3
   7639   7637   7638   7654     1  0.0000000  1.0460000  1
   7639   7637   7638   7654     1  0.0000000  0.0000000  3
   7639   7637   7638   7641     1  0.0000000  0.6508444  3
   7639   7637   7643   7649     1  0.0000000  0.6973333  3
   7640   7636   7633   7645     1  0.0000000  1.0460000  1
   7640   7636   7633   7645     1  0.0000000  0.0000000  3
   7640   7636   7637   7643     1  0.0000000  1.0460000  1
   7640   7636   7637   7643     1  0.0000000  0.0000000  3
   7640   7636   7644   7647     1  0.0000000  0.6973333  3
   7641   7638   7637   7643     1  0.0000000  0.6508444  3
   7650   7646   7632   7654     1  0.0000000  1.0460000  1
   7650   7646   7632   7654     1  0.0000000  0.0000000  3
   7650   7646   7652   7653     1  0.0000000  0.6973333  3
   7651   7646   7632   7654     1  0.0000000  1.0460000  1
   7651   7646   7632   7654     1  0.0000000  0.0000000  3
   7651   7646   7652   7653     1  0.0000000  0.6973333  3
   7655   7656   7659   7663     1  0.0000000  0.6508444  3
   7655   7656   7668   7671     1  0.0000000  1.0460000  1
   7655   7656   7668   7671     1  0.0000000  0.6694400  3
   7655   7669   7675   7676     1  0.0000000  1.0460000  1
   7655   7669   7675   7676     1  0.0000000  0.6694400  3
   7655   7677   7661   7664     1  0.0000000  1.6038667  3
   7656   7659   7660   7662     1  0.0000000  0.6508444  3
   7656   7659   7667   7670     1  0.0000000  1.0460000  1
   7656   7659   7667   7670     1  0.0000000  0.6694400  3
   7656   7655   7669   7673     1  0.0000000  0.6508444  3
   7656   7655   7669   7674     1  0.0000000  0.6508444  3
   7657   7655   7656   7659     1  0.0000000  0.6508444  3
   7657   7655   7656   7668     1  0.0000000  1.0460000  1
   7657   7655   7656   7668     1  0.0000000  0.0000000  3
   7657   7655   7656   7658     1  0.0000000  0.6508444  3
   7657   7655   7669   7675     1  0.0000000  1.0460000  1
   7657   7655   7669   7675     1  0.0000000  0.0000000  3
   7657   7655   7669   7673     1  0.0000000  0.6508444  3
   7657   7655   7669   7674     1  0.0000000  0.6508444  3
   7657   7655   7677   7661     1  0.0000000  1.6038667  3
   7658   7656   7659   7660     1  0.0000000  0.6508444  3
   7658   7656   7659   7667     1  0.0000000  1.0460000  1
   7658   7656   7659   7667     1  0.0000000  0.0000000  3
   7658   7656   7659   7663     1  0.0000000  0.6508444  3
   7658   7656   7668   7671     1  0.0000000  0.6973333  3
   7658   7656   7655   7669     1  0.0000000  0.6508444  3
   7658   7656   7655   7677     1  0.0000000  1.0460000  1
   7658   7656   7655   7677     1  0.0000000  0.0000000  3
   7659   7660   7661   7664     1  0.0000000  0.6508444  3
   7659   7660   7666   7672     1  0.0000000  1.0460000  1
   7659   7660   7666   7672     1  0.0000000  0.6694400  3
   7659   7656   7668   7671     1  0.0000000  1.0460000  1
   7659   7656   7668   7671     1  0.0000000  0.6694400  3
   7660   7659   7667   7670     1  0.0000000  1.0460000  1
   7660   7659   7667   7670     1  0.0000000  0.6694400  3
   7661   7660   7666   7672     1  0.0000000  1.0460000  1
   7661   7660   7666   7672     1  0.0000000  0.6694400  3
   7661   7660   7659   7663     1  0.0000000  0.6508444  3
   7662   7660   7661   7665     1  0.0000000  1.0460000  1
   7662   7660   7661   7665     1  0.0000000  0.0000000  3
   7662   7660   7661   7677     1  0.0000000  1.0460000  1
   7662   7660   7661   7677     1  0.0000000  0.0000000  3
   7662   7660   7661   7664     1  0.0000000  0.6508444  3
   7662   7660   7666   7672     1  0.0000000  0.6973333  3
   7662   7660   7659   7667     1  0.0000000  1.0460000  1
   7662   7660   7659   7667     1  0.0000000  0.0000000  3
   7662   7660   7659   7663     1  0.0000000  0.6508444  3
   7663   7659   7660   7666     1  0.0000000  1.0460000  1
   7663   7659   7660   7666     1  0.0000000  0.0000000  3
   7663   7659   7667   7670     1  0.0000000  0.6973333  3
   7663   7659   7656   7668     1  0.0000000  1.0460000  1
   7663   7659   7656   7668     1  0.0000000  0.0000000  3
   7664   7661   7660   7666     1  0.0000000  0.6508444  3
   7673   7669   7675   7676     1  0.0000000  0.6973333  3
   7673   7669   7655   7677     1  0.0000000  1.0460000  1
   7673   7669   7655   7677     1  0.0000000  0.0000000  3
   7674   7669   7675   7676     1  0.0000000  0.6973333  3
   7674   7669   7655   7677     1  0.0000000  1.0460000  1
   7674   7669   7655   7677     1  0.0000000  0.0000000  3
   7678   7679   7682   7686     1  0.0000000  0.6508444  3
   7678   7679   7691   7694     1  0.0000000  1.0460000  1
   7678   7679   7691   7694     1  0.0000000  0.6694400  3
   7678   7692   7698   7699     1  0.0000000  1.0460000  1
   7678   7692   7698   7699     1  0.0000000  0.6694400  3
   7678   7700   7684   7687     1  0.0000000  1.6038667  3
   7679   7678   7692   7696     1  0.0000000  0.6508444  3
   7679   7678   7692   7697     1  0.0000000  0.6508444  3
   7679   7682   7683   7685     1  0.0000000  0.6508444  3
   7679   7682   7690   7693     1  0.0000000  1.0460000  1
   7679   7682   7690   7693     1  0.0000000  0.6694400  3
   7680   7678   7679   7682     1  0.0000000  0.6508444  3
   7680   7678   7679   7691     1  0.0000000  1.0460000  1
   7680   7678   7679   7691     1  0.0000000  0.0000000  3
   7680   7678   7679   7681     1  0.0000000  0.6508444  3
   7680   7678   7692   7698     1  0.0000000  1.0460000  1
   7680   7678   7692   7698     1  0.0000000  0.0000000  3
   7680   7678   7692   7696     1  0.0000000  0.6508444  3
   7680   7678   7692   7697     1  0.0000000  0.6508444  3
   7680   7678   7700   7684     1  0.0000000  1.6038667  3
   7681   7679   7678   7692     1  0.0000000  0.6508444  3
   7681   7679   7678   7700     1  0.0000000  1.0460000  1
   7681   7679   7678   7700     1  0.0000000  0.0000000  3
   7681   7679   7682   7683     1  0.0000000  0.6508444  3
   7681   7679   7682   7690     1  0.0000000  1.0460000  1
   7681   7679   7682   7690     1  0.0000000  0.0000000  3
   7681   7679   7682   7686     1  0.0000000  0.6508444  3
   7681   7679   7691   7694     1  0.0000000  0.6973333  3
   7682   7679   7691   7694     1  0.0000000  1.0460000  1
   7682   7679   7691   7694     1  0.0000000  0.6694400  3
   7682   7683   7684   7687     1  0.0000000  0.6508444  3
   7682   7683   7689   7695     1  0.0000000  1.0460000  1
   7682   7683   7689   7695     1  0.0000000  0.6694400  3
   7683   7682   7690   7693     1  0.0000000  1.0460000  1
   7683   7682   7690   7693     1  0.0000000  0.6694400  3
   7684   7683   7682   7686     1  0.0000000  0.6508444  3
   7684   7683   7689   7695     1  0.0000000  1.0460000  1
   7684   7683   7689   7695     1  0.0000000  0.6694400  3
   7685   7683   7682   7690     1  0.0000000  1.0460000  1
   7685   7683   7682   7690     1  0.0000000  0.0000000  3
   7685   7683   7682   7686     1  0.0000000  0.6508444  3
   7685   7683   7684   7688     1  0.0000000  1.0460000  1
   7685   7683   7684   7688     1  0.0000000  0.0000000  3
   7685   7683   7684   7700     1  0.0000000  1.0460000  1
   7685   7683   7684   7700     1  0.0000000  0.0000000  3
   7685   7683   7684   7687     1  0.0000000  0.6508444  3
   7685   7683   7689   7695     1  0.0000000  0.6973333  3
   7686   7682   7679   7691     1  0.0000000  1.0460000  1
   7686   7682   7679   7691     1  0.0000000  0.0000000  3
   7686   7682   7683   7689     1  0.0000000  1.0460000  1
   7686   7682   7683   7689     1  0.0000000  0.0000000  3
   7686   7682   7690   7693     1  0.0000000  0.6973333  3
   7687   7684   7683   7689     1  0.0000000  0.6508444  3
   7696   7692   7678   7700     1  0.0000000  1.0460000  1
   7696   7692   7678   7700     1  0.0000000  0.0000000  3
   7696   7692   7698   7699     1  0.0000000  0.6973333  3
   7697   7692   7678   7700     1  0.0000000  1.0460000  1
   7697   7692   7678   7700     1  0.0000000  0.0000000  3
   7697   7692   7698   7699     1  0.0000000  0.6973333  3
   7701   7702   7705   7709     1  0.0000000  0.6508444  3
   7701   7702   7714   7717     1  0.0000000  1.0460000  1
   7701   7702   7714   7717     1  0.0000000  0.6694400  3
   7701   7715   7721   7722     1  0.0000000  1.0460000  1
   7701   7715   7721   7722     1  0.0000000  0.6694400  3
   7701   7723   7707   7710     1  0.0000000  1.6038667  3
   7702   7705   7706   7708     1  0.0000000  0.6508444  3
   7702   7705   7713   7716     1  0.0000000  1.0460000  1
   7702   7705   7713   7716     1  0.0000000  0.6694400  3
   7702   7701   7715   7719     1  0.0000000  0.6508444  3
   7702   7701   7715   7720     1  0.0000000  0.6508444  3
   7703   7701   7702   7705     1  0.0000000  0.6508444  3
   7703   7701   7702   7714     1  0.0000000  1.0460000  1
   7703   7701   7702   7714     1  0.0000000  0.0000000  3
   7703   7701   7702   7704     1  0.0000000  0.6508444  3
   7703   7701   7715   7721     1  0.0000000  1.0460000  1
   7703   7701   7715   7721     1  0.0000000  0.0000000  3
   7703   7701   7715   7719     1  0.0000000  0.6508444  3
   7703   7701   7715   7720     1  0.0000000  0.6508444  3
   7703   7701   7723   7707     1  0.0000000  1.6038667  3
   7704   7702   7705   7706     1  0.0000000  0.6508444  3
   7704   7702   7705   7713     1  0.0000000  1.0460000  1
   7704   7702   7705   7713     1  0.0000000  0.0000000  3
   7704   7702   7705   7709     1  0.0000000  0.6508444  3
   7704   7702   7714   7717     1  0.0000000  0.6973333  3
   7704   7702   7701   7715     1  0.0000000  0.6508444  3
   7704   7702   7701   7723     1  0.0000000  1.0460000  1
   7704   7702   7701   7723     1  0.0000000  0.0000000  3
   7705   7706   7707   7710     1  0.0000000  0.6508444  3
   7705   7706   7712   7718     1  0.0000000  1.0460000  1
   7705   7706   7712   7718     1  0.0000000  0.6694400  3
   7705   7702   7714   7717     1  0.0000000  1.0460000  1
   7705   7702   7714   7717     1  0.0000000  0.6694400  3
   7706   7705   7713   7716     1  0.0000000  1.0460000  1
   7706   7705   7713   7716     1  0.0000000  0.6694400  3
   7707   7706   7712   7718     1  0.0000000  1.0460000  1
   7707   7706   7712   7718     1  0.0000000  0.6694400  3
   7707   7706   7705   7709     1  0.0000000  0.6508444  3
   7708   7706   7707   7711     1  0.0000000  1.0460000  1
   7708   7706   7707   7711     1  0.0000000  0.0000000  3
   7708   7706   7707   7723     1  0.0000000  1.0460000  1
   7708   7706   7707   7723     1  0.0000000  0.0000000  3
   7708   7706   7707   7710     1  0.0000000  0.6508444  3
   7708   7706   7712   7718     1  0.0000000  0.6973333  3
   7708   7706   7705   7713     1  0.0000000  1.0460000  1
   7708   7706   7705   7713     1  0.0000000  0.0000000  3
   7708   7706   7705   7709     1  0.0000000  0.6508444  3
   7709   7705   7706   7712     1  0.0000000  1.0460000  1
   7709   7705   7706   7712     1  0.0000000  0.0000000  3
   7709   7705   7713   7716     1  0.0000000  0.6973333  3
   7709   7705   7702   7714     1  0.0000000  1.0460000  1
   7709   7705   7702   7714     1  0.0000000  0.0000000  3
   7710   7707   7706   7712     1  0.0000000  0.6508444  3
   7719   7715   7721   7722     1  0.0000000  0.6973333  3
   7719   7715   7701   7723     1  0.0000000  1.0460000  1
   7719   7715   7701   7723     1  0.0000000  0.0000000  3
   7720   7715   7721   7722     1  0.0000000  0.6973333  3
   7720   7715   7701   7723     1  0.0000000  1.0460000  1
   7720   7715   7701   7723     1  0.0000000  0.0000000  3
   7724   7725   7728   7732     1  0.0000000  0.6508444  3
   7724   7725   7737   7740     1  0.0000000  1.0460000  1
   7724   7725   7737   7740     1  0.0000000  0.6694400  3
   7724   7738   7744   7745     1  0.0000000  1.0460000  1
   7724   7738   7744   7745     1  0.0000000  0.6694400  3
   7724   7746   7730   7733     1  0.0000000  1.6038667  3
   7725   7724   7738   7742     1  0.0000000  0.6508444  3
   7725   7724   7738   7743     1  0.0000000  0.6508444  3
   7725   7728   7729   7731     1  0.0000000  0.6508444  3
   7725   7728   7736   7739     1  0.0000000  1.0460000  1
   7725   7728   7736   7739     1  0.0000000  0.6694400  3
   7726   7724   7725   7728     1  0.0000000  0.6508444  3
   7726   7724   7725   7737     1  0.0000000  1.0460000  1
   7726   7724   7725   7737     1  0.0000000  0.0000000  3
   7726   7724   7725   7727     1  0.0000000  0.6508444  3
   7726   7724   7738   7744     1  0.0000000  1.0460000  1
   7726   7724   7738   7744     1  0.0000000  0.0000000  3
   7726   7724   7738   7742     1  0.0000000  0.6508444  3
   7726   7724   7738   7743     1  0.0000000  0.6508444  3
   7726   7724   7746   7730     1  0.0000000  1.6038667  3
   7727   7725   7724   7738     1  0.0000000  0.6508444  3
   7727   7725   7724   7746     1  0.0000000  1.0460000  1
   7727   7725   7724   7746     1  0.0000000  0.0000000  3
   7727   7725   7728   7729     1  0.0000000  0.6508444  3
   7727   7725   7728   7736     1  0.0000000  1.0460000  1
   7727   7725   7728   7736     1  0.0000000  0.0000000  3
   7727   7725   7728   7732     1  0.0000000  0.6508444  3
   7727   7725   7737   7740     1  0.0000000  0.6973333  3
   7728   7725   7737   7740     1  0.0000000  1.0460000  1
   7728   7725   7737   7740     1  0.0000000  0.6694400  3
   7728   7729   7730   7733     1  0.0000000  0.6508444  3
   7728   7729   7735   7741     1  0.0000000  1.0460000  1
   7728   7729   7735   7741     1  0.0000000  0.6694400  3
   7729   7728   7736   7739     1  0.0000000  1.0460000  1
   7729   7728   7736   7739     1  0.0000000  0.6694400  3
   7730   7729   7728   7732     1  0.0000000  0.6508444  3
   7730   7729   7735   7741     1  0.0000000  1.0460000  1
   7730   7729   7735   7741     1  0.0000000  0.6694400  3
   7731   7729   7728   7736     1  0.0000000  1.0460000  1
   7731   7729   7728   7736     1  0.0000000  0.0000000  3
   7731   7729   7728   7732     1  0.0000000  0.6508444  3
   7731   7729   7730   7734     1  0.0000000  1.0460000  1
   7731   7729   7730   7734     1  0.0000000  0.0000000  3
   7731   7729   7730   7746     1  0.0000000  1.0460000  1
   7731   7729   7730   7746     1  0.0000000  0.0000000  3
   7731   7729   7730   7733     1  0.0000000  0.6508444  3
   7731   7729   7735   7741     1  0.0000000  0.6973333  3
   7732   7728   7725   7737     1  0.0000000  1.0460000  1
   7732   7728   7725   7737     1  0.0000000  0.0000000  3
   7732   7728   7729   7735     1  0.0000000  1.0460000  1
   7732   7728   7729   7735     1  0.0000000  0.0000000  3
   7732   7728   7736   7739     1  0.0000000  0.6973333  3
   7733   7730   7729   7735     1  0.0000000  0.6508444  3
   7742   7738   7724   7746     1  0.0000000  1.0460000  1
   7742   7738   7724   7746     1  0.0000000  0.0000000  3
   7742   7738   7744   7745     1  0.0000000  0.6973333  3
   7743   7738   7724   7746     1  0.0000000  1.0460000  1
   7743   7738   7724   7746     1  0.0000000  0.0000000  3
   7743   7738   7744   7745     1  0.0000000  0.6973333  3
   7747   7748   7751   7755     1  0.0000000  0.6508444  3
   7747   7748   7760   7763     1  0.0000000  1.0460000  1
   7747   7748   7760   7763     1  0.0000000  0.6694400  3
   7747   7761   7767   7768     1  0.0000000  1.0460000  1
   7747   7761   7767   7768     1  0.0000000  0.6694400  3
   7747   7769   7753   7756     1  0.0000000  1.6038667  3
   7748   7751   7752   7754     1  0.0000000  0.6508444  3
   7748   7751   7759   7762     1  0.0000000  1.0460000  1
   7748   7751   7759   7762     1  0.0000000  0.6694400  3
   7748   7747   7761   7765     1  0.0000000  0.6508444  3
   7748   7747   7761   7766     1  0.0000000  0.6508444  3
   7749   7747   7748   7751     1  0.0000000  0.6508444  3
   7749   7747   7748   7760     1  0.0000000  1.0460000  1
   7749   7747   7748   7760     1  0.0000000  0.0000000  3
   7749   7747   7748   7750     1  0.0000000  0.6508444  3
   7749   7747   7761   7767     1  0.0000000  1.0460000  1
   7749   7747   7761   7767     1  0.0000000  0.0000000  3
   7749   7747   7761   7765     1  0.0000000  0.6508444  3
   7749   7747   7761   7766     1  0.0000000  0.6508444  3
   7749   7747   7769   7753     1  0.0000000  1.6038667  3
   7750   7748   7751   7752     1  0.0000000  0.6508444  3
   7750   7748   7751   7759     1  0.0000000  1.0460000  1
   7750   7748   7751   7759     1  0.0000000  0.0000000  3
   7750   7748   7751   7755     1  0.0000000  0.6508444  3
   7750   7748   7760   7763     1  0.0000000  0.6973333  3
   7750   7748   7747   7761     1  0.0000000  0.6508444  3
   7750   7748   7747   7769     1  0.0000000  1.0460000  1
   7750   7748   7747   7769     1  0.0000000  0.0000000  3
   7751   7752   7753   7756     1  0.0000000  0.6508444  3
   7751   7752   7758   7764     1  0.0000000  1.0460000  1
   7751   7752   7758   7764     1  0.0000000  0.6694400  3
   7751   7748   7760   7763     1  0.0000000  1.0460000  1
   7751   7748   7760   7763     1  0.0000000  0.6694400  3
   7752   7751   7759   7762     1  0.0000000  1.0460000  1
   7752   7751   7759   7762     1  0.0000000  0.6694400  3
   7753   7752   7758   7764     1  0.0000000  1.0460000  1
   7753   7752   7758   7764     1  0.0000000  0.6694400  3
   7753   7752   7751   7755     1  0.0000000  0.6508444  3
   7754   7752   7753   7757     1  0.0000000  1.0460000  1
   7754   7752   7753   7757     1  0.0000000  0.0000000  3
   7754   7752   7753   7769     1  0.0000000  1.0460000  1
   7754   7752   7753   7769     1  0.0000000  0.0000000  3
   7754   7752   7753   7756     1  0.0000000  0.6508444  3
   7754   7752   7758   7764     1  0.0000000  0.6973333  3
   7754   7752   7751   7759     1  0.0000000  1.0460000  1
   7754   7752   7751   7759     1  0.0000000  0.0000000  3
   7754   7752   7751   7755     1  0.0000000  0.6508444  3
   7755   7751   7752   7758     1  0.0000000  1.0460000  1
   7755   7751   7752   7758     1  0.0000000  0.0000000  3
   7755   7751   7759   7762     1  0.0000000  0.6973333  3
   7755   7751   7748   7760     1  0.0000000  1.0460000  1
   7755   7751   7748   7760     1  0.0000000  0.0000000  3
   7756   7753   7752   7758     1  0.0000000  0.6508444  3
   7765   7761   7767   7768     1  0.0000000  0.6973333  3
   7765   7761   7747   7769     1  0.0000000  1.0460000  1
   7765   7761   7747   7769     1  0.0000000  0.0000000  3
   7766   7761   7767   7768     1  0.0000000  0.6973333  3
   7766   7761   7747   7769     1  0.0000000  1.0460000  1
   7766   7761   7747   7769     1  0.0000000  0.0000000  3
   7770   7771   7774   7778     1  0.0000000  0.6508444  3
   7770   7771   7783   7786     1  0.0000000  1.0460000  1
   7770   7771   7783   7786     1  0.0000000  0.6694400  3
   7770   7784   7790   7791     1  0.0000000  1.0460000  1
   7770   7784   7790   7791     1  0.0000000  0.6694400  3
   7770   7792   7776   7779     1  0.0000000  1.6038667  3
   7771   7770   7784   7788     1  0.0000000  0.6508444  3
   7771   7770   7784   7789     1  0.0000000  0.6508444  3
   7771   7774   7775   7777     1  0.0000000  0.6508444  3
   7771   7774   7782   7785     1  0.0000000  1.0460000  1
   7771   7774   7782   7785     1  0.0000000  0.6694400  3
   7772   7770   7771   7774     1  0.0000000  0.6508444  3
   7772   7770   7771   7783     1  0.0000000  1.0460000  1
   7772   7770   7771   7783     1  0.0000000  0.0000000  3
   7772   7770   7771   7773     1  0.0000000  0.6508444  3
   7772   7770   7784   7790     1  0.0000000  1.0460000  1
   7772   7770   7784   7790     1  0.0000000  0.0000000  3
   7772   7770   7784   7788     1  0.0000000  0.6508444  3
   7772   7770   7784   7789     1  0.0000000  0.6508444  3
   7772   7770   7792   7776     1  0.0000000  1.6038667  3
   7773   7771   7770   7784     1  0.0000000  0.6508444  3
   7773   7771   7770   7792     1  0.0000000  1.0460000  1
   7773   7771   7770   7792     1  0.0000000  0.0000000  3
   7773   7771   7774   7775     1  0.0000000  0.6508444  3
   7773   7771   7774   7782     1  0.0000000  1.0460000  1
   7773   7771   7774   7782     1  0.0000000  0.0000000  3
   7773   7771   7774   7778     1  0.0000000  0.6508444  3
   7773   7771   7783   7786     1  0.0000000  0.6973333  3
   7774   7771   7783   7786     1  0.0000000  1.0460000  1
   7774   7771   7783   7786     1  0.0000000  0.6694400  3
   7774   7775   7776   7779     1  0.0000000  0.6508444  3
   7774   7775   7781   7787     1  0.0000000  1.0460000  1
   7774   7775   7781   7787     1  0.0000000  0.6694400  3
   7775   7774   7782   7785     1  0.0000000  1.0460000  1
   7775   7774   7782   7785     1  0.0000000  0.6694400  3
   7776   7775   7774   7778     1  0.0000000  0.6508444  3
   7776   7775   7781   7787     1  0.0000000  1.0460000  1
   7776   7775   7781   7787     1  0.0000000  0.6694400  3
   7777   7775   7774   7782     1  0.0000000  1.0460000  1
   7777   7775   7774   7782     1  0.0000000  0.0000000  3
   7777   7775   7774   7778     1  0.0000000  0.6508444  3
   7777   7775   7776   7780     1  0.0000000  1.0460000  1
   7777   7775   7776   7780     1  0.0000000  0.0000000  3
   7777   7775   7776   7792     1  0.0000000  1.0460000  1
   7777   7775   7776   7792     1  0.0000000  0.0000000  3
   7777   7775   7776   7779     1  0.0000000  0.6508444  3
   7777   7775   7781   7787     1  0.0000000  0.6973333  3
   7778   7774   7771   7783     1  0.0000000  1.0460000  1
   7778   7774   7771   7783     1  0.0000000  0.0000000  3
   7778   7774   7775   7781     1  0.0000000  1.0460000  1
   7778   7774   7775   7781     1  0.0000000  0.0000000  3
   7778   7774   7782   7785     1  0.0000000  0.6973333  3
   7779   7776   7775   7781     1  0.0000000  0.6508444  3
   7788   7784   7770   7792     1  0.0000000  1.0460000  1
   7788   7784   7770   7792     1  0.0000000  0.0000000  3
   7788   7784   7790   7791     1  0.0000000  0.6973333  3
   7789   7784   7770   7792     1  0.0000000  1.0460000  1
   7789   7784   7770   7792     1  0.0000000  0.0000000  3
   7789   7784   7790   7791     1  0.0000000  0.6973333  3
   7793   7794   7797   7801     1  0.0000000  0.6508444  3
   7793   7794   7806   7809     1  0.0000000  1.0460000  1
   7793   7794   7806   7809     1  0.0000000  0.6694400  3
   7793   7807   7813   7814     1  0.0000000  1.0460000  1
   7793   7807   7813   7814     1  0.0000000  0.6694400  3
   7793   7815   7799   7802     1  0.0000000  1.6038667  3
   7794   7797   7798   7800     1  0.0000000  0.6508444  3
   7794   7797   7805   7808     1  0.0000000  1.0460000  1
   7794   7797   7805   7808     1  0.0000000  0.6694400  3
   7794   7793   7807   7811     1  0.0000000  0.6508444  3
   7794   7793   7807   7812     1  0.0000000  0.6508444  3
   7795   7793   7794   7797     1  0.0000000  0.6508444  3
   7795   7793   7794   7806     1  0.0000000  1.0460000  1
   7795   7793   7794   7806     1  0.0000000  0.0000000  3
   7795   7793   7794   7796     1  0.0000000  0.6508444  3
   7795   7793   7807   7813     1  0.0000000  1.0460000  1
   7795   7793   7807   7813     1  0.0000000  0.0000000  3
   7795   7793   7807   7811     1  0.0000000  0.6508444  3
   7795   7793   7807   7812     1  0.0000000  0.6508444  3
   7795   7793   7815   7799     1  0.0000000  1.6038667  3
   7796   7794   7797   7798     1  0.0000000  0.6508444  3
   7796   7794   7797   7805     1  0.0000000  1.0460000  1
   7796   7794   7797   7805     1  0.0000000  0.0000000  3
   7796   7794   7797   7801     1  0.0000000  0.6508444  3
   7796   7794   7806   7809     1  0.0000000  0.6973333  3
   7796   7794   7793   7807     1  0.0000000  0.6508444  3
   7796   7794   7793   7815     1  0.0000000  1.0460000  1
   7796   7794   7793   7815     1  0.0000000  0.0000000  3
   7797   7798   7799   7802     1  0.0000000  0.6508444  3
   7797   7798   7804   7810     1  0.0000000  1.0460000  1
   7797   7798   7804   7810     1  0.0000000  0.6694400  3
   7797   7794   7806   7809     1  0.0000000  1.0460000  1
   7797   7794   7806   7809     1  0.0000000  0.6694400  3
   7798   7797   7805   7808     1  0.0000000  1.0460000  1
   7798   7797   7805   7808     1  0.0000000  0.6694400  3
   7799   7798   7804   7810     1  0.0000000  1.0460000  1
   7799   7798   7804   7810     1  0.0000000  0.6694400  3
   7799   7798   7797   7801     1  0.0000000  0.6508444  3
   7800   7798   7799   7803     1  0.0000000  1.0460000  1
   7800   7798   7799   7803     1  0.0000000  0.0000000  3
   7800   7798   7799   7815     1  0.0000000  1.0460000  1
   7800   7798   7799   7815     1  0.0000000  0.0000000  3
   7800   7798   7799   7802     1  0.0000000  0.6508444  3
   7800   7798   7804   7810     1  0.0000000  0.6973333  3
   7800   7798   7797   7805     1  0.0000000  1.0460000  1
   7800   7798   7797   7805     1  0.0000000  0.0000000  3
   7800   7798   7797   7801     1  0.0000000  0.6508444  3
   7801   7797   7798   7804     1  0.0000000  1.0460000  1
   7801   7797   7798   7804     1  0.0000000  0.0000000  3
   7801   7797   7805   7808     1  0.0000000  0.6973333  3
   7801   7797   7794   7806     1  0.0000000  1.0460000  1
   7801   7797   7794   7806     1  0.0000000  0.0000000  3
   7802   7799   7798   7804     1  0.0000000  0.6508444  3
   7811   7807   7813   7814     1  0.0000000  0.6973333  3
   7811   7807   7793   7815     1  0.0000000  1.0460000  1
   7811   7807   7793   7815     1  0.0000000  0.0000000  3
   7812   7807   7813   7814     1  0.0000000  0.6973333  3
   7812   7807   7793   7815     1  0.0000000  1.0460000  1
   7812   7807   7793   7815     1  0.0000000  0.0000000  3
   7816   7817   7820   7824     1  0.0000000  0.6508444  3
   7816   7817   7829   7832     1  0.0000000  1.0460000  1
   7816   7817   7829   7832     1  0.0000000  0.6694400  3
   7816   7830   7836   7837     1  0.0000000  1.0460000  1
   7816   7830   7836   7837     1  0.0000000  0.6694400  3
   7816   7838   7822   7825     1  0.0000000  1.6038667  3
   7817   7816   7830   7834     1  0.0000000  0.6508444  3
   7817   7816   7830   7835     1  0.0000000  0.6508444  3
   7817   7820   7821   7823     1  0.0000000  0.6508444  3
   7817   7820   7828   7831     1  0.0000000  1.0460000  1
   7817   7820   7828   7831     1  0.0000000  0.6694400  3
   7818   7816   7817   7820     1  0.0000000  0.6508444  3
   7818   7816   7817   7829     1  0.0000000  1.0460000  1
   7818   7816   7817   7829     1  0.0000000  0.0000000  3
   7818   7816   7817   7819     1  0.0000000  0.6508444  3
   7818   7816   7830   7836     1  0.0000000  1.0460000  1
   7818   7816   7830   7836     1  0.0000000  0.0000000  3
   7818   7816   7830   7834     1  0.0000000  0.6508444  3
   7818   7816   7830   7835     1  0.0000000  0.6508444  3
   7818   7816   7838   7822     1  0.0000000  1.6038667  3
   7819   7817   7816   7830     1  0.0000000  0.6508444  3
   7819   7817   7816   7838     1  0.0000000  1.0460000  1
   7819   7817   7816   7838     1  0.0000000  0.0000000  3
   7819   7817   7820   7821     1  0.0000000  0.6508444  3
   7819   7817   7820   7828     1  0.0000000  1.0460000  1
   7819   7817   7820   7828     1  0.0000000  0.0000000  3
   7819   7817   7820   7824     1  0.0000000  0.6508444  3
   7819   7817   7829   7832     1  0.0000000  0.6973333  3
   7820   7817   7829   7832     1  0.0000000  1.0460000  1
   7820   7817   7829   7832     1  0.0000000  0.6694400  3
   7820   7821   7822   7825     1  0.0000000  0.6508444  3
   7820   7821   7827   7833     1  0.0000000  1.0460000  1
   7820   7821   7827   7833     1  0.0000000  0.6694400  3
   7821   7820   7828   7831     1  0.0000000  1.0460000  1
   7821   7820   7828   7831     1  0.0000000  0.6694400  3
   7822   7821   7820   7824     1  0.0000000  0.6508444  3
   7822   7821   7827   7833     1  0.0000000  1.0460000  1
   7822   7821   7827   7833     1  0.0000000  0.6694400  3
   7823   7821   7820   7828     1  0.0000000  1.0460000  1
   7823   7821   7820   7828     1  0.0000000  0.0000000  3
   7823   7821   7820   7824     1  0.0000000  0.6508444  3
   7823   7821   7822   7826     1  0.0000000  1.0460000  1
   7823   7821   7822   7826     1  0.0000000  0.0000000  3
   7823   7821   7822   7838     1  0.0000000  1.0460000  1
   7823   7821   7822   7838     1  0.0000000  0.0000000  3
   7823   7821   7822   7825     1  0.0000000  0.6508444  3
   7823   7821   7827   7833     1  0.0000000  0.6973333  3
   7824   7820   7817   7829     1  0.0000000  1.0460000  1
   7824   7820   7817   7829     1  0.0000000  0.0000000  3
   7824   7820   7821   7827     1  0.0000000  1.0460000  1
   7824   7820   7821   7827     1  0.0000000  0.0000000  3
   7824   7820   7828   7831     1  0.0000000  0.6973333  3
   7825   7822   7821   7827     1  0.0000000  0.6508444  3
   7834   7830   7816   7838     1  0.0000000  1.0460000  1
   7834   7830   7816   7838     1  0.0000000  0.0000000  3
   7834   7830   7836   7837     1  0.0000000  0.6973333  3
   7835   7830   7816   7838     1  0.0000000  1.0460000  1
   7835   7830   7816   7838     1  0.0000000  0.0000000  3
   7835   7830   7836   7837     1  0.0000000  0.6973333  3
   7839   7840   7843   7847     1  0.0000000  0.6508444  3
   7839   7840   7852   7855     1  0.0000000  1.0460000  1
   7839   7840   7852   7855     1  0.0000000  0.6694400  3
   7839   7853   7859   7860     1  0.0000000  1.0460000  1
   7839   7853   7859   7860     1  0.0000000  0.6694400  3
   7839   7861   7845   7848     1  0.0000000  1.6038667  3
   7840   7843   7844   7846     1  0.0000000  0.6508444  3
   7840   7843   7851   7854     1  0.0000000  1.0460000  1
   7840   7843   7851   7854     1  0.0000000  0.6694400  3
   7840   7839   7853   7857     1  0.0000000  0.6508444  3
   7840   7839   7853   7858     1  0.0000000  0.6508444  3
   7841   7839   7840   7843     1  0.0000000  0.6508444  3
   7841   7839   7840   7852     1  0.0000000  1.0460000  1
   7841   7839   7840   7852     1  0.0000000  0.0000000  3
   7841   7839   7840   7842     1  0.0000000  0.6508444  3
   7841   7839   7853   7859     1  0.0000000  1.0460000  1
   7841   7839   7853   7859     1  0.0000000  0.0000000  3
   7841   7839   7853   7857     1  0.0000000  0.6508444  3
   7841   7839   7853   7858     1  0.0000000  0.6508444  3
   7841   7839   7861   7845     1  0.0000000  1.6038667  3
   7842   7840   7843   7844     1  0.0000000  0.6508444  3
   7842   7840   7843   7851     1  0.0000000  1.0460000  1
   7842   7840   7843   7851     1  0.0000000  0.0000000  3
   7842   7840   7843   7847     1  0.0000000  0.6508444  3
   7842   7840   7852   7855     1  0.0000000  0.6973333  3
   7842   7840   7839   7853     1  0.0000000  0.6508444  3
   7842   7840   7839   7861     1  0.0000000  1.0460000  1
   7842   7840   7839   7861     1  0.0000000  0.0000000  3
   7843   7844   7845   7848     1  0.0000000  0.6508444  3
   7843   7844   7850   7856     1  0.0000000  1.0460000  1
   7843   7844   7850   7856     1  0.0000000  0.6694400  3
   7843   7840   7852   7855     1  0.0000000  1.0460000  1
   7843   7840   7852   7855     1  0.0000000  0.6694400  3
   7844   7843   7851   7854     1  0.0000000  1.0460000  1
   7844   7843   7851   7854     1  0.0000000  0.6694400  3
   7845   7844   7850   7856     1  0.0000000  1.0460000  1
   7845   7844   7850   7856     1  0.0000000  0.6694400  3
   7845   7844   7843   7847     1  0.0000000  0.6508444  3
   7846   7844   7845   7849     1  0.0000000  1.0460000  1
   7846   7844   7845   7849     1  0.0000000  0.0000000  3
   7846   7844   7845   7861     1  0.0000000  1.0460000  1
   7846   7844   7845   7861     1  0.0000000  0.0000000  3
   7846   7844   7845   7848     1  0.0000000  0.6508444  3
   7846   7844   7850   7856     1  0.0000000  0.6973333  3
   7846   7844   7843   7851     1  0.0000000  1.0460000  1
   7846   7844   7843   7851     1  0.0000000  0.0000000  3
   7846   7844   7843   7847     1  0.0000000  0.6508444  3
   7847   7843   7844   7850     1  0.0000000  1.0460000  1
   7847   7843   7844   7850     1  0.0000000  0.0000000  3
   7847   7843   7851   7854     1  0.0000000  0.6973333  3
   7847   7843   7840   7852     1  0.0000000  1.0460000  1
   7847   7843   7840   7852     1  0.0000000  0.0000000  3
   7848   7845   7844   7850     1  0.0000000  0.6508444  3
   7857   7853   7859   7860     1  0.0000000  0.6973333  3
   7857   7853   7839   7861     1  0.0000000  1.0460000  1
   7857   7853   7839   7861     1  0.0000000  0.0000000  3
   7858   7853   7859   7860     1  0.0000000  0.6973333  3
   7858   7853   7839   7861     1  0.0000000  1.0460000  1
   7858   7853   7839   7861     1  0.0000000  0.0000000  3
   7862   7863   7866   7870     1  0.0000000  0.6508444  3
   7862   7863   7875   7878     1  0.0000000  1.0460000  1
   7862   7863   7875   7878     1  0.0000000  0.6694400  3
   7862   7876   7882   7883     1  0.0000000  1.0460000  1
   7862   7876   7882   7883     1  0.0000000  0.6694400  3
   7862   7884   7868   7871     1  0.0000000  1.6038667  3
   7863   7862   7876   7880     1  0.0000000  0.6508444  3
   7863   7862   7876   7881     1  0.0000000  0.6508444  3
   7863   7866   7867   7869     1  0.0000000  0.6508444  3
   7863   7866   7874   7877     1  0.0000000  1.0460000  1
   7863   7866   7874   7877     1  0.0000000  0.6694400  3
   7864   7862   7863   7866     1  0.0000000  0.6508444  3
   7864   7862   7863   7875     1  0.0000000  1.0460000  1
   7864   7862   7863   7875     1  0.0000000  0.0000000  3
   7864   7862   7863   7865     1  0.0000000  0.6508444  3
   7864   7862   7876   7882     1  0.0000000  1.0460000  1
   7864   7862   7876   7882     1  0.0000000  0.0000000  3
   7864   7862   7876   7880     1  0.0000000  0.6508444  3
   7864   7862   7876   7881     1  0.0000000  0.6508444  3
   7864   7862   7884   7868     1  0.0000000  1.6038667  3
   7865   7863   7862   7876     1  0.0000000  0.6508444  3
   7865   7863   7862   7884     1  0.0000000  1.0460000  1
   7865   7863   7862   7884     1  0.0000000  0.0000000  3
   7865   7863   7866   7867     1  0.0000000  0.6508444  3
   7865   7863   7866   7874     1  0.0000000  1.0460000  1
   7865   7863   7866   7874     1  0.0000000  0.0000000  3
   7865   7863   7866   7870     1  0.0000000  0.6508444  3
   7865   7863   7875   7878     1  0.0000000  0.6973333  3
   7866   7863   7875   7878     1  0.0000000  1.0460000  1
   7866   7863   7875   7878     1  0.0000000  0.6694400  3
   7866   7867   7868   7871     1  0.0000000  0.6508444  3
   7866   7867   7873   7879     1  0.0000000  1.0460000  1
   7866   7867   7873   7879     1  0.0000000  0.6694400  3
   7867   7866   7874   7877     1  0.0000000  1.0460000  1
   7867   7866   7874   7877     1  0.0000000  0.6694400  3
   7868   7867   7866   7870     1  0.0000000  0.6508444  3
   7868   7867   7873   7879     1  0.0000000  1.0460000  1
   7868   7867   7873   7879     1  0.0000000  0.6694400  3
   7869   7867   7866   7874     1  0.0000000  1.0460000  1
   7869   7867   7866   7874     1  0.0000000  0.0000000  3
   7869   7867   7866   7870     1  0.0000000  0.6508444  3
   7869   7867   7868   7872     1  0.0000000  1.0460000  1
   7869   7867   7868   7872     1  0.0000000  0.0000000  3
   7869   7867   7868   7884     1  0.0000000  1.0460000  1
   7869   7867   7868   7884     1  0.0000000  0.0000000  3
   7869   7867   7868   7871     1  0.0000000  0.6508444  3
   7869   7867   7873   7879     1  0.0000000  0.6973333  3
   7870   7866   7863   7875     1  0.0000000  1.0460000  1
   7870   7866   7863   7875     1  0.0000000  0.0000000  3
   7870   7866   7867   7873     1  0.0000000  1.0460000  1
   7870   7866   7867   7873     1  0.0000000  0.0000000  3
   7870   7866   7874   7877     1  0.0000000  0.6973333  3
   7871   7868   7867   7873     1  0.0000000  0.6508444  3
   7880   7876   7862   7884     1  0.0000000  1.0460000  1
   7880   7876   7862   7884     1  0.0000000  0.0000000  3
   7880   7876   7882   7883     1  0.0000000  0.6973333  3
   7881   7876   7862   7884     1  0.0000000  1.0460000  1
   7881   7876   7862   7884     1  0.0000000  0.0000000  3
   7881   7876   7882   7883     1  0.0000000  0.6973333  3
   7885   7886   7889   7893     1  0.0000000  0.6508444  3
   7885   7886   7898   7901     1  0.0000000  1.0460000  1
   7885   7886   7898   7901     1  0.0000000  0.6694400  3
   7885   7899   7905   7906     1  0.0000000  1.0460000  1
   7885   7899   7905   7906     1  0.0000000  0.6694400  3
   7885   7907   7891   7894     1  0.0000000  1.6038667  3
   7886   7889   7890   7892     1  0.0000000  0.6508444  3
   7886   7889   7897   7900     1  0.0000000  1.0460000  1
   7886   7889   7897   7900     1  0.0000000  0.6694400  3
   7886   7885   7899   7903     1  0.0000000  0.6508444  3
   7886   7885   7899   7904     1  0.0000000  0.6508444  3
   7887   7885   7886   7889     1  0.0000000  0.6508444  3
   7887   7885   7886   7898     1  0.0000000  1.0460000  1
   7887   7885   7886   7898     1  0.0000000  0.0000000  3
   7887   7885   7886   7888     1  0.0000000  0.6508444  3
   7887   7885   7899   7905     1  0.0000000  1.0460000  1
   7887   7885   7899   7905     1  0.0000000  0.0000000  3
   7887   7885   7899   7903     1  0.0000000  0.6508444  3
   7887   7885   7899   7904     1  0.0000000  0.6508444  3
   7887   7885   7907   7891     1  0.0000000  1.6038667  3
   7888   7886   7889   7890     1  0.0000000  0.6508444  3
   7888   7886   7889   7897     1  0.0000000  1.0460000  1
   7888   7886   7889   7897     1  0.0000000  0.0000000  3
   7888   7886   7889   7893     1  0.0000000  0.6508444  3
   7888   7886   7898   7901     1  0.0000000  0.6973333  3
   7888   7886   7885   7899     1  0.0000000  0.6508444  3
   7888   7886   7885   7907     1  0.0000000  1.0460000  1
   7888   7886   7885   7907     1  0.0000000  0.0000000  3
   7889   7890   7891   7894     1  0.0000000  0.6508444  3
   7889   7890   7896   7902     1  0.0000000  1.0460000  1
   7889   7890   7896   7902     1  0.0000000  0.6694400  3
   7889   7886   7898   7901     1  0.0000000  1.0460000  1
   7889   7886   7898   7901     1  0.0000000  0.6694400  3
   7890   7889   7897   7900     1  0.0000000  1.0460000  1
   7890   7889   7897   7900     1  0.0000000  0.6694400  3
   7891   7890   7896   7902     1  0.0000000  1.0460000  1
   7891   7890   7896   7902     1  0.0000000  0.6694400  3
   7891   7890   7889   7893     1  0.0000000  0.6508444  3
   7892   7890   7891   7895     1  0.0000000  1.0460000  1
   7892   7890   7891   7895     1  0.0000000  0.0000000  3
   7892   7890   7891   7907     1  0.0000000  1.0460000  1
   7892   7890   7891   7907     1  0.0000000  0.0000000  3
   7892   7890   7891   7894     1  0.0000000  0.6508444  3
   7892   7890   7896   7902     1  0.0000000  0.6973333  3
   7892   7890   7889   7897     1  0.0000000  1.0460000  1
   7892   7890   7889   7897     1  0.0000000  0.0000000  3
   7892   7890   7889   7893     1  0.0000000  0.6508444  3
   7893   7889   7890   7896     1  0.0000000  1.0460000  1
   7893   7889   7890   7896     1  0.0000000  0.0000000  3
   7893   7889   7897   7900     1  0.0000000  0.6973333  3
   7893   7889   7886   7898     1  0.0000000  1.0460000  1
   7893   7889   7886   7898     1  0.0000000  0.0000000  3
   7894   7891   7890   7896     1  0.0000000  0.6508444  3
   7903   7899   7905   7906     1  0.0000000  0.6973333  3
   7903   7899   7885   7907     1  0.0000000  1.0460000  1
   7903   7899   7885   7907     1  0.0000000  0.0000000  3
   7904   7899   7905   7906     1  0.0000000  0.6973333  3
   7904   7899   7885   7907     1  0.0000000  1.0460000  1
   7904   7899   7885   7907     1  0.0000000  0.0000000  3
   7908   7909   7912   7916     1  0.0000000  0.6508444  3
   7908   7909   7921   7924     1  0.0000000  1.0460000  1
   7908   7909   7921   7924     1  0.0000000  0.6694400  3
   7908   7922   7928   7929     1  0.0000000  1.0460000  1
   7908   7922   7928   7929     1  0.0000000  0.6694400  3
   7908   7930   7914   7917     1  0.0000000  1.6038667  3
   7909   7908   7922   7926     1  0.0000000  0.6508444  3
   7909   7908   7922   7927     1  0.0000000  0.6508444  3
   7909   7912   7913   7915     1  0.0000000  0.6508444  3
   7909   7912   7920   7923     1  0.0000000  1.0460000  1
   7909   7912   7920   7923     1  0.0000000  0.6694400  3
   7910   7908   7909   7912     1  0.0000000  0.6508444  3
   7910   7908   7909   7921     1  0.0000000  1.0460000  1
   7910   7908   7909   7921     1  0.0000000  0.0000000  3
   7910   7908   7909   7911     1  0.0000000  0.6508444  3
   7910   7908   7922   7928     1  0.0000000  1.0460000  1
   7910   7908   7922   7928     1  0.0000000  0.0000000  3
   7910   7908   7922   7926     1  0.0000000  0.6508444  3
   7910   7908   7922   7927     1  0.0000000  0.6508444  3
   7910   7908   7930   7914     1  0.0000000  1.6038667  3
   7911   7909   7908   7922     1  0.0000000  0.6508444  3
   7911   7909   7908   7930     1  0.0000000  1.0460000  1
   7911   7909   7908   7930     1  0.0000000  0.0000000  3
   7911   7909   7912   7913     1  0.0000000  0.6508444  3
   7911   7909   7912   7920     1  0.0000000  1.0460000  1
   7911   7909   7912   7920     1  0.0000000  0.0000000  3
   7911   7909   7912   7916     1  0.0000000  0.6508444  3
   7911   7909   7921   7924     1  0.0000000  0.6973333  3
   7912   7909   7921   7924     1  0.0000000  1.0460000  1
   7912   7909   7921   7924     1  0.0000000  0.6694400  3
   7912   7913   7914   7917     1  0.0000000  0.6508444  3
   7912   7913   7919   7925     1  0.0000000  1.0460000  1
   7912   7913   7919   7925     1  0.0000000  0.6694400  3
   7913   7912   7920   7923     1  0.0000000  1.0460000  1
   7913   7912   7920   7923     1  0.0000000  0.6694400  3
   7914   7913   7912   7916     1  0.0000000  0.6508444  3
   7914   7913   7919   7925     1  0.0000000  1.0460000  1
   7914   7913   7919   7925     1  0.0000000  0.6694400  3
   7915   7913   7912   7920     1  0.0000000  1.0460000  1
   7915   7913   7912   7920     1  0.0000000  0.0000000  3
   7915   7913   7912   7916     1  0.0000000  0.6508444  3
   7915   7913   7914   7918     1  0.0000000  1.0460000  1
   7915   7913   7914   7918     1  0.0000000  0.0000000  3
   7915   7913   7914   7930     1  0.0000000  1.0460000  1
   7915   7913   7914   7930     1  0.0000000  0.0000000  3
   7915   7913   7914   7917     1  0.0000000  0.6508444  3
   7915   7913   7919   7925     1  0.0000000  0.6973333  3
   7916   7912   7909   7921     1  0.0000000  1.0460000  1
   7916   7912   7909   7921     1  0.0000000  0.0000000  3
   7916   7912   7913   7919     1  0.0000000  1.0460000  1
   7916   7912   7913   7919     1  0.0000000  0.0000000  3
   7916   7912   7920   7923     1  0.0000000  0.6973333  3
   7917   7914   7913   7919     1  0.0000000  0.6508444  3
   7926   7922   7908   7930     1  0.0000000  1.0460000  1
   7926   7922   7908   7930     1  0.0000000  0.0000000  3
   7926   7922   7928   7929     1  0.0000000  0.6973333  3
   7927   7922   7908   7930     1  0.0000000  1.0460000  1
   7927   7922   7908   7930     1  0.0000000  0.0000000  3
   7927   7922   7928   7929     1  0.0000000  0.6973333  3
   7931   7932   7935   7939     1  0.0000000  0.6508444  3
   7931   7932   7944   7947     1  0.0000000  1.0460000  1
   7931   7932   7944   7947     1  0.0000000  0.6694400  3
   7931   7945   7951   7952     1  0.0000000  1.0460000  1
   7931   7945   7951   7952     1  0.0000000  0.6694400  3
   7931   7953   7937   7940     1  0.0000000  1.6038667  3
   7932   7935   7936   7938     1  0.0000000  0.6508444  3
   7932   7935   7943   7946     1  0.0000000  1.0460000  1
   7932   7935   7943   7946     1  0.0000000  0.6694400  3
   7932   7931   7945   7949     1  0.0000000  0.6508444  3
   7932   7931   7945   7950     1  0.0000000  0.6508444  3
   7933   7931   7932   7935     1  0.0000000  0.6508444  3
   7933   7931   7932   7944     1  0.0000000  1.0460000  1
   7933   7931   7932   7944     1  0.0000000  0.0000000  3
   7933   7931   7932   7934     1  0.0000000  0.6508444  3
   7933   7931   7945   7951     1  0.0000000  1.0460000  1
   7933   7931   7945   7951     1  0.0000000  0.0000000  3
   7933   7931   7945   7949     1  0.0000000  0.6508444  3
   7933   7931   7945   7950     1  0.0000000  0.6508444  3
   7933   7931   7953   7937     1  0.0000000  1.6038667  3
   7934   7932   7935   7936     1  0.0000000  0.6508444  3
   7934   7932   7935   7943     1  0.0000000  1.0460000  1
   7934   7932   7935   7943     1  0.0000000  0.0000000  3
   7934   7932   7935   7939     1  0.0000000  0.6508444  3
   7934   7932   7944   7947     1  0.0000000  0.6973333  3
   7934   7932   7931   7945     1  0.0000000  0.6508444  3
   7934   7932   7931   7953     1  0.0000000  1.0460000  1
   7934   7932   7931   7953     1  0.0000000  0.0000000  3
   7935   7936   7937   7940     1  0.0000000  0.6508444  3
   7935   7936   7942   7948     1  0.0000000  1.0460000  1
   7935   7936   7942   7948     1  0.0000000  0.6694400  3
   7935   7932   7944   7947     1  0.0000000  1.0460000  1
   7935   7932   7944   7947     1  0.0000000  0.6694400  3
   7936   7935   7943   7946     1  0.0000000  1.0460000  1
   7936   7935   7943   7946     1  0.0000000  0.6694400  3
   7937   7936   7942   7948     1  0.0000000  1.0460000  1
   7937   7936   7942   7948     1  0.0000000  0.6694400  3
   7937   7936   7935   7939     1  0.0000000  0.6508444  3
   7938   7936   7937   7941     1  0.0000000  1.0460000  1
   7938   7936   7937   7941     1  0.0000000  0.0000000  3
   7938   7936   7937   7953     1  0.0000000  1.0460000  1
   7938   7936   7937   7953     1  0.0000000  0.0000000  3
   7938   7936   7937   7940     1  0.0000000  0.6508444  3
   7938   7936   7942   7948     1  0.0000000  0.6973333  3
   7938   7936   7935   7943     1  0.0000000  1.0460000  1
   7938   7936   7935   7943     1  0.0000000  0.0000000  3
   7938   7936   7935   7939     1  0.0000000  0.6508444  3
   7939   7935   7936   7942     1  0.0000000  1.0460000  1
   7939   7935   7936   7942     1  0.0000000  0.0000000  3
   7939   7935   7943   7946     1  0.0000000  0.6973333  3
   7939   7935   7932   7944     1  0.0000000  1.0460000  1
   7939   7935   7932   7944     1  0.0000000  0.0000000  3
   7940   7937   7936   7942     1  0.0000000  0.6508444  3
   7949   7945   7951   7952     1  0.0000000  0.6973333  3
   7949   7945   7931   7953     1  0.0000000  1.0460000  1
   7949   7945   7931   7953     1  0.0000000  0.0000000  3
   7950   7945   7951   7952     1  0.0000000  0.6973333  3
   7950   7945   7931   7953     1  0.0000000  1.0460000  1
   7950   7945   7931   7953     1  0.0000000  0.0000000  3
   7954   7955   7958   7962     1  0.0000000  0.6508444  3
   7954   7955   7967   7970     1  0.0000000  1.0460000  1
   7954   7955   7967   7970     1  0.0000000  0.6694400  3
   7954   7968   7974   7975     1  0.0000000  1.0460000  1
   7954   7968   7974   7975     1  0.0000000  0.6694400  3
   7954   7976   7960   7963     1  0.0000000  1.6038667  3
   7955   7954   7968   7972     1  0.0000000  0.6508444  3
   7955   7954   7968   7973     1  0.0000000  0.6508444  3
   7955   7958   7959   7961     1  0.0000000  0.6508444  3
   7955   7958   7966   7969     1  0.0000000  1.0460000  1
   7955   7958   7966   7969     1  0.0000000  0.6694400  3
   7956   7954   7955   7958     1  0.0000000  0.6508444  3
   7956   7954   7955   7967     1  0.0000000  1.0460000  1
   7956   7954   7955   7967     1  0.0000000  0.0000000  3
   7956   7954   7955   7957     1  0.0000000  0.6508444  3
   7956   7954   7968   7974     1  0.0000000  1.0460000  1
   7956   7954   7968   7974     1  0.0000000  0.0000000  3
   7956   7954   7968   7972     1  0.0000000  0.6508444  3
   7956   7954   7968   7973     1  0.0000000  0.6508444  3
   7956   7954   7976   7960     1  0.0000000  1.6038667  3
   7957   7955   7954   7968     1  0.0000000  0.6508444  3
   7957   7955   7954   7976     1  0.0000000  1.0460000  1
   7957   7955   7954   7976     1  0.0000000  0.0000000  3
   7957   7955   7958   7959     1  0.0000000  0.6508444  3
   7957   7955   7958   7966     1  0.0000000  1.0460000  1
   7957   7955   7958   7966     1  0.0000000  0.0000000  3
   7957   7955   7958   7962     1  0.0000000  0.6508444  3
   7957   7955   7967   7970     1  0.0000000  0.6973333  3
   7958   7955   7967   7970     1  0.0000000  1.0460000  1
   7958   7955   7967   7970     1  0.0000000  0.6694400  3
   7958   7959   7960   7963     1  0.0000000  0.6508444  3
   7958   7959   7965   7971     1  0.0000000  1.0460000  1
   7958   7959   7965   7971     1  0.0000000  0.6694400  3
   7959   7958   7966   7969     1  0.0000000  1.0460000  1
   7959   7958   7966   7969     1  0.0000000  0.6694400  3
   7960   7959   7958   7962     1  0.0000000  0.6508444  3
   7960   7959   7965   7971     1  0.0000000  1.0460000  1
   7960   7959   7965   7971     1  0.0000000  0.6694400  3
   7961   7959   7958   7966     1  0.0000000  1.0460000  1
   7961   7959   7958   7966     1  0.0000000  0.0000000  3
   7961   7959   7958   7962     1  0.0000000  0.6508444  3
   7961   7959   7960   7964     1  0.0000000  1.0460000  1
   7961   7959   7960   7964     1  0.0000000  0.0000000  3
   7961   7959   7960   7976     1  0.0000000  1.0460000  1
   7961   7959   7960   7976     1  0.0000000  0.0000000  3
   7961   7959   7960   7963     1  0.0000000  0.6508444  3
   7961   7959   7965   7971     1  0.0000000  0.6973333  3
   7962   7958   7955   7967     1  0.0000000  1.0460000  1
   7962   7958   7955   7967     1  0.0000000  0.0000000  3
   7962   7958   7959   7965     1  0.0000000  1.0460000  1
   7962   7958   7959   7965     1  0.0000000  0.0000000  3
   7962   7958   7966   7969     1  0.0000000  0.6973333  3
   7963   7960   7959   7965     1  0.0000000  0.6508444  3
   7972   7968   7954   7976     1  0.0000000  1.0460000  1
   7972   7968   7954   7976     1  0.0000000  0.0000000  3
   7972   7968   7974   7975     1  0.0000000  0.6973333  3
   7973   7968   7954   7976     1  0.0000000  1.0460000  1
   7973   7968   7954   7976     1  0.0000000  0.0000000  3
   7973   7968   7974   7975     1  0.0000000  0.6973333  3
   7977   7978   7981   7985     1  0.0000000  0.6508444  3
   7977   7978   7990   7993     1  0.0000000  1.0460000  1
   7977   7978   7990   7993     1  0.0000000  0.6694400  3
   7977   7991   7997   7998     1  0.0000000  1.0460000  1
   7977   7991   7997   7998     1  0.0000000  0.6694400  3
   7977   7999   7983   7986     1  0.0000000  1.6038667  3
   7978   7981   7982   7984     1  0.0000000  0.6508444  3
   7978   7981   7989   7992     1  0.0000000  1.0460000  1
   7978   7981   7989   7992     1  0.0000000  0.6694400  3
   7978   7977   7991   7995     1  0.0000000  0.6508444  3
   7978   7977   7991   7996     1  0.0000000  0.6508444  3
   7979   7977   7978   7981     1  0.0000000  0.6508444  3
   7979   7977   7978   7990     1  0.0000000  1.0460000  1
   7979   7977   7978   7990     1  0.0000000  0.0000000  3
   7979   7977   7978   7980     1  0.0000000  0.6508444  3
   7979   7977   7991   7997     1  0.0000000  1.0460000  1
   7979   7977   7991   7997     1  0.0000000  0.0000000  3
   7979   7977   7991   7995     1  0.0000000  0.6508444  3
   7979   7977   7991   7996     1  0.0000000  0.6508444  3
   7979   7977   7999   7983     1  0.0000000  1.6038667  3
   7980   7978   7981   7982     1  0.0000000  0.6508444  3
   7980   7978   7981   7989     1  0.0000000  1.0460000  1
   7980   7978   7981   7989     1  0.0000000  0.0000000  3
   7980   7978   7981   7985     1  0.0000000  0.6508444  3
   7980   7978   7990   7993     1  0.0000000  0.6973333  3
   7980   7978   7977   7991     1  0.0000000  0.6508444  3
   7980   7978   7977   7999     1  0.0000000  1.0460000  1
   7980   7978   7977   7999     1  0.0000000  0.0000000  3
   7981   7982   7983   7986     1  0.0000000  0.6508444  3
   7981   7982   7988   7994     1  0.0000000  1.0460000  1
   7981   7982   7988   7994     1  0.0000000  0.6694400  3
   7981   7978   7990   7993     1  0.0000000  1.0460000  1
   7981   7978   7990   7993     1  0.0000000  0.6694400  3
   7982   7981   7989   7992     1  0.0000000  1.0460000  1
   7982   7981   7989   7992     1  0.0000000  0.6694400  3
   7983   7982   7988   7994     1  0.0000000  1.0460000  1
   7983   7982   7988   7994     1  0.0000000  0.6694400  3
   7983   7982   7981   7985     1  0.0000000  0.6508444  3
   7984   7982   7983   7987     1  0.0000000  1.0460000  1
   7984   7982   7983   7987     1  0.0000000  0.0000000  3
   7984   7982   7983   7999     1  0.0000000  1.0460000  1
   7984   7982   7983   7999     1  0.0000000  0.0000000  3
   7984   7982   7983   7986     1  0.0000000  0.6508444  3
   7984   7982   7988   7994     1  0.0000000  0.6973333  3
   7984   7982   7981   7989     1  0.0000000  1.0460000  1
   7984   7982   7981   7989     1  0.0000000  0.0000000  3
   7984   7982   7981   7985     1  0.0000000  0.6508444  3
   7985   7981   7982   7988     1  0.0000000  1.0460000  1
   7985   7981   7982   7988     1  0.0000000  0.0000000  3
   7985   7981   7989   7992     1  0.0000000  0.6973333  3
   7985   7981   7978   7990     1  0.0000000  1.0460000  1
   7985   7981   7978   7990     1  0.0000000  0.0000000  3
   7986   7983   7982   7988     1  0.0000000  0.6508444  3
   7995   7991   7997   7998     1  0.0000000  0.6973333  3
   7995   7991   7977   7999     1  0.0000000  1.0460000  1
   7995   7991   7977   7999     1  0.0000000  0.0000000  3
   7996   7991   7997   7998     1  0.0000000  0.6973333  3
   7996   7991   7977   7999     1  0.0000000  1.0460000  1
   7996   7991   7977   7999     1  0.0000000  0.0000000  3
   8000   8001   8004   8008     1  0.0000000  0.6508444  3
   8000   8001   8013   8016     1  0.0000000  1.0460000  1
   8000   8001   8013   8016     1  0.0000000  0.6694400  3
   8000   8014   8020   8021     1  0.0000000  1.0460000  1
   8000   8014   8020   8021     1  0.0000000  0.6694400  3
   8000   8022   8006   8009     1  0.0000000  1.6038667  3
   8001   8000   8014   8018     1  0.0000000  0.6508444  3
   8001   8000   8014   8019     1  0.0000000  0.6508444  3
   8001   8004   8005   8007     1  0.0000000  0.6508444  3
   8001   8004   8012   8015     1  0.0000000  1.0460000  1
   8001   8004   8012   8015     1  0.0000000  0.6694400  3
   8002   8000   8001   8004     1  0.0000000  0.6508444  3
   8002   8000   8001   8013     1  0.0000000  1.0460000  1
   8002   8000   8001   8013     1  0.0000000  0.0000000  3
   8002   8000   8001   8003     1  0.0000000  0.6508444  3
   8002   8000   8014   8020     1  0.0000000  1.0460000  1
   8002   8000   8014   8020     1  0.0000000  0.0000000  3
   8002   8000   8014   8018     1  0.0000000  0.6508444  3
   8002   8000   8014   8019     1  0.0000000  0.6508444  3
   8002   8000   8022   8006     1  0.0000000  1.6038667  3
   8003   8001   8000   8014     1  0.0000000  0.6508444  3
   8003   8001   8000   8022     1  0.0000000  1.0460000  1
   8003   8001   8000   8022     1  0.0000000  0.0000000  3
   8003   8001   8004   8005     1  0.0000000  0.6508444  3
   8003   8001   8004   8012     1  0.0000000  1.0460000  1
   8003   8001   8004   8012     1  0.0000000  0.0000000  3
   8003   8001   8004   8008     1  0.0000000  0.6508444  3
   8003   8001   8013   8016     1  0.0000000  0.6973333  3
   8004   8001   8013   8016     1  0.0000000  1.0460000  1
   8004   8001   8013   8016     1  0.0000000  0.6694400  3
   8004   8005   8006   8009     1  0.0000000  0.6508444  3
   8004   8005   8011   8017     1  0.0000000  1.0460000  1
   8004   8005   8011   8017     1  0.0000000  0.6694400  3
   8005   8004   8012   8015     1  0.0000000  1.0460000  1
   8005   8004   8012   8015     1  0.0000000  0.6694400  3
   8006   8005   8004   8008     1  0.0000000  0.6508444  3
   8006   8005   8011   8017     1  0.0000000  1.0460000  1
   8006   8005   8011   8017     1  0.0000000  0.6694400  3
   8007   8005   8004   8012     1  0.0000000  1.0460000  1
   8007   8005   8004   8012     1  0.0000000  0.0000000  3
   8007   8005   8004   8008     1  0.0000000  0.6508444  3
   8007   8005   8006   8010     1  0.0000000  1.0460000  1
   8007   8005   8006   8010     1  0.0000000  0.0000000  3
   8007   8005   8006   8022     1  0.0000000  1.0460000  1
   8007   8005   8006   8022     1  0.0000000  0.0000000  3
   8007   8005   8006   8009     1  0.0000000  0.6508444  3
   8007   8005   8011   8017     1  0.0000000  0.6973333  3
   8008   8004   8001   8013     1  0.0000000  1.0460000  1
   8008   8004   8001   8013     1  0.0000000  0.0000000  3
   8008   8004   8005   8011     1  0.0000000  1.0460000  1
   8008   8004   8005   8011     1  0.0000000  0.0000000  3
   8008   8004   8012   8015     1  0.0000000  0.6973333  3
   8009   8006   8005   8011     1  0.0000000  0.6508444  3
   8018   8014   8000   8022     1  0.0000000  1.0460000  1
   8018   8014   8000   8022     1  0.0000000  0.0000000  3
   8018   8014   8020   8021     1  0.0000000  0.6973333  3
   8019   8014   8000   8022     1  0.0000000  1.0460000  1
   8019   8014   8000   8022     1  0.0000000  0.0000000  3
   8019   8014   8020   8021     1  0.0000000  0.6973333  3
   8023   8024   8027   8031     1  0.0000000  0.6508444  3
   8023   8024   8036   8039     1  0.0000000  1.0460000  1
   8023   8024   8036   8039     1  0.0000000  0.6694400  3
   8023   8037   8043   8044     1  0.0000000  1.0460000  1
   8023   8037   8043   8044     1  0.0000000  0.6694400  3
   8023   8045   8029   8032     1  0.0000000  1.6038667  3
   8024   8027   8028   8030     1  0.0000000  0.6508444  3
   8024   8027   8035   8038     1  0.0000000  1.0460000  1
   8024   8027   8035   8038     1  0.0000000  0.6694400  3
   8024   8023   8037   8041     1  0.0000000  0.6508444  3
   8024   8023   8037   8042     1  0.0000000  0.6508444  3
   8025   8023   8024   8027     1  0.0000000  0.6508444  3
   8025   8023   8024   8036     1  0.0000000  1.0460000  1
   8025   8023   8024   8036     1  0.0000000  0.0000000  3
   8025   8023   8024   8026     1  0.0000000  0.6508444  3
   8025   8023   8037   8043     1  0.0000000  1.0460000  1
   8025   8023   8037   8043     1  0.0000000  0.0000000  3
   8025   8023   8037   8041     1  0.0000000  0.6508444  3
   8025   8023   8037   8042     1  0.0000000  0.6508444  3
   8025   8023   8045   8029     1  0.0000000  1.6038667  3
   8026   8024   8027   8028     1  0.0000000  0.6508444  3
   8026   8024   8027   8035     1  0.0000000  1.0460000  1
   8026   8024   8027   8035     1  0.0000000  0.0000000  3
   8026   8024   8027   8031     1  0.0000000  0.6508444  3
   8026   8024   8036   8039     1  0.0000000  0.6973333  3
   8026   8024   8023   8037     1  0.0000000  0.6508444  3
   8026   8024   8023   8045     1  0.0000000  1.0460000  1
   8026   8024   8023   8045     1  0.0000000  0.0000000  3
   8027   8028   8029   8032     1  0.0000000  0.6508444  3
   8027   8028   8034   8040     1  0.0000000  1.0460000  1
   8027   8028   8034   8040     1  0.0000000  0.6694400  3
   8027   8024   8036   8039     1  0.0000000  1.0460000  1
   8027   8024   8036   8039     1  0.0000000  0.6694400  3
   8028   8027   8035   8038     1  0.0000000  1.0460000  1
   8028   8027   8035   8038     1  0.0000000  0.6694400  3
   8029   8028   8034   8040     1  0.0000000  1.0460000  1
   8029   8028   8034   8040     1  0.0000000  0.6694400  3
   8029   8028   8027   8031     1  0.0000000  0.6508444  3
   8030   8028   8029   8033     1  0.0000000  1.0460000  1
   8030   8028   8029   8033     1  0.0000000  0.0000000  3
   8030   8028   8029   8045     1  0.0000000  1.0460000  1
   8030   8028   8029   8045     1  0.0000000  0.0000000  3
   8030   8028   8029   8032     1  0.0000000  0.6508444  3
   8030   8028   8034   8040     1  0.0000000  0.6973333  3
   8030   8028   8027   8035     1  0.0000000  1.0460000  1
   8030   8028   8027   8035     1  0.0000000  0.0000000  3
   8030   8028   8027   8031     1  0.0000000  0.6508444  3
   8031   8027   8028   8034     1  0.0000000  1.0460000  1
   8031   8027   8028   8034     1  0.0000000  0.0000000  3
   8031   8027   8035   8038     1  0.0000000  0.6973333  3
   8031   8027   8024   8036     1  0.0000000  1.0460000  1
   8031   8027   8024   8036     1  0.0000000  0.0000000  3
   8032   8029   8028   8034     1  0.0000000  0.6508444  3
   8041   8037   8043   8044     1  0.0000000  0.6973333  3
   8041   8037   8023   8045     1  0.0000000  1.0460000  1
   8041   8037   8023   8045     1  0.0000000  0.0000000  3
   8042   8037   8043   8044     1  0.0000000  0.6973333  3
   8042   8037   8023   8045     1  0.0000000  1.0460000  1
   8042   8037   8023   8045     1  0.0000000  0.0000000  3
   8046   8047   8050   8054     1  0.0000000  0.6508444  3
   8046   8047   8059   8062     1  0.0000000  1.0460000  1
   8046   8047   8059   8062     1  0.0000000  0.6694400  3
   8046   8060   8066   8067     1  0.0000000  1.0460000  1
   8046   8060   8066   8067     1  0.0000000  0.6694400  3
   8046   8068   8052   8055     1  0.0000000  1.6038667  3
   8047   8046   8060   8064     1  0.0000000  0.6508444  3
   8047   8046   8060   8065     1  0.0000000  0.6508444  3
   8047   8050   8051   8053     1  0.0000000  0.6508444  3
   8047   8050   8058   8061     1  0.0000000  1.0460000  1
   8047   8050   8058   8061     1  0.0000000  0.6694400  3
   8048   8046   8047   8050     1  0.0000000  0.6508444  3
   8048   8046   8047   8059     1  0.0000000  1.0460000  1
   8048   8046   8047   8059     1  0.0000000  0.0000000  3
   8048   8046   8047   8049     1  0.0000000  0.6508444  3
   8048   8046   8060   8066     1  0.0000000  1.0460000  1
   8048   8046   8060   8066     1  0.0000000  0.0000000  3
   8048   8046   8060   8064     1  0.0000000  0.6508444  3
   8048   8046   8060   8065     1  0.0000000  0.6508444  3
   8048   8046   8068   8052     1  0.0000000  1.6038667  3
   8049   8047   8046   8060     1  0.0000000  0.6508444  3
   8049   8047   8046   8068     1  0.0000000  1.0460000  1
   8049   8047   8046   8068     1  0.0000000  0.0000000  3
   8049   8047   8050   8051     1  0.0000000  0.6508444  3
   8049   8047   8050   8058     1  0.0000000  1.0460000  1
   8049   8047   8050   8058     1  0.0000000  0.0000000  3
   8049   8047   8050   8054     1  0.0000000  0.6508444  3
   8049   8047   8059   8062     1  0.0000000  0.6973333  3
   8050   8047   8059   8062     1  0.0000000  1.0460000  1
   8050   8047   8059   8062     1  0.0000000  0.6694400  3
   8050   8051   8052   8055     1  0.0000000  0.6508444  3
   8050   8051   8057   8063     1  0.0000000  1.0460000  1
   8050   8051   8057   8063     1  0.0000000  0.6694400  3
   8051   8050   8058   8061     1  0.0000000  1.0460000  1
   8051   8050   8058   8061     1  0.0000000  0.6694400  3
   8052   8051   8050   8054     1  0.0000000  0.6508444  3
   8052   8051   8057   8063     1  0.0000000  1.0460000  1
   8052   8051   8057   8063     1  0.0000000  0.6694400  3
   8053   8051   8050   8058     1  0.0000000  1.0460000  1
   8053   8051   8050   8058     1  0.0000000  0.0000000  3
   8053   8051   8050   8054     1  0.0000000  0.6508444  3
   8053   8051   8052   8056     1  0.0000000  1.0460000  1
   8053   8051   8052   8056     1  0.0000000  0.0000000  3
   8053   8051   8052   8068     1  0.0000000  1.0460000  1
   8053   8051   8052   8068     1  0.0000000  0.0000000  3
   8053   8051   8052   8055     1  0.0000000  0.6508444  3
   8053   8051   8057   8063     1  0.0000000  0.6973333  3
   8054   8050   8047   8059     1  0.0000000  1.0460000  1
   8054   8050   8047   8059     1  0.0000000  0.0000000  3
   8054   8050   8051   8057     1  0.0000000  1.0460000  1
   8054   8050   8051   8057     1  0.0000000  0.0000000  3
   8054   8050   8058   8061     1  0.0000000  0.6973333  3
   8055   8052   8051   8057     1  0.0000000  0.6508444  3
   8064   8060   8046   8068     1  0.0000000  1.0460000  1
   8064   8060   8046   8068     1  0.0000000  0.0000000  3
   8064   8060   8066   8067     1  0.0000000  0.6973333  3
   8065   8060   8046   8068     1  0.0000000  1.0460000  1
   8065   8060   8046   8068     1  0.0000000  0.0000000  3
   8065   8060   8066   8067     1  0.0000000  0.6973333  3
   8069   8070   8073   8077     1  0.0000000  0.6508444  3
   8069   8070   8082   8085     1  0.0000000  1.0460000  1
   8069   8070   8082   8085     1  0.0000000  0.6694400  3
   8069   8083   8089   8090     1  0.0000000  1.0460000  1
   8069   8083   8089   8090     1  0.0000000  0.6694400  3
   8069   8091   8075   8078     1  0.0000000  1.6038667  3
   8070   8073   8074   8076     1  0.0000000  0.6508444  3
   8070   8073   8081   8084     1  0.0000000  1.0460000  1
   8070   8073   8081   8084     1  0.0000000  0.6694400  3
   8070   8069   8083   8087     1  0.0000000  0.6508444  3
   8070   8069   8083   8088     1  0.0000000  0.6508444  3
   8071   8069   8070   8073     1  0.0000000  0.6508444  3
   8071   8069   8070   8082     1  0.0000000  1.0460000  1
   8071   8069   8070   8082     1  0.0000000  0.0000000  3
   8071   8069   8070   8072     1  0.0000000  0.6508444  3
   8071   8069   8083   8089     1  0.0000000  1.0460000  1
   8071   8069   8083   8089     1  0.0000000  0.0000000  3
   8071   8069   8083   8087     1  0.0000000  0.6508444  3
   8071   8069   8083   8088     1  0.0000000  0.6508444  3
   8071   8069   8091   8075     1  0.0000000  1.6038667  3
   8072   8070   8073   8074     1  0.0000000  0.6508444  3
   8072   8070   8073   8081     1  0.0000000  1.0460000  1
   8072   8070   8073   8081     1  0.0000000  0.0000000  3
   8072   8070   8073   8077     1  0.0000000  0.6508444  3
   8072   8070   8082   8085     1  0.0000000  0.6973333  3
   8072   8070   8069   8083     1  0.0000000  0.6508444  3
   8072   8070   8069   8091     1  0.0000000  1.0460000  1
   8072   8070   8069   8091     1  0.0000000  0.0000000  3
   8073   8074   8075   8078     1  0.0000000  0.6508444  3
   8073   8074   8080   8086     1  0.0000000  1.0460000  1
   8073   8074   8080   8086     1  0.0000000  0.6694400  3
   8073   8070   8082   8085     1  0.0000000  1.0460000  1
   8073   8070   8082   8085     1  0.0000000  0.6694400  3
   8074   8073   8081   8084     1  0.0000000  1.0460000  1
   8074   8073   8081   8084     1  0.0000000  0.6694400  3
   8075   8074   8080   8086     1  0.0000000  1.0460000  1
   8075   8074   8080   8086     1  0.0000000  0.6694400  3
   8075   8074   8073   8077     1  0.0000000  0.6508444  3
   8076   8074   8075   8079     1  0.0000000  1.0460000  1
   8076   8074   8075   8079     1  0.0000000  0.0000000  3
   8076   8074   8075   8091     1  0.0000000  1.0460000  1
   8076   8074   8075   8091     1  0.0000000  0.0000000  3
   8076   8074   8075   8078     1  0.0000000  0.6508444  3
   8076   8074   8080   8086     1  0.0000000  0.6973333  3
   8076   8074   8073   8081     1  0.0000000  1.0460000  1
   8076   8074   8073   8081     1  0.0000000  0.0000000  3
   8076   8074   8073   8077     1  0.0000000  0.6508444  3
   8077   8073   8074   8080     1  0.0000000  1.0460000  1
   8077   8073   8074   8080     1  0.0000000  0.0000000  3
   8077   8073   8081   8084     1  0.0000000  0.6973333  3
   8077   8073   8070   8082     1  0.0000000  1.0460000  1
   8077   8073   8070   8082     1  0.0000000  0.0000000  3
   8078   8075   8074   8080     1  0.0000000  0.6508444  3
   8087   8083   8089   8090     1  0.0000000  0.6973333  3
   8087   8083   8069   8091     1  0.0000000  1.0460000  1
   8087   8083   8069   8091     1  0.0000000  0.0000000  3
   8088   8083   8089   8090     1  0.0000000  0.6973333  3
   8088   8083   8069   8091     1  0.0000000  1.0460000  1
   8088   8083   8069   8091     1  0.0000000  0.0000000  3
   8092   8093   8096   8100     1  0.0000000  0.6508444  3
   8092   8093   8105   8108     1  0.0000000  1.0460000  1
   8092   8093   8105   8108     1  0.0000000  0.6694400  3
   8092   8106   8112   8113     1  0.0000000  1.0460000  1
   8092   8106   8112   8113     1  0.0000000  0.6694400  3
   8092   8114   8098   8101     1  0.0000000  1.6038667  3
   8093   8092   8106   8110     1  0.0000000  0.6508444  3
   8093   8092   8106   8111     1  0.0000000  0.6508444  3
   8093   8096   8097   8099     1  0.0000000  0.6508444  3
   8093   8096   8104   8107     1  0.0000000  1.0460000  1
   8093   8096   8104   8107     1  0.0000000  0.6694400  3
   8094   8092   8093   8096     1  0.0000000  0.6508444  3
   8094   8092   8093   8105     1  0.0000000  1.0460000  1
   8094   8092   8093   8105     1  0.0000000  0.0000000  3
   8094   8092   8093   8095     1  0.0000000  0.6508444  3
   8094   8092   8106   8112     1  0.0000000  1.0460000  1
   8094   8092   8106   8112     1  0.0000000  0.0000000  3
   8094   8092   8106   8110     1  0.0000000  0.6508444  3
   8094   8092   8106   8111     1  0.0000000  0.6508444  3
   8094   8092   8114   8098     1  0.0000000  1.6038667  3
   8095   8093   8092   8106     1  0.0000000  0.6508444  3
   8095   8093   8092   8114     1  0.0000000  1.0460000  1
   8095   8093   8092   8114     1  0.0000000  0.0000000  3
   8095   8093   8096   8097     1  0.0000000  0.6508444  3
   8095   8093   8096   8104     1  0.0000000  1.0460000  1
   8095   8093   8096   8104     1  0.0000000  0.0000000  3
   8095   8093   8096   8100     1  0.0000000  0.6508444  3
   8095   8093   8105   8108     1  0.0000000  0.6973333  3
   8096   8093   8105   8108     1  0.0000000  1.0460000  1
   8096   8093   8105   8108     1  0.0000000  0.6694400  3
   8096   8097   8098   8101     1  0.0000000  0.6508444  3
   8096   8097   8103   8109     1  0.0000000  1.0460000  1
   8096   8097   8103   8109     1  0.0000000  0.6694400  3
   8097   8096   8104   8107     1  0.0000000  1.0460000  1
   8097   8096   8104   8107     1  0.0000000  0.6694400  3
   8098   8097   8096   8100     1  0.0000000  0.6508444  3
   8098   8097   8103   8109     1  0.0000000  1.0460000  1
   8098   8097   8103   8109     1  0.0000000  0.6694400  3
   8099   8097   8096   8104     1  0.0000000  1.0460000  1
   8099   8097   8096   8104     1  0.0000000  0.0000000  3
   8099   8097   8096   8100     1  0.0000000  0.6508444  3
   8099   8097   8098   8102     1  0.0000000  1.0460000  1
   8099   8097   8098   8102     1  0.0000000  0.0000000  3
   8099   8097   8098   8114     1  0.0000000  1.0460000  1
   8099   8097   8098   8114     1  0.0000000  0.0000000  3
   8099   8097   8098   8101     1  0.0000000  0.6508444  3
   8099   8097   8103   8109     1  0.0000000  0.6973333  3
   8100   8096   8093   8105     1  0.0000000  1.0460000  1
   8100   8096   8093   8105     1  0.0000000  0.0000000  3
   8100   8096   8097   8103     1  0.0000000  1.0460000  1
   8100   8096   8097   8103     1  0.0000000  0.0000000  3
   8100   8096   8104   8107     1  0.0000000  0.6973333  3
   8101   8098   8097   8103     1  0.0000000  0.6508444  3
   8110   8106   8092   8114     1  0.0000000  1.0460000  1
   8110   8106   8092   8114     1  0.0000000  0.0000000  3
   8110   8106   8112   8113     1  0.0000000  0.6973333  3
   8111   8106   8092   8114     1  0.0000000  1.0460000  1
   8111   8106   8092   8114     1  0.0000000  0.0000000  3
   8111   8106   8112   8113     1  0.0000000  0.6973333  3
   8115   8116   8119   8123     1  0.0000000  0.6508444  3
   8115   8116   8128   8131     1  0.0000000  1.0460000  1
   8115   8116   8128   8131     1  0.0000000  0.6694400  3
   8115   8129   8135   8136     1  0.0000000  1.0460000  1
   8115   8129   8135   8136     1  0.0000000  0.6694400  3
   8115   8137   8121   8124     1  0.0000000  1.6038667  3
   8116   8119   8120   8122     1  0.0000000  0.6508444  3
   8116   8119   8127   8130     1  0.0000000  1.0460000  1
   8116   8119   8127   8130     1  0.0000000  0.6694400  3
   8116   8115   8129   8133     1  0.0000000  0.6508444  3
   8116   8115   8129   8134     1  0.0000000  0.6508444  3
   8117   8115   8116   8119     1  0.0000000  0.6508444  3
   8117   8115   8116   8128     1  0.0000000  1.0460000  1
   8117   8115   8116   8128     1  0.0000000  0.0000000  3
   8117   8115   8116   8118     1  0.0000000  0.6508444  3
   8117   8115   8129   8135     1  0.0000000  1.0460000  1
   8117   8115   8129   8135     1  0.0000000  0.0000000  3
   8117   8115   8129   8133     1  0.0000000  0.6508444  3
   8117   8115   8129   8134     1  0.0000000  0.6508444  3
   8117   8115   8137   8121     1  0.0000000  1.6038667  3
   8118   8116   8119   8120     1  0.0000000  0.6508444  3
   8118   8116   8119   8127     1  0.0000000  1.0460000  1
   8118   8116   8119   8127     1  0.0000000  0.0000000  3
   8118   8116   8119   8123     1  0.0000000  0.6508444  3
   8118   8116   8128   8131     1  0.0000000  0.6973333  3
   8118   8116   8115   8129     1  0.0000000  0.6508444  3
   8118   8116   8115   8137     1  0.0000000  1.0460000  1
   8118   8116   8115   8137     1  0.0000000  0.0000000  3
   8119   8120   8121   8124     1  0.0000000  0.6508444  3
   8119   8120   8126   8132     1  0.0000000  1.0460000  1
   8119   8120   8126   8132     1  0.0000000  0.6694400  3
   8119   8116   8128   8131     1  0.0000000  1.0460000  1
   8119   8116   8128   8131     1  0.0000000  0.6694400  3
   8120   8119   8127   8130     1  0.0000000  1.0460000  1
   8120   8119   8127   8130     1  0.0000000  0.6694400  3
   8121   8120   8126   8132     1  0.0000000  1.0460000  1
   8121   8120   8126   8132     1  0.0000000  0.6694400  3
   8121   8120   8119   8123     1  0.0000000  0.6508444  3
   8122   8120   8121   8125     1  0.0000000  1.0460000  1
   8122   8120   8121   8125     1  0.0000000  0.0000000  3
   8122   8120   8121   8137     1  0.0000000  1.0460000  1
   8122   8120   8121   8137     1  0.0000000  0.0000000  3
   8122   8120   8121   8124     1  0.0000000  0.6508444  3
   8122   8120   8126   8132     1  0.0000000  0.6973333  3
   8122   8120   8119   8127     1  0.0000000  1.0460000  1
   8122   8120   8119   8127     1  0.0000000  0.0000000  3
   8122   8120   8119   8123     1  0.0000000  0.6508444  3
   8123   8119   8120   8126     1  0.0000000  1.0460000  1
   8123   8119   8120   8126     1  0.0000000  0.0000000  3
   8123   8119   8127   8130     1  0.0000000  0.6973333  3
   8123   8119   8116   8128     1  0.0000000  1.0460000  1
   8123   8119   8116   8128     1  0.0000000  0.0000000  3
   8124   8121   8120   8126     1  0.0000000  0.6508444  3
   8133   8129   8135   8136     1  0.0000000  0.6973333  3
   8133   8129   8115   8137     1  0.0000000  1.0460000  1
   8133   8129   8115   8137     1  0.0000000  0.0000000  3
   8134   8129   8135   8136     1  0.0000000  0.6973333  3
   8134   8129   8115   8137     1  0.0000000  1.0460000  1
   8134   8129   8115   8137     1  0.0000000  0.0000000  3
   8138   8139   8142   8146     1  0.0000000  0.6508444  3
   8138   8139   8151   8154     1  0.0000000  1.0460000  1
   8138   8139   8151   8154     1  0.0000000  0.6694400  3
   8138   8152   8158   8159     1  0.0000000  1.0460000  1
   8138   8152   8158   8159     1  0.0000000  0.6694400  3
   8138   8160   8144   8147     1  0.0000000  1.6038667  3
   8139   8138   8152   8156     1  0.0000000  0.6508444  3
   8139   8138   8152   8157     1  0.0000000  0.6508444  3
   8139   8142   8143   8145     1  0.0000000  0.6508444  3
   8139   8142   8150   8153     1  0.0000000  1.0460000  1
   8139   8142   8150   8153     1  0.0000000  0.6694400  3
   8140   8138   8139   8142     1  0.0000000  0.6508444  3
   8140   8138   8139   8151     1  0.0000000  1.0460000  1
   8140   8138   8139   8151     1  0.0000000  0.0000000  3
   8140   8138   8139   8141     1  0.0000000  0.6508444  3
   8140   8138   8152   8158     1  0.0000000  1.0460000  1
   8140   8138   8152   8158     1  0.0000000  0.0000000  3
   8140   8138   8152   8156     1  0.0000000  0.6508444  3
   8140   8138   8152   8157     1  0.0000000  0.6508444  3
   8140   8138   8160   8144     1  0.0000000  1.6038667  3
   8141   8139   8138   8152     1  0.0000000  0.6508444  3
   8141   8139   8138   8160     1  0.0000000  1.0460000  1
   8141   8139   8138   8160     1  0.0000000  0.0000000  3
   8141   8139   8142   8143     1  0.0000000  0.6508444  3
   8141   8139   8142   8150     1  0.0000000  1.0460000  1
   8141   8139   8142   8150     1  0.0000000  0.0000000  3
   8141   8139   8142   8146     1  0.0000000  0.6508444  3
   8141   8139   8151   8154     1  0.0000000  0.6973333  3
   8142   8139   8151   8154     1  0.0000000  1.0460000  1
   8142   8139   8151   8154     1  0.0000000  0.6694400  3
   8142   8143   8144   8147     1  0.0000000  0.6508444  3
   8142   8143   8149   8155     1  0.0000000  1.0460000  1
   8142   8143   8149   8155     1  0.0000000  0.6694400  3
   8143   8142   8150   8153     1  0.0000000  1.0460000  1
   8143   8142   8150   8153     1  0.0000000  0.6694400  3
   8144   8143   8142   8146     1  0.0000000  0.6508444  3
   8144   8143   8149   8155     1  0.0000000  1.0460000  1
   8144   8143   8149   8155     1  0.0000000  0.6694400  3
   8145   8143   8142   8150     1  0.0000000  1.0460000  1
   8145   8143   8142   8150     1  0.0000000  0.0000000  3
   8145   8143   8142   8146     1  0.0000000  0.6508444  3
   8145   8143   8144   8148     1  0.0000000  1.0460000  1
   8145   8143   8144   8148     1  0.0000000  0.0000000  3
   8145   8143   8144   8160     1  0.0000000  1.0460000  1
   8145   8143   8144   8160     1  0.0000000  0.0000000  3
   8145   8143   8144   8147     1  0.0000000  0.6508444  3
   8145   8143   8149   8155     1  0.0000000  0.6973333  3
   8146   8142   8139   8151     1  0.0000000  1.0460000  1
   8146   8142   8139   8151     1  0.0000000  0.0000000  3
   8146   8142   8143   8149     1  0.0000000  1.0460000  1
   8146   8142   8143   8149     1  0.0000000  0.0000000  3
   8146   8142   8150   8153     1  0.0000000  0.6973333  3
   8147   8144   8143   8149     1  0.0000000  0.6508444  3
   8156   8152   8138   8160     1  0.0000000  1.0460000  1
   8156   8152   8138   8160     1  0.0000000  0.0000000  3
   8156   8152   8158   8159     1  0.0000000  0.6973333  3
   8157   8152   8138   8160     1  0.0000000  1.0460000  1
   8157   8152   8138   8160     1  0.0000000  0.0000000  3
   8157   8152   8158   8159     1  0.0000000  0.6973333  3
   8161   8162   8165   8169     1  0.0000000  0.6508444  3
   8161   8162   8174   8177     1  0.0000000  1.0460000  1
   8161   8162   8174   8177     1  0.0000000  0.6694400  3
   8161   8175   8181   8182     1  0.0000000  1.0460000  1
   8161   8175   8181   8182     1  0.0000000  0.6694400  3
   8161   8183   8167   8170     1  0.0000000  1.6038667  3
   8162   8165   8166   8168     1  0.0000000  0.6508444  3
   8162   8165   8173   8176     1  0.0000000  1.0460000  1
   8162   8165   8173   8176     1  0.0000000  0.6694400  3
   8162   8161   8175   8179     1  0.0000000  0.6508444  3
   8162   8161   8175   8180     1  0.0000000  0.6508444  3
   8163   8161   8162   8165     1  0.0000000  0.6508444  3
   8163   8161   8162   8174     1  0.0000000  1.0460000  1
   8163   8161   8162   8174     1  0.0000000  0.0000000  3
   8163   8161   8162   8164     1  0.0000000  0.6508444  3
   8163   8161   8175   8181     1  0.0000000  1.0460000  1
   8163   8161   8175   8181     1  0.0000000  0.0000000  3
   8163   8161   8175   8179     1  0.0000000  0.6508444  3
   8163   8161   8175   8180     1  0.0000000  0.6508444  3
   8163   8161   8183   8167     1  0.0000000  1.6038667  3
   8164   8162   8165   8166     1  0.0000000  0.6508444  3
   8164   8162   8165   8173     1  0.0000000  1.0460000  1
   8164   8162   8165   8173     1  0.0000000  0.0000000  3
   8164   8162   8165   8169     1  0.0000000  0.6508444  3
   8164   8162   8174   8177     1  0.0000000  0.6973333  3
   8164   8162   8161   8175     1  0.0000000  0.6508444  3
   8164   8162   8161   8183     1  0.0000000  1.0460000  1
   8164   8162   8161   8183     1  0.0000000  0.0000000  3
   8165   8166   8167   8170     1  0.0000000  0.6508444  3
   8165   8166   8172   8178     1  0.0000000  1.0460000  1
   8165   8166   8172   8178     1  0.0000000  0.6694400  3
   8165   8162   8174   8177     1  0.0000000  1.0460000  1
   8165   8162   8174   8177     1  0.0000000  0.6694400  3
   8166   8165   8173   8176     1  0.0000000  1.0460000  1
   8166   8165   8173   8176     1  0.0000000  0.6694400  3
   8167   8166   8172   8178     1  0.0000000  1.0460000  1
   8167   8166   8172   8178     1  0.0000000  0.6694400  3
   8167   8166   8165   8169     1  0.0000000  0.6508444  3
   8168   8166   8167   8171     1  0.0000000  1.0460000  1
   8168   8166   8167   8171     1  0.0000000  0.0000000  3
   8168   8166   8167   8183     1  0.0000000  1.0460000  1
   8168   8166   8167   8183     1  0.0000000  0.0000000  3
   8168   8166   8167   8170     1  0.0000000  0.6508444  3
   8168   8166   8172   8178     1  0.0000000  0.6973333  3
   8168   8166   8165   8173     1  0.0000000  1.0460000  1
   8168   8166   8165   8173     1  0.0000000  0.0000000  3
   8168   8166   8165   8169     1  0.0000000  0.6508444  3
   8169   8165   8166   8172     1  0.0000000  1.0460000  1
   8169   8165   8166   8172     1  0.0000000  0.0000000  3
   8169   8165   8173   8176     1  0.0000000  0.6973333  3
   8169   8165   8162   8174     1  0.0000000  1.0460000  1
   8169   8165   8162   8174     1  0.0000000  0.0000000  3
   8170   8167   8166   8172     1  0.0000000  0.6508444  3
   8179   8175   8181   8182     1  0.0000000  0.6973333  3
   8179   8175   8161   8183     1  0.0000000  1.0460000  1
   8179   8175   8161   8183     1  0.0000000  0.0000000  3
   8180   8175   8181   8182     1  0.0000000  0.6973333  3
   8180   8175   8161   8183     1  0.0000000  1.0460000  1
   8180   8175   8161   8183     1  0.0000000  0.0000000  3
   8184   8185   8188   8192     1  0.0000000  0.6508444  3
   8184   8185   8197   8200     1  0.0000000  1.0460000  1
   8184   8185   8197   8200     1  0.0000000  0.6694400  3
   8184   8198   8204   8205     1  0.0000000  1.0460000  1
   8184   8198   8204   8205     1  0.0000000  0.6694400  3
   8184   8206   8190   8193     1  0.0000000  1.6038667  3
   8185   8184   8198   8202     1  0.0000000  0.6508444  3
   8185   8184   8198   8203     1  0.0000000  0.6508444  3
   8185   8188   8189   8191     1  0.0000000  0.6508444  3
   8185   8188   8196   8199     1  0.0000000  1.0460000  1
   8185   8188   8196   8199     1  0.0000000  0.6694400  3
   8186   8184   8185   8188     1  0.0000000  0.6508444  3
   8186   8184   8185   8197     1  0.0000000  1.0460000  1
   8186   8184   8185   8197     1  0.0000000  0.0000000  3
   8186   8184   8185   8187     1  0.0000000  0.6508444  3
   8186   8184   8198   8204     1  0.0000000  1.0460000  1
   8186   8184   8198   8204     1  0.0000000  0.0000000  3
   8186   8184   8198   8202     1  0.0000000  0.6508444  3
   8186   8184   8198   8203     1  0.0000000  0.6508444  3
   8186   8184   8206   8190     1  0.0000000  1.6038667  3
   8187   8185   8184   8198     1  0.0000000  0.6508444  3
   8187   8185   8184   8206     1  0.0000000  1.0460000  1
   8187   8185   8184   8206     1  0.0000000  0.0000000  3
   8187   8185   8188   8189     1  0.0000000  0.6508444  3
   8187   8185   8188   8196     1  0.0000000  1.0460000  1
   8187   8185   8188   8196     1  0.0000000  0.0000000  3
   8187   8185   8188   8192     1  0.0000000  0.6508444  3
   8187   8185   8197   8200     1  0.0000000  0.6973333  3
   8188   8185   8197   8200     1  0.0000000  1.0460000  1
   8188   8185   8197   8200     1  0.0000000  0.6694400  3
   8188   8189   8190   8193     1  0.0000000  0.6508444  3
   8188   8189   8195   8201     1  0.0000000  1.0460000  1
   8188   8189   8195   8201     1  0.0000000  0.6694400  3
   8189   8188   8196   8199     1  0.0000000  1.0460000  1
   8189   8188   8196   8199     1  0.0000000  0.6694400  3
   8190   8189   8188   8192     1  0.0000000  0.6508444  3
   8190   8189   8195   8201     1  0.0000000  1.0460000  1
   8190   8189   8195   8201     1  0.0000000  0.6694400  3
   8191   8189   8188   8196     1  0.0000000  1.0460000  1
   8191   8189   8188   8196     1  0.0000000  0.0000000  3
   8191   8189   8188   8192     1  0.0000000  0.6508444  3
   8191   8189   8190   8194     1  0.0000000  1.0460000  1
   8191   8189   8190   8194     1  0.0000000  0.0000000  3
   8191   8189   8190   8206     1  0.0000000  1.0460000  1
   8191   8189   8190   8206     1  0.0000000  0.0000000  3
   8191   8189   8190   8193     1  0.0000000  0.6508444  3
   8191   8189   8195   8201     1  0.0000000  0.6973333  3
   8192   8188   8185   8197     1  0.0000000  1.0460000  1
   8192   8188   8185   8197     1  0.0000000  0.0000000  3
   8192   8188   8189   8195     1  0.0000000  1.0460000  1
   8192   8188   8189   8195     1  0.0000000  0.0000000  3
   8192   8188   8196   8199     1  0.0000000  0.6973333  3
   8193   8190   8189   8195     1  0.0000000  0.6508444  3
   8202   8198   8184   8206     1  0.0000000  1.0460000  1
   8202   8198   8184   8206     1  0.0000000  0.0000000  3
   8202   8198   8204   8205     1  0.0000000  0.6973333  3
   8203   8198   8184   8206     1  0.0000000  1.0460000  1
   8203   8198   8184   8206     1  0.0000000  0.0000000  3
   8203   8198   8204   8205     1  0.0000000  0.6973333  3
   8207   8208   8211   8215     1  0.0000000  0.6508444  3
   8207   8208   8220   8223     1  0.0000000  1.0460000  1
   8207   8208   8220   8223     1  0.0000000  0.6694400  3
   8207   8221   8227   8228     1  0.0000000  1.0460000  1
   8207   8221   8227   8228     1  0.0000000  0.6694400  3
   8207   8229   8213   8216     1  0.0000000  1.6038667  3
   8208   8211   8212   8214     1  0.0000000  0.6508444  3
   8208   8211   8219   8222     1  0.0000000  1.0460000  1
   8208   8211   8219   8222     1  0.0000000  0.6694400  3
   8208   8207   8221   8225     1  0.0000000  0.6508444  3
   8208   8207   8221   8226     1  0.0000000  0.6508444  3
   8209   8207   8208   8211     1  0.0000000  0.6508444  3
   8209   8207   8208   8220     1  0.0000000  1.0460000  1
   8209   8207   8208   8220     1  0.0000000  0.0000000  3
   8209   8207   8208   8210     1  0.0000000  0.6508444  3
   8209   8207   8221   8227     1  0.0000000  1.0460000  1
   8209   8207   8221   8227     1  0.0000000  0.0000000  3
   8209   8207   8221   8225     1  0.0000000  0.6508444  3
   8209   8207   8221   8226     1  0.0000000  0.6508444  3
   8209   8207   8229   8213     1  0.0000000  1.6038667  3
   8210   8208   8211   8212     1  0.0000000  0.6508444  3
   8210   8208   8211   8219     1  0.0000000  1.0460000  1
   8210   8208   8211   8219     1  0.0000000  0.0000000  3
   8210   8208   8211   8215     1  0.0000000  0.6508444  3
   8210   8208   8220   8223     1  0.0000000  0.6973333  3
   8210   8208   8207   8221     1  0.0000000  0.6508444  3
   8210   8208   8207   8229     1  0.0000000  1.0460000  1
   8210   8208   8207   8229     1  0.0000000  0.0000000  3
   8211   8212   8213   8216     1  0.0000000  0.6508444  3
   8211   8212   8218   8224     1  0.0000000  1.0460000  1
   8211   8212   8218   8224     1  0.0000000  0.6694400  3
   8211   8208   8220   8223     1  0.0000000  1.0460000  1
   8211   8208   8220   8223     1  0.0000000  0.6694400  3
   8212   8211   8219   8222     1  0.0000000  1.0460000  1
   8212   8211   8219   8222     1  0.0000000  0.6694400  3
   8213   8212   8218   8224     1  0.0000000  1.0460000  1
   8213   8212   8218   8224     1  0.0000000  0.6694400  3
   8213   8212   8211   8215     1  0.0000000  0.6508444  3
   8214   8212   8213   8217     1  0.0000000  1.0460000  1
   8214   8212   8213   8217     1  0.0000000  0.0000000  3
   8214   8212   8213   8229     1  0.0000000  1.0460000  1
   8214   8212   8213   8229     1  0.0000000  0.0000000  3
   8214   8212   8213   8216     1  0.0000000  0.6508444  3
   8214   8212   8218   8224     1  0.0000000  0.6973333  3
   8214   8212   8211   8219     1  0.0000000  1.0460000  1
   8214   8212   8211   8219     1  0.0000000  0.0000000  3
   8214   8212   8211   8215     1  0.0000000  0.6508444  3
   8215   8211   8212   8218     1  0.0000000  1.0460000  1
   8215   8211   8212   8218     1  0.0000000  0.0000000  3
   8215   8211   8219   8222     1  0.0000000  0.6973333  3
   8215   8211   8208   8220     1  0.0000000  1.0460000  1
   8215   8211   8208   8220     1  0.0000000  0.0000000  3
   8216   8213   8212   8218     1  0.0000000  0.6508444  3
   8225   8221   8227   8228     1  0.0000000  0.6973333  3
   8225   8221   8207   8229     1  0.0000000  1.0460000  1
   8225   8221   8207   8229     1  0.0000000  0.0000000  3
   8226   8221   8227   8228     1  0.0000000  0.6973333  3
   8226   8221   8207   8229     1  0.0000000  1.0460000  1
   8226   8221   8207   8229     1  0.0000000  0.0000000  3
   8230   8231   8234   8238     1  0.0000000  0.6508444  3
   8230   8231   8243   8246     1  0.0000000  1.0460000  1
   8230   8231   8243   8246     1  0.0000000  0.6694400  3
   8230   8244   8250   8251     1  0.0000000  1.0460000  1
   8230   8244   8250   8251     1  0.0000000  0.6694400  3
   8230   8252   8236   8239     1  0.0000000  1.6038667  3
   8231   8230   8244   8248     1  0.0000000  0.6508444  3
   8231   8230   8244   8249     1  0.0000000  0.6508444  3
   8231   8234   8235   8237     1  0.0000000  0.6508444  3
   8231   8234   8242   8245     1  0.0000000  1.0460000  1
   8231   8234   8242   8245     1  0.0000000  0.6694400  3
   8232   8230   8231   8234     1  0.0000000  0.6508444  3
   8232   8230   8231   8243     1  0.0000000  1.0460000  1
   8232   8230   8231   8243     1  0.0000000  0.0000000  3
   8232   8230   8231   8233     1  0.0000000  0.6508444  3
   8232   8230   8244   8250     1  0.0000000  1.0460000  1
   8232   8230   8244   8250     1  0.0000000  0.0000000  3
   8232   8230   8244   8248     1  0.0000000  0.6508444  3
   8232   8230   8244   8249     1  0.0000000  0.6508444  3
   8232   8230   8252   8236     1  0.0000000  1.6038667  3
   8233   8231   8230   8244     1  0.0000000  0.6508444  3
   8233   8231   8230   8252     1  0.0000000  1.0460000  1
   8233   8231   8230   8252     1  0.0000000  0.0000000  3
   8233   8231   8234   8235     1  0.0000000  0.6508444  3
   8233   8231   8234   8242     1  0.0000000  1.0460000  1
   8233   8231   8234   8242     1  0.0000000  0.0000000  3
   8233   8231   8234   8238     1  0.0000000  0.6508444  3
   8233   8231   8243   8246     1  0.0000000  0.6973333  3
   8234   8231   8243   8246     1  0.0000000  1.0460000  1
   8234   8231   8243   8246     1  0.0000000  0.6694400  3
   8234   8235   8236   8239     1  0.0000000  0.6508444  3
   8234   8235   8241   8247     1  0.0000000  1.0460000  1
   8234   8235   8241   8247     1  0.0000000  0.6694400  3
   8235   8234   8242   8245     1  0.0000000  1.0460000  1
   8235   8234   8242   8245     1  0.0000000  0.6694400  3
   8236   8235   8234   8238     1  0.0000000  0.6508444  3
   8236   8235   8241   8247     1  0.0000000  1.0460000  1
   8236   8235   8241   8247     1  0.0000000  0.6694400  3
   8237   8235   8234   8242     1  0.0000000  1.0460000  1
   8237   8235   8234   8242     1  0.0000000  0.0000000  3
   8237   8235   8234   8238     1  0.0000000  0.6508444  3
   8237   8235   8236   8240     1  0.0000000  1.0460000  1
   8237   8235   8236   8240     1  0.0000000  0.0000000  3
   8237   8235   8236   8252     1  0.0000000  1.0460000  1
   8237   8235   8236   8252     1  0.0000000  0.0000000  3
   8237   8235   8236   8239     1  0.0000000  0.6508444  3
   8237   8235   8241   8247     1  0.0000000  0.6973333  3
   8238   8234   8231   8243     1  0.0000000  1.0460000  1
   8238   8234   8231   8243     1  0.0000000  0.0000000  3
   8238   8234   8235   8241     1  0.0000000  1.0460000  1
   8238   8234   8235   8241     1  0.0000000  0.0000000  3
   8238   8234   8242   8245     1  0.0000000  0.6973333  3
   8239   8236   8235   8241     1  0.0000000  0.6508444  3
   8248   8244   8230   8252     1  0.0000000  1.0460000  1
   8248   8244   8230   8252     1  0.0000000  0.0000000  3
   8248   8244   8250   8251     1  0.0000000  0.6973333  3
   8249   8244   8230   8252     1  0.0000000  1.0460000  1
   8249   8244   8230   8252     1  0.0000000  0.0000000  3
   8249   8244   8250   8251     1  0.0000000  0.6973333  3
   8253   8254   8257   8261     1  0.0000000  0.6508444  3
   8253   8254   8266   8269     1  0.0000000  1.0460000  1
   8253   8254   8266   8269     1  0.0000000  0.6694400  3
   8253   8267   8273   8274     1  0.0000000  1.0460000  1
   8253   8267   8273   8274     1  0.0000000  0.6694400  3
   8253   8275   8259   8262     1  0.0000000  1.6038667  3
   8254   8257   8258   8260     1  0.0000000  0.6508444  3
   8254   8257   8265   8268     1  0.0000000  1.0460000  1
   8254   8257   8265   8268     1  0.0000000  0.6694400  3
   8254   8253   8267   8271     1  0.0000000  0.6508444  3
   8254   8253   8267   8272     1  0.0000000  0.6508444  3
   8255   8253   8254   8257     1  0.0000000  0.6508444  3
   8255   8253   8254   8266     1  0.0000000  1.0460000  1
   8255   8253   8254   8266     1  0.0000000  0.0000000  3
   8255   8253   8254   8256     1  0.0000000  0.6508444  3
   8255   8253   8267   8273     1  0.0000000  1.0460000  1
   8255   8253   8267   8273     1  0.0000000  0.0000000  3
   8255   8253   8267   8271     1  0.0000000  0.6508444  3
   8255   8253   8267   8272     1  0.0000000  0.6508444  3
   8255   8253   8275   8259     1  0.0000000  1.6038667  3
   8256   8254   8257   8258     1  0.0000000  0.6508444  3
   8256   8254   8257   8265     1  0.0000000  1.0460000  1
   8256   8254   8257   8265     1  0.0000000  0.0000000  3
   8256   8254   8257   8261     1  0.0000000  0.6508444  3
   8256   8254   8266   8269     1  0.0000000  0.6973333  3
   8256   8254   8253   8267     1  0.0000000  0.6508444  3
   8256   8254   8253   8275     1  0.0000000  1.0460000  1
   8256   8254   8253   8275     1  0.0000000  0.0000000  3
   8257   8258   8259   8262     1  0.0000000  0.6508444  3
   8257   8258   8264   8270     1  0.0000000  1.0460000  1
   8257   8258   8264   8270     1  0.0000000  0.6694400  3
   8257   8254   8266   8269     1  0.0000000  1.0460000  1
   8257   8254   8266   8269     1  0.0000000  0.6694400  3
   8258   8257   8265   8268     1  0.0000000  1.0460000  1
   8258   8257   8265   8268     1  0.0000000  0.6694400  3
   8259   8258   8264   8270     1  0.0000000  1.0460000  1
   8259   8258   8264   8270     1  0.0000000  0.6694400  3
   8259   8258   8257   8261     1  0.0000000  0.6508444  3
   8260   8258   8259   8263     1  0.0000000  1.0460000  1
   8260   8258   8259   8263     1  0.0000000  0.0000000  3
   8260   8258   8259   8275     1  0.0000000  1.0460000  1
   8260   8258   8259   8275     1  0.0000000  0.0000000  3
   8260   8258   8259   8262     1  0.0000000  0.6508444  3
   8260   8258   8264   8270     1  0.0000000  0.6973333  3
   8260   8258   8257   8265     1  0.0000000  1.0460000  1
   8260   8258   8257   8265     1  0.0000000  0.0000000  3
   8260   8258   8257   8261     1  0.0000000  0.6508444  3
   8261   8257   8258   8264     1  0.0000000  1.0460000  1
   8261   8257   8258   8264     1  0.0000000  0.0000000  3
   8261   8257   8265   8268     1  0.0000000  0.6973333  3
   8261   8257   8254   8266     1  0.0000000  1.0460000  1
   8261   8257   8254   8266     1  0.0000000  0.0000000  3
   8262   8259   8258   8264     1  0.0000000  0.6508444  3
   8271   8267   8273   8274     1  0.0000000  0.6973333  3
   8271   8267   8253   8275     1  0.0000000  1.0460000  1
   8271   8267   8253   8275     1  0.0000000  0.0000000  3
   8272   8267   8273   8274     1  0.0000000  0.6973333  3
   8272   8267   8253   8275     1  0.0000000  1.0460000  1
   8272   8267   8253   8275     1  0.0000000  0.0000000  3
   8276   8277   8280   8284     1  0.0000000  0.6508444  3
   8276   8277   8289   8292     1  0.0000000  1.0460000  1
   8276   8277   8289   8292     1  0.0000000  0.6694400  3
   8276   8290   8296   8297     1  0.0000000  1.0460000  1
   8276   8290   8296   8297     1  0.0000000  0.6694400  3
   8276   8298   8282   8285     1  0.0000000  1.6038667  3
   8277   8276   8290   8294     1  0.0000000  0.6508444  3
   8277   8276   8290   8295     1  0.0000000  0.6508444  3
   8277   8280   8281   8283     1  0.0000000  0.6508444  3
   8277   8280   8288   8291     1  0.0000000  1.0460000  1
   8277   8280   8288   8291     1  0.0000000  0.6694400  3
   8278   8276   8277   8280     1  0.0000000  0.6508444  3
   8278   8276   8277   8289     1  0.0000000  1.0460000  1
   8278   8276   8277   8289     1  0.0000000  0.0000000  3
   8278   8276   8277   8279     1  0.0000000  0.6508444  3
   8278   8276   8290   8296     1  0.0000000  1.0460000  1
   8278   8276   8290   8296     1  0.0000000  0.0000000  3
   8278   8276   8290   8294     1  0.0000000  0.6508444  3
   8278   8276   8290   8295     1  0.0000000  0.6508444  3
   8278   8276   8298   8282     1  0.0000000  1.6038667  3
   8279   8277   8276   8290     1  0.0000000  0.6508444  3
   8279   8277   8276   8298     1  0.0000000  1.0460000  1
   8279   8277   8276   8298     1  0.0000000  0.0000000  3
   8279   8277   8280   8281     1  0.0000000  0.6508444  3
   8279   8277   8280   8288     1  0.0000000  1.0460000  1
   8279   8277   8280   8288     1  0.0000000  0.0000000  3
   8279   8277   8280   8284     1  0.0000000  0.6508444  3
   8279   8277   8289   8292     1  0.0000000  0.6973333  3
   8280   8277   8289   8292     1  0.0000000  1.0460000  1
   8280   8277   8289   8292     1  0.0000000  0.6694400  3
   8280   8281   8282   8285     1  0.0000000  0.6508444  3
   8280   8281   8287   8293     1  0.0000000  1.0460000  1
   8280   8281   8287   8293     1  0.0000000  0.6694400  3
   8281   8280   8288   8291     1  0.0000000  1.0460000  1
   8281   8280   8288   8291     1  0.0000000  0.6694400  3
   8282   8281   8280   8284     1  0.0000000  0.6508444  3
   8282   8281   8287   8293     1  0.0000000  1.0460000  1
   8282   8281   8287   8293     1  0.0000000  0.6694400  3
   8283   8281   8280   8288     1  0.0000000  1.0460000  1
   8283   8281   8280   8288     1  0.0000000  0.0000000  3
   8283   8281   8280   8284     1  0.0000000  0.6508444  3
   8283   8281   8282   8286     1  0.0000000  1.0460000  1
   8283   8281   8282   8286     1  0.0000000  0.0000000  3
   8283   8281   8282   8298     1  0.0000000  1.0460000  1
   8283   8281   8282   8298     1  0.0000000  0.0000000  3
   8283   8281   8282   8285     1  0.0000000  0.6508444  3
   8283   8281   8287   8293     1  0.0000000  0.6973333  3
   8284   8280   8277   8289     1  0.0000000  1.0460000  1
   8284   8280   8277   8289     1  0.0000000  0.0000000  3
   8284   8280   8281   8287     1  0.0000000  1.0460000  1
   8284   8280   8281   8287     1  0.0000000  0.0000000  3
   8284   8280   8288   8291     1  0.0000000  0.6973333  3
   8285   8282   8281   8287     1  0.0000000  0.6508444  3
   8294   8290   8276   8298     1  0.0000000  1.0460000  1
   8294   8290   8276   8298     1  0.0000000  0.0000000  3
   8294   8290   8296   8297     1  0.0000000  0.6973333  3
   8295   8290   8276   8298     1  0.0000000  1.0460000  1
   8295   8290   8276   8298     1  0.0000000  0.0000000  3
   8295   8290   8296   8297     1  0.0000000  0.6973333  3
   8299   8300   8303   8307     1  0.0000000  0.6508444  3
   8299   8300   8312   8315     1  0.0000000  1.0460000  1
   8299   8300   8312   8315     1  0.0000000  0.6694400  3
   8299   8313   8319   8320     1  0.0000000  1.0460000  1
   8299   8313   8319   8320     1  0.0000000  0.6694400  3
   8299   8321   8305   8308     1  0.0000000  1.6038667  3
   8300   8303   8304   8306     1  0.0000000  0.6508444  3
   8300   8303   8311   8314     1  0.0000000  1.0460000  1
   8300   8303   8311   8314     1  0.0000000  0.6694400  3
   8300   8299   8313   8317     1  0.0000000  0.6508444  3
   8300   8299   8313   8318     1  0.0000000  0.6508444  3
   8301   8299   8300   8303     1  0.0000000  0.6508444  3
   8301   8299   8300   8312     1  0.0000000  1.0460000  1
   8301   8299   8300   8312     1  0.0000000  0.0000000  3
   8301   8299   8300   8302     1  0.0000000  0.6508444  3
   8301   8299   8313   8319     1  0.0000000  1.0460000  1
   8301   8299   8313   8319     1  0.0000000  0.0000000  3
   8301   8299   8313   8317     1  0.0000000  0.6508444  3
   8301   8299   8313   8318     1  0.0000000  0.6508444  3
   8301   8299   8321   8305     1  0.0000000  1.6038667  3
   8302   8300   8303   8304     1  0.0000000  0.6508444  3
   8302   8300   8303   8311     1  0.0000000  1.0460000  1
   8302   8300   8303   8311     1  0.0000000  0.0000000  3
   8302   8300   8303   8307     1  0.0000000  0.6508444  3
   8302   8300   8312   8315     1  0.0000000  0.6973333  3
   8302   8300   8299   8313     1  0.0000000  0.6508444  3
   8302   8300   8299   8321     1  0.0000000  1.0460000  1
   8302   8300   8299   8321     1  0.0000000  0.0000000  3
   8303   8304   8305   8308     1  0.0000000  0.6508444  3
   8303   8304   8310   8316     1  0.0000000  1.0460000  1
   8303   8304   8310   8316     1  0.0000000  0.6694400  3
   8303   8300   8312   8315     1  0.0000000  1.0460000  1
   8303   8300   8312   8315     1  0.0000000  0.6694400  3
   8304   8303   8311   8314     1  0.0000000  1.0460000  1
   8304   8303   8311   8314     1  0.0000000  0.6694400  3
   8305   8304   8310   8316     1  0.0000000  1.0460000  1
   8305   8304   8310   8316     1  0.0000000  0.6694400  3
   8305   8304   8303   8307     1  0.0000000  0.6508444  3
   8306   8304   8305   8309     1  0.0000000  1.0460000  1
   8306   8304   8305   8309     1  0.0000000  0.0000000  3
   8306   8304   8305   8321     1  0.0000000  1.0460000  1
   8306   8304   8305   8321     1  0.0000000  0.0000000  3
   8306   8304   8305   8308     1  0.0000000  0.6508444  3
   8306   8304   8310   8316     1  0.0000000  0.6973333  3
   8306   8304   8303   8311     1  0.0000000  1.0460000  1
   8306   8304   8303   8311     1  0.0000000  0.0000000  3
   8306   8304   8303   8307     1  0.0000000  0.6508444  3
   8307   8303   8304   8310     1  0.0000000  1.0460000  1
   8307   8303   8304   8310     1  0.0000000  0.0000000  3
   8307   8303   8311   8314     1  0.0000000  0.6973333  3
   8307   8303   8300   8312     1  0.0000000  1.0460000  1
   8307   8303   8300   8312     1  0.0000000  0.0000000  3
   8308   8305   8304   8310     1  0.0000000  0.6508444  3
   8317   8313   8319   8320     1  0.0000000  0.6973333  3
   8317   8313   8299   8321     1  0.0000000  1.0460000  1
   8317   8313   8299   8321     1  0.0000000  0.0000000  3
   8318   8313   8319   8320     1  0.0000000  0.6973333  3
   8318   8313   8299   8321     1  0.0000000  1.0460000  1
   8318   8313   8299   8321     1  0.0000000  0.0000000  3
   8322   8323   8326   8330     1  0.0000000  0.6508444  3
   8322   8323   8335   8338     1  0.0000000  1.0460000  1
   8322   8323   8335   8338     1  0.0000000  0.6694400  3
   8322   8336   8342   8343     1  0.0000000  1.0460000  1
   8322   8336   8342   8343     1  0.0000000  0.6694400  3
   8322   8344   8328   8331     1  0.0000000  1.6038667  3
   8323   8322   8336   8340     1  0.0000000  0.6508444  3
   8323   8322   8336   8341     1  0.0000000  0.6508444  3
   8323   8326   8327   8329     1  0.0000000  0.6508444  3
   8323   8326   8334   8337     1  0.0000000  1.0460000  1
   8323   8326   8334   8337     1  0.0000000  0.6694400  3
   8324   8322   8323   8326     1  0.0000000  0.6508444  3
   8324   8322   8323   8335     1  0.0000000  1.0460000  1
   8324   8322   8323   8335     1  0.0000000  0.0000000  3
   8324   8322   8323   8325     1  0.0000000  0.6508444  3
   8324   8322   8336   8342     1  0.0000000  1.0460000  1
   8324   8322   8336   8342     1  0.0000000  0.0000000  3
   8324   8322   8336   8340     1  0.0000000  0.6508444  3
   8324   8322   8336   8341     1  0.0000000  0.6508444  3
   8324   8322   8344   8328     1  0.0000000  1.6038667  3
   8325   8323   8322   8336     1  0.0000000  0.6508444  3
   8325   8323   8322   8344     1  0.0000000  1.0460000  1
   8325   8323   8322   8344     1  0.0000000  0.0000000  3
   8325   8323   8326   8327     1  0.0000000  0.6508444  3
   8325   8323   8326   8334     1  0.0000000  1.0460000  1
   8325   8323   8326   8334     1  0.0000000  0.0000000  3
   8325   8323   8326   8330     1  0.0000000  0.6508444  3
   8325   8323   8335   8338     1  0.0000000  0.6973333  3
   8326   8323   8335   8338     1  0.0000000  1.0460000  1
   8326   8323   8335   8338     1  0.0000000  0.6694400  3
   8326   8327   8328   8331     1  0.0000000  0.6508444  3
   8326   8327   8333   8339     1  0.0000000  1.0460000  1
   8326   8327   8333   8339     1  0.0000000  0.6694400  3
   8327   8326   8334   8337     1  0.0000000  1.0460000  1
   8327   8326   8334   8337     1  0.0000000  0.6694400  3
   8328   8327   8326   8330     1  0.0000000  0.6508444  3
   8328   8327   8333   8339     1  0.0000000  1.0460000  1
   8328   8327   8333   8339     1  0.0000000  0.6694400  3
   8329   8327   8326   8334     1  0.0000000  1.0460000  1
   8329   8327   8326   8334     1  0.0000000  0.0000000  3
   8329   8327   8326   8330     1  0.0000000  0.6508444  3
   8329   8327   8328   8332     1  0.0000000  1.0460000  1
   8329   8327   8328   8332     1  0.0000000  0.0000000  3
   8329   8327   8328   8344     1  0.0000000  1.0460000  1
   8329   8327   8328   8344     1  0.0000000  0.0000000  3
   8329   8327   8328   8331     1  0.0000000  0.6508444  3
   8329   8327   8333   8339     1  0.0000000  0.6973333  3
   8330   8326   8323   8335     1  0.0000000  1.0460000  1
   8330   8326   8323   8335     1  0.0000000  0.0000000  3
   8330   8326   8327   8333     1  0.0000000  1.0460000  1
   8330   8326   8327   8333     1  0.0000000  0.0000000  3
   8330   8326   8334   8337     1  0.0000000  0.6973333  3
   8331   8328   8327   8333     1  0.0000000  0.6508444  3
   8340   8336   8322   8344     1  0.0000000  1.0460000  1
   8340   8336   8322   8344     1  0.0000000  0.0000000  3
   8340   8336   8342   8343     1  0.0000000  0.6973333  3
   8341   8336   8322   8344     1  0.0000000  1.0460000  1
   8341   8336   8322   8344     1  0.0000000  0.0000000  3
   8341   8336   8342   8343     1  0.0000000  0.6973333  3
   8345   8346   8349   8353     1  0.0000000  0.6508444  3
   8345   8346   8358   8361     1  0.0000000  1.0460000  1
   8345   8346   8358   8361     1  0.0000000  0.6694400  3
   8345   8359   8365   8366     1  0.0000000  1.0460000  1
   8345   8359   8365   8366     1  0.0000000  0.6694400  3
   8345   8367   8351   8354     1  0.0000000  1.6038667  3
   8346   8349   8350   8352     1  0.0000000  0.6508444  3
   8346   8349   8357   8360     1  0.0000000  1.0460000  1
   8346   8349   8357   8360     1  0.0000000  0.6694400  3
   8346   8345   8359   8363     1  0.0000000  0.6508444  3
   8346   8345   8359   8364     1  0.0000000  0.6508444  3
   8347   8345   8346   8349     1  0.0000000  0.6508444  3
   8347   8345   8346   8358     1  0.0000000  1.0460000  1
   8347   8345   8346   8358     1  0.0000000  0.0000000  3
   8347   8345   8346   8348     1  0.0000000  0.6508444  3
   8347   8345   8359   8365     1  0.0000000  1.0460000  1
   8347   8345   8359   8365     1  0.0000000  0.0000000  3
   8347   8345   8359   8363     1  0.0000000  0.6508444  3
   8347   8345   8359   8364     1  0.0000000  0.6508444  3
   8347   8345   8367   8351     1  0.0000000  1.6038667  3
   8348   8346   8349   8350     1  0.0000000  0.6508444  3
   8348   8346   8349   8357     1  0.0000000  1.0460000  1
   8348   8346   8349   8357     1  0.0000000  0.0000000  3
   8348   8346   8349   8353     1  0.0000000  0.6508444  3
   8348   8346   8358   8361     1  0.0000000  0.6973333  3
   8348   8346   8345   8359     1  0.0000000  0.6508444  3
   8348   8346   8345   8367     1  0.0000000  1.0460000  1
   8348   8346   8345   8367     1  0.0000000  0.0000000  3
   8349   8350   8351   8354     1  0.0000000  0.6508444  3
   8349   8350   8356   8362     1  0.0000000  1.0460000  1
   8349   8350   8356   8362     1  0.0000000  0.6694400  3
   8349   8346   8358   8361     1  0.0000000  1.0460000  1
   8349   8346   8358   8361     1  0.0000000  0.6694400  3
   8350   8349   8357   8360     1  0.0000000  1.0460000  1
   8350   8349   8357   8360     1  0.0000000  0.6694400  3
   8351   8350   8356   8362     1  0.0000000  1.0460000  1
   8351   8350   8356   8362     1  0.0000000  0.6694400  3
   8351   8350   8349   8353     1  0.0000000  0.6508444  3
   8352   8350   8351   8355     1  0.0000000  1.0460000  1
   8352   8350   8351   8355     1  0.0000000  0.0000000  3
   8352   8350   8351   8367     1  0.0000000  1.0460000  1
   8352   8350   8351   8367     1  0.0000000  0.0000000  3
   8352   8350   8351   8354     1  0.0000000  0.6508444  3
   8352   8350   8356   8362     1  0.0000000  0.6973333  3
   8352   8350   8349   8357     1  0.0000000  1.0460000  1
   8352   8350   8349   8357     1  0.0000000  0.0000000  3
   8352   8350   8349   8353     1  0.0000000  0.6508444  3
   8353   8349   8350   8356     1  0.0000000  1.0460000  1
   8353   8349   8350   8356     1  0.0000000  0.0000000  3
   8353   8349   8357   8360     1  0.0000000  0.6973333  3
   8353   8349   8346   8358     1  0.0000000  1.0460000  1
   8353   8349   8346   8358     1  0.0000000  0.0000000  3
   8354   8351   8350   8356     1  0.0000000  0.6508444  3
   8363   8359   8365   8366     1  0.0000000  0.6973333  3
   8363   8359   8345   8367     1  0.0000000  1.0460000  1
   8363   8359   8345   8367     1  0.0000000  0.0000000  3
   8364   8359   8365   8366     1  0.0000000  0.6973333  3
   8364   8359   8345   8367     1  0.0000000  1.0460000  1
   8364   8359   8345   8367     1  0.0000000  0.0000000  3
   8368   8369   8372   8376     1  0.0000000  0.6508444  3
   8368   8369   8381   8384     1  0.0000000  1.0460000  1
   8368   8369   8381   8384     1  0.0000000  0.6694400  3
   8368   8382   8388   8389     1  0.0000000  1.0460000  1
   8368   8382   8388   8389     1  0.0000000  0.6694400  3
   8368   8390   8374   8377     1  0.0000000  1.6038667  3
   8369   8368   8382   8386     1  0.0000000  0.6508444  3
   8369   8368   8382   8387     1  0.0000000  0.6508444  3
   8369   8372   8373   8375     1  0.0000000  0.6508444  3
   8369   8372   8380   8383     1  0.0000000  1.0460000  1
   8369   8372   8380   8383     1  0.0000000  0.6694400  3
   8370   8368   8369   8372     1  0.0000000  0.6508444  3
   8370   8368   8369   8381     1  0.0000000  1.0460000  1
   8370   8368   8369   8381     1  0.0000000  0.0000000  3
   8370   8368   8369   8371     1  0.0000000  0.6508444  3
   8370   8368   8382   8388     1  0.0000000  1.0460000  1
   8370   8368   8382   8388     1  0.0000000  0.0000000  3
   8370   8368   8382   8386     1  0.0000000  0.6508444  3
   8370   8368   8382   8387     1  0.0000000  0.6508444  3
   8370   8368   8390   8374     1  0.0000000  1.6038667  3
   8371   8369   8368   8382     1  0.0000000  0.6508444  3
   8371   8369   8368   8390     1  0.0000000  1.0460000  1
   8371   8369   8368   8390     1  0.0000000  0.0000000  3
   8371   8369   8372   8373     1  0.0000000  0.6508444  3
   8371   8369   8372   8380     1  0.0000000  1.0460000  1
   8371   8369   8372   8380     1  0.0000000  0.0000000  3
   8371   8369   8372   8376     1  0.0000000  0.6508444  3
   8371   8369   8381   8384     1  0.0000000  0.6973333  3
   8372   8369   8381   8384     1  0.0000000  1.0460000  1
   8372   8369   8381   8384     1  0.0000000  0.6694400  3
   8372   8373   8374   8377     1  0.0000000  0.6508444  3
   8372   8373   8379   8385     1  0.0000000  1.0460000  1
   8372   8373   8379   8385     1  0.0000000  0.6694400  3
   8373   8372   8380   8383     1  0.0000000  1.0460000  1
   8373   8372   8380   8383     1  0.0000000  0.6694400  3
   8374   8373   8372   8376     1  0.0000000  0.6508444  3
   8374   8373   8379   8385     1  0.0000000  1.0460000  1
   8374   8373   8379   8385     1  0.0000000  0.6694400  3
   8375   8373   8372   8380     1  0.0000000  1.0460000  1
   8375   8373   8372   8380     1  0.0000000  0.0000000  3
   8375   8373   8372   8376     1  0.0000000  0.6508444  3
   8375   8373   8374   8378     1  0.0000000  1.0460000  1
   8375   8373   8374   8378     1  0.0000000  0.0000000  3
   8375   8373   8374   8390     1  0.0000000  1.0460000  1
   8375   8373   8374   8390     1  0.0000000  0.0000000  3
   8375   8373   8374   8377     1  0.0000000  0.6508444  3
   8375   8373   8379   8385     1  0.0000000  0.6973333  3
   8376   8372   8369   8381     1  0.0000000  1.0460000  1
   8376   8372   8369   8381     1  0.0000000  0.0000000  3
   8376   8372   8373   8379     1  0.0000000  1.0460000  1
   8376   8372   8373   8379     1  0.0000000  0.0000000  3
   8376   8372   8380   8383     1  0.0000000  0.6973333  3
   8377   8374   8373   8379     1  0.0000000  0.6508444  3
   8386   8382   8368   8390     1  0.0000000  1.0460000  1
   8386   8382   8368   8390     1  0.0000000  0.0000000  3
   8386   8382   8388   8389     1  0.0000000  0.6973333  3
   8387   8382   8368   8390     1  0.0000000  1.0460000  1
   8387   8382   8368   8390     1  0.0000000  0.0000000  3
   8387   8382   8388   8389     1  0.0000000  0.6973333  3
   8391   8392   8395   8399     1  0.0000000  0.6508444  3
   8391   8392   8404   8407     1  0.0000000  1.0460000  1
   8391   8392   8404   8407     1  0.0000000  0.6694400  3
   8391   8405   8411   8412     1  0.0000000  1.0460000  1
   8391   8405   8411   8412     1  0.0000000  0.6694400  3
   8391   8413   8397   8400     1  0.0000000  1.6038667  3
   8392   8395   8396   8398     1  0.0000000  0.6508444  3
   8392   8395   8403   8406     1  0.0000000  1.0460000  1
   8392   8395   8403   8406     1  0.0000000  0.6694400  3
   8392   8391   8405   8409     1  0.0000000  0.6508444  3
   8392   8391   8405   8410     1  0.0000000  0.6508444  3
   8393   8391   8392   8395     1  0.0000000  0.6508444  3
   8393   8391   8392   8404     1  0.0000000  1.0460000  1
   8393   8391   8392   8404     1  0.0000000  0.0000000  3
   8393   8391   8392   8394     1  0.0000000  0.6508444  3
   8393   8391   8405   8411     1  0.0000000  1.0460000  1
   8393   8391   8405   8411     1  0.0000000  0.0000000  3
   8393   8391   8405   8409     1  0.0000000  0.6508444  3
   8393   8391   8405   8410     1  0.0000000  0.6508444  3
   8393   8391   8413   8397     1  0.0000000  1.6038667  3
   8394   8392   8395   8396     1  0.0000000  0.6508444  3
   8394   8392   8395   8403     1  0.0000000  1.0460000  1
   8394   8392   8395   8403     1  0.0000000  0.0000000  3
   8394   8392   8395   8399     1  0.0000000  0.6508444  3
   8394   8392   8404   8407     1  0.0000000  0.6973333  3
   8394   8392   8391   8405     1  0.0000000  0.6508444  3
   8394   8392   8391   8413     1  0.0000000  1.0460000  1
   8394   8392   8391   8413     1  0.0000000  0.0000000  3
   8395   8396   8397   8400     1  0.0000000  0.6508444  3
   8395   8396   8402   8408     1  0.0000000  1.0460000  1
   8395   8396   8402   8408     1  0.0000000  0.6694400  3
   8395   8392   8404   8407     1  0.0000000  1.0460000  1
   8395   8392   8404   8407     1  0.0000000  0.6694400  3
   8396   8395   8403   8406     1  0.0000000  1.0460000  1
   8396   8395   8403   8406     1  0.0000000  0.6694400  3
   8397   8396   8402   8408     1  0.0000000  1.0460000  1
   8397   8396   8402   8408     1  0.0000000  0.6694400  3
   8397   8396   8395   8399     1  0.0000000  0.6508444  3
   8398   8396   8397   8401     1  0.0000000  1.0460000  1
   8398   8396   8397   8401     1  0.0000000  0.0000000  3
   8398   8396   8397   8413     1  0.0000000  1.0460000  1
   8398   8396   8397   8413     1  0.0000000  0.0000000  3
   8398   8396   8397   8400     1  0.0000000  0.6508444  3
   8398   8396   8402   8408     1  0.0000000  0.6973333  3
   8398   8396   8395   8403     1  0.0000000  1.0460000  1
   8398   8396   8395   8403     1  0.0000000  0.0000000  3
   8398   8396   8395   8399     1  0.0000000  0.6508444  3
   8399   8395   8396   8402     1  0.0000000  1.0460000  1
   8399   8395   8396   8402     1  0.0000000  0.0000000  3
   8399   8395   8403   8406     1  0.0000000  0.6973333  3
   8399   8395   8392   8404     1  0.0000000  1.0460000  1
   8399   8395   8392   8404     1  0.0000000  0.0000000  3
   8400   8397   8396   8402     1  0.0000000  0.6508444  3
   8409   8405   8411   8412     1  0.0000000  0.6973333  3
   8409   8405   8391   8413     1  0.0000000  1.0460000  1
   8409   8405   8391   8413     1  0.0000000  0.0000000  3
   8410   8405   8411   8412     1  0.0000000  0.6973333  3
   8410   8405   8391   8413     1  0.0000000  1.0460000  1
   8410   8405   8391   8413     1  0.0000000  0.0000000  3
   8414   8415   8418   8422     1  0.0000000  0.6508444  3
   8414   8415   8427   8430     1  0.0000000  1.0460000  1
   8414   8415   8427   8430     1  0.0000000  0.6694400  3
   8414   8428   8434   8435     1  0.0000000  1.0460000  1
   8414   8428   8434   8435     1  0.0000000  0.6694400  3
   8414   8436   8420   8423     1  0.0000000  1.6038667  3
   8415   8414   8428   8432     1  0.0000000  0.6508444  3
   8415   8414   8428   8433     1  0.0000000  0.6508444  3
   8415   8418   8419   8421     1  0.0000000  0.6508444  3
   8415   8418   8426   8429     1  0.0000000  1.0460000  1
   8415   8418   8426   8429     1  0.0000000  0.6694400  3
   8416   8414   8415   8418     1  0.0000000  0.6508444  3
   8416   8414   8415   8427     1  0.0000000  1.0460000  1
   8416   8414   8415   8427     1  0.0000000  0.0000000  3
   8416   8414   8415   8417     1  0.0000000  0.6508444  3
   8416   8414   8428   8434     1  0.0000000  1.0460000  1
   8416   8414   8428   8434     1  0.0000000  0.0000000  3
   8416   8414   8428   8432     1  0.0000000  0.6508444  3
   8416   8414   8428   8433     1  0.0000000  0.6508444  3
   8416   8414   8436   8420     1  0.0000000  1.6038667  3
   8417   8415   8414   8428     1  0.0000000  0.6508444  3
   8417   8415   8414   8436     1  0.0000000  1.0460000  1
   8417   8415   8414   8436     1  0.0000000  0.0000000  3
   8417   8415   8418   8419     1  0.0000000  0.6508444  3
   8417   8415   8418   8426     1  0.0000000  1.0460000  1
   8417   8415   8418   8426     1  0.0000000  0.0000000  3
   8417   8415   8418   8422     1  0.0000000  0.6508444  3
   8417   8415   8427   8430     1  0.0000000  0.6973333  3
   8418   8415   8427   8430     1  0.0000000  1.0460000  1
   8418   8415   8427   8430     1  0.0000000  0.6694400  3
   8418   8419   8420   8423     1  0.0000000  0.6508444  3
   8418   8419   8425   8431     1  0.0000000  1.0460000  1
   8418   8419   8425   8431     1  0.0000000  0.6694400  3
   8419   8418   8426   8429     1  0.0000000  1.0460000  1
   8419   8418   8426   8429     1  0.0000000  0.6694400  3
   8420   8419   8418   8422     1  0.0000000  0.6508444  3
   8420   8419   8425   8431     1  0.0000000  1.0460000  1
   8420   8419   8425   8431     1  0.0000000  0.6694400  3
   8421   8419   8418   8426     1  0.0000000  1.0460000  1
   8421   8419   8418   8426     1  0.0000000  0.0000000  3
   8421   8419   8418   8422     1  0.0000000  0.6508444  3
   8421   8419   8420   8424     1  0.0000000  1.0460000  1
   8421   8419   8420   8424     1  0.0000000  0.0000000  3
   8421   8419   8420   8436     1  0.0000000  1.0460000  1
   8421   8419   8420   8436     1  0.0000000  0.0000000  3
   8421   8419   8420   8423     1  0.0000000  0.6508444  3
   8421   8419   8425   8431     1  0.0000000  0.6973333  3
   8422   8418   8415   8427     1  0.0000000  1.0460000  1
   8422   8418   8415   8427     1  0.0000000  0.0000000  3
   8422   8418   8419   8425     1  0.0000000  1.0460000  1
   8422   8418   8419   8425     1  0.0000000  0.0000000  3
   8422   8418   8426   8429     1  0.0000000  0.6973333  3
   8423   8420   8419   8425     1  0.0000000  0.6508444  3
   8432   8428   8414   8436     1  0.0000000  1.0460000  1
   8432   8428   8414   8436     1  0.0000000  0.0000000  3
   8432   8428   8434   8435     1  0.0000000  0.6973333  3
   8433   8428   8414   8436     1  0.0000000  1.0460000  1
   8433   8428   8414   8436     1  0.0000000  0.0000000  3
   8433   8428   8434   8435     1  0.0000000  0.6973333  3
   8437   8438   8441   8445     1  0.0000000  0.6508444  3
   8437   8438   8450   8453     1  0.0000000  1.0460000  1
   8437   8438   8450   8453     1  0.0000000  0.6694400  3
   8437   8451   8457   8458     1  0.0000000  1.0460000  1
   8437   8451   8457   8458     1  0.0000000  0.6694400  3
   8437   8459   8443   8446     1  0.0000000  1.6038667  3
   8438   8441   8442   8444     1  0.0000000  0.6508444  3
   8438   8441   8449   8452     1  0.0000000  1.0460000  1
   8438   8441   8449   8452     1  0.0000000  0.6694400  3
   8438   8437   8451   8455     1  0.0000000  0.6508444  3
   8438   8437   8451   8456     1  0.0000000  0.6508444  3
   8439   8437   8438   8441     1  0.0000000  0.6508444  3
   8439   8437   8438   8450     1  0.0000000  1.0460000  1
   8439   8437   8438   8450     1  0.0000000  0.0000000  3
   8439   8437   8438   8440     1  0.0000000  0.6508444  3
   8439   8437   8451   8457     1  0.0000000  1.0460000  1
   8439   8437   8451   8457     1  0.0000000  0.0000000  3
   8439   8437   8451   8455     1  0.0000000  0.6508444  3
   8439   8437   8451   8456     1  0.0000000  0.6508444  3
   8439   8437   8459   8443     1  0.0000000  1.6038667  3
   8440   8438   8441   8442     1  0.0000000  0.6508444  3
   8440   8438   8441   8449     1  0.0000000  1.0460000  1
   8440   8438   8441   8449     1  0.0000000  0.0000000  3
   8440   8438   8441   8445     1  0.0000000  0.6508444  3
   8440   8438   8450   8453     1  0.0000000  0.6973333  3
   8440   8438   8437   8451     1  0.0000000  0.6508444  3
   8440   8438   8437   8459     1  0.0000000  1.0460000  1
   8440   8438   8437   8459     1  0.0000000  0.0000000  3
   8441   8442   8443   8446     1  0.0000000  0.6508444  3
   8441   8442   8448   8454     1  0.0000000  1.0460000  1
   8441   8442   8448   8454     1  0.0000000  0.6694400  3
   8441   8438   8450   8453     1  0.0000000  1.0460000  1
   8441   8438   8450   8453     1  0.0000000  0.6694400  3
   8442   8441   8449   8452     1  0.0000000  1.0460000  1
   8442   8441   8449   8452     1  0.0000000  0.6694400  3
   8443   8442   8448   8454     1  0.0000000  1.0460000  1
   8443   8442   8448   8454     1  0.0000000  0.6694400  3
   8443   8442   8441   8445     1  0.0000000  0.6508444  3
   8444   8442   8443   8447     1  0.0000000  1.0460000  1
   8444   8442   8443   8447     1  0.0000000  0.0000000  3
   8444   8442   8443   8459     1  0.0000000  1.0460000  1
   8444   8442   8443   8459     1  0.0000000  0.0000000  3
   8444   8442   8443   8446     1  0.0000000  0.6508444  3
   8444   8442   8448   8454     1  0.0000000  0.6973333  3
   8444   8442   8441   8449     1  0.0000000  1.0460000  1
   8444   8442   8441   8449     1  0.0000000  0.0000000  3
   8444   8442   8441   8445     1  0.0000000  0.6508444  3
   8445   8441   8442   8448     1  0.0000000  1.0460000  1
   8445   8441   8442   8448     1  0.0000000  0.0000000  3
   8445   8441   8449   8452     1  0.0000000  0.6973333  3
   8445   8441   8438   8450     1  0.0000000  1.0460000  1
   8445   8441   8438   8450     1  0.0000000  0.0000000  3
   8446   8443   8442   8448     1  0.0000000  0.6508444  3
   8455   8451   8457   8458     1  0.0000000  0.6973333  3
   8455   8451   8437   8459     1  0.0000000  1.0460000  1
   8455   8451   8437   8459     1  0.0000000  0.0000000  3
   8456   8451   8457   8458     1  0.0000000  0.6973333  3
   8456   8451   8437   8459     1  0.0000000  1.0460000  1
   8456   8451   8437   8459     1  0.0000000  0.0000000  3
   8460   8461   8464   8468     1  0.0000000  0.6508444  3
   8460   8461   8473   8476     1  0.0000000  1.0460000  1
   8460   8461   8473   8476     1  0.0000000  0.6694400  3
   8460   8474   8480   8481     1  0.0000000  1.0460000  1
   8460   8474   8480   8481     1  0.0000000  0.6694400  3
   8460   8482   8466   8469     1  0.0000000  1.6038667  3
   8461   8460   8474   8478     1  0.0000000  0.6508444  3
   8461   8460   8474   8479     1  0.0000000  0.6508444  3
   8461   8464   8465   8467     1  0.0000000  0.6508444  3
   8461   8464   8472   8475     1  0.0000000  1.0460000  1
   8461   8464   8472   8475     1  0.0000000  0.6694400  3
   8462   8460   8461   8464     1  0.0000000  0.6508444  3
   8462   8460   8461   8473     1  0.0000000  1.0460000  1
   8462   8460   8461   8473     1  0.0000000  0.0000000  3
   8462   8460   8461   8463     1  0.0000000  0.6508444  3
   8462   8460   8474   8480     1  0.0000000  1.0460000  1
   8462   8460   8474   8480     1  0.0000000  0.0000000  3
   8462   8460   8474   8478     1  0.0000000  0.6508444  3
   8462   8460   8474   8479     1  0.0000000  0.6508444  3
   8462   8460   8482   8466     1  0.0000000  1.6038667  3
   8463   8461   8460   8474     1  0.0000000  0.6508444  3
   8463   8461   8460   8482     1  0.0000000  1.0460000  1
   8463   8461   8460   8482     1  0.0000000  0.0000000  3
   8463   8461   8464   8465     1  0.0000000  0.6508444  3
   8463   8461   8464   8472     1  0.0000000  1.0460000  1
   8463   8461   8464   8472     1  0.0000000  0.0000000  3
   8463   8461   8464   8468     1  0.0000000  0.6508444  3
   8463   8461   8473   8476     1  0.0000000  0.6973333  3
   8464   8461   8473   8476     1  0.0000000  1.0460000  1
   8464   8461   8473   8476     1  0.0000000  0.6694400  3
   8464   8465   8466   8469     1  0.0000000  0.6508444  3
   8464   8465   8471   8477     1  0.0000000  1.0460000  1
   8464   8465   8471   8477     1  0.0000000  0.6694400  3
   8465   8464   8472   8475     1  0.0000000  1.0460000  1
   8465   8464   8472   8475     1  0.0000000  0.6694400  3
   8466   8465   8464   8468     1  0.0000000  0.6508444  3
   8466   8465   8471   8477     1  0.0000000  1.0460000  1
   8466   8465   8471   8477     1  0.0000000  0.6694400  3
   8467   8465   8464   8472     1  0.0000000  1.0460000  1
   8467   8465   8464   8472     1  0.0000000  0.0000000  3
   8467   8465   8464   8468     1  0.0000000  0.6508444  3
   8467   8465   8466   8470     1  0.0000000  1.0460000  1
   8467   8465   8466   8470     1  0.0000000  0.0000000  3
   8467   8465   8466   8482     1  0.0000000  1.0460000  1
   8467   8465   8466   8482     1  0.0000000  0.0000000  3
   8467   8465   8466   8469     1  0.0000000  0.6508444  3
   8467   8465   8471   8477     1  0.0000000  0.6973333  3
   8468   8464   8461   8473     1  0.0000000  1.0460000  1
   8468   8464   8461   8473     1  0.0000000  0.0000000  3
   8468   8464   8465   8471     1  0.0000000  1.0460000  1
   8468   8464   8465   8471     1  0.0000000  0.0000000  3
   8468   8464   8472   8475     1  0.0000000  0.6973333  3
   8469   8466   8465   8471     1  0.0000000  0.6508444  3
   8478   8474   8460   8482     1  0.0000000  1.0460000  1
   8478   8474   8460   8482     1  0.0000000  0.0000000  3
   8478   8474   8480   8481     1  0.0000000  0.6973333  3
   8479   8474   8460   8482     1  0.0000000  1.0460000  1
   8479   8474   8460   8482     1  0.0000000  0.0000000  3
   8479   8474   8480   8481     1  0.0000000  0.6973333  3
   8483   8484   8487   8491     1  0.0000000  0.6508444  3
   8483   8484   8496   8499     1  0.0000000  1.0460000  1
   8483   8484   8496   8499     1  0.0000000  0.6694400  3
   8483   8497   8503   8504     1  0.0000000  1.0460000  1
   8483   8497   8503   8504     1  0.0000000  0.6694400  3
   8483   8505   8489   8492     1  0.0000000  1.6038667  3
   8484   8487   8488   8490     1  0.0000000  0.6508444  3
   8484   8487   8495   8498     1  0.0000000  1.0460000  1
   8484   8487   8495   8498     1  0.0000000  0.6694400  3
   8484   8483   8497   8501     1  0.0000000  0.6508444  3
   8484   8483   8497   8502     1  0.0000000  0.6508444  3
   8485   8483   8484   8487     1  0.0000000  0.6508444  3
   8485   8483   8484   8496     1  0.0000000  1.0460000  1
   8485   8483   8484   8496     1  0.0000000  0.0000000  3
   8485   8483   8484   8486     1  0.0000000  0.6508444  3
   8485   8483   8497   8503     1  0.0000000  1.0460000  1
   8485   8483   8497   8503     1  0.0000000  0.0000000  3
   8485   8483   8497   8501     1  0.0000000  0.6508444  3
   8485   8483   8497   8502     1  0.0000000  0.6508444  3
   8485   8483   8505   8489     1  0.0000000  1.6038667  3
   8486   8484   8487   8488     1  0.0000000  0.6508444  3
   8486   8484   8487   8495     1  0.0000000  1.0460000  1
   8486   8484   8487   8495     1  0.0000000  0.0000000  3
   8486   8484   8487   8491     1  0.0000000  0.6508444  3
   8486   8484   8496   8499     1  0.0000000  0.6973333  3
   8486   8484   8483   8497     1  0.0000000  0.6508444  3
   8486   8484   8483   8505     1  0.0000000  1.0460000  1
   8486   8484   8483   8505     1  0.0000000  0.0000000  3
   8487   8488   8489   8492     1  0.0000000  0.6508444  3
   8487   8488   8494   8500     1  0.0000000  1.0460000  1
   8487   8488   8494   8500     1  0.0000000  0.6694400  3
   8487   8484   8496   8499     1  0.0000000  1.0460000  1
   8487   8484   8496   8499     1  0.0000000  0.6694400  3
   8488   8487   8495   8498     1  0.0000000  1.0460000  1
   8488   8487   8495   8498     1  0.0000000  0.6694400  3
   8489   8488   8494   8500     1  0.0000000  1.0460000  1
   8489   8488   8494   8500     1  0.0000000  0.6694400  3
   8489   8488   8487   8491     1  0.0000000  0.6508444  3
   8490   8488   8489   8493     1  0.0000000  1.0460000  1
   8490   8488   8489   8493     1  0.0000000  0.0000000  3
   8490   8488   8489   8505     1  0.0000000  1.0460000  1
   8490   8488   8489   8505     1  0.0000000  0.0000000  3
   8490   8488   8489   8492     1  0.0000000  0.6508444  3
   8490   8488   8494   8500     1  0.0000000  0.6973333  3
   8490   8488   8487   8495     1  0.0000000  1.0460000  1
   8490   8488   8487   8495     1  0.0000000  0.0000000  3
   8490   8488   8487   8491     1  0.0000000  0.6508444  3
   8491   8487   8488   8494     1  0.0000000  1.0460000  1
   8491   8487   8488   8494     1  0.0000000  0.0000000  3
   8491   8487   8495   8498     1  0.0000000  0.6973333  3
   8491   8487   8484   8496     1  0.0000000  1.0460000  1
   8491   8487   8484   8496     1  0.0000000  0.0000000  3
   8492   8489   8488   8494     1  0.0000000  0.6508444  3
   8501   8497   8503   8504     1  0.0000000  0.6973333  3
   8501   8497   8483   8505     1  0.0000000  1.0460000  1
   8501   8497   8483   8505     1  0.0000000  0.0000000  3
   8502   8497   8503   8504     1  0.0000000  0.6973333  3
   8502   8497   8483   8505     1  0.0000000  1.0460000  1
   8502   8497   8483   8505     1  0.0000000  0.0000000  3
   8506   8507   8510   8514     1  0.0000000  0.6508444  3
   8506   8507   8519   8522     1  0.0000000  1.0460000  1
   8506   8507   8519   8522     1  0.0000000  0.6694400  3
   8506   8520   8526   8527     1  0.0000000  1.0460000  1
   8506   8520   8526   8527     1  0.0000000  0.6694400  3
   8506   8528   8512   8515     1  0.0000000  1.6038667  3
   8507   8506   8520   8524     1  0.0000000  0.6508444  3
   8507   8506   8520   8525     1  0.0000000  0.6508444  3
   8507   8510   8511   8513     1  0.0000000  0.6508444  3
   8507   8510   8518   8521     1  0.0000000  1.0460000  1
   8507   8510   8518   8521     1  0.0000000  0.6694400  3
   8508   8506   8507   8510     1  0.0000000  0.6508444  3
   8508   8506   8507   8519     1  0.0000000  1.0460000  1
   8508   8506   8507   8519     1  0.0000000  0.0000000  3
   8508   8506   8507   8509     1  0.0000000  0.6508444  3
   8508   8506   8520   8526     1  0.0000000  1.0460000  1
   8508   8506   8520   8526     1  0.0000000  0.0000000  3
   8508   8506   8520   8524     1  0.0000000  0.6508444  3
   8508   8506   8520   8525     1  0.0000000  0.6508444  3
   8508   8506   8528   8512     1  0.0000000  1.6038667  3
   8509   8507   8506   8520     1  0.0000000  0.6508444  3
   8509   8507   8506   8528     1  0.0000000  1.0460000  1
   8509   8507   8506   8528     1  0.0000000  0.0000000  3
   8509   8507   8510   8511     1  0.0000000  0.6508444  3
   8509   8507   8510   8518     1  0.0000000  1.0460000  1
   8509   8507   8510   8518     1  0.0000000  0.0000000  3
   8509   8507   8510   8514     1  0.0000000  0.6508444  3
   8509   8507   8519   8522     1  0.0000000  0.6973333  3
   8510   8507   8519   8522     1  0.0000000  1.0460000  1
   8510   8507   8519   8522     1  0.0000000  0.6694400  3
   8510   8511   8512   8515     1  0.0000000  0.6508444  3
   8510   8511   8517   8523     1  0.0000000  1.0460000  1
   8510   8511   8517   8523     1  0.0000000  0.6694400  3
   8511   8510   8518   8521     1  0.0000000  1.0460000  1
   8511   8510   8518   8521     1  0.0000000  0.6694400  3
   8512   8511   8510   8514     1  0.0000000  0.6508444  3
   8512   8511   8517   8523     1  0.0000000  1.0460000  1
   8512   8511   8517   8523     1  0.0000000  0.6694400  3
   8513   8511   8510   8518     1  0.0000000  1.0460000  1
   8513   8511   8510   8518     1  0.0000000  0.0000000  3
   8513   8511   8510   8514     1  0.0000000  0.6508444  3
   8513   8511   8512   8516     1  0.0000000  1.0460000  1
   8513   8511   8512   8516     1  0.0000000  0.0000000  3
   8513   8511   8512   8528     1  0.0000000  1.0460000  1
   8513   8511   8512   8528     1  0.0000000  0.0000000  3
   8513   8511   8512   8515     1  0.0000000  0.6508444  3
   8513   8511   8517   8523     1  0.0000000  0.6973333  3
   8514   8510   8507   8519     1  0.0000000  1.0460000  1
   8514   8510   8507   8519     1  0.0000000  0.0000000  3
   8514   8510   8511   8517     1  0.0000000  1.0460000  1
   8514   8510   8511   8517     1  0.0000000  0.0000000  3
   8514   8510   8518   8521     1  0.0000000  0.6973333  3
   8515   8512   8511   8517     1  0.0000000  0.6508444  3
   8524   8520   8506   8528     1  0.0000000  1.0460000  1
   8524   8520   8506   8528     1  0.0000000  0.0000000  3
   8524   8520   8526   8527     1  0.0000000  0.6973333  3
   8525   8520   8506   8528     1  0.0000000  1.0460000  1
   8525   8520   8506   8528     1  0.0000000  0.0000000  3
   8525   8520   8526   8527     1  0.0000000  0.6973333  3
   8529   8530   8533   8537     1  0.0000000  0.6508444  3
   8529   8530   8542   8545     1  0.0000000  1.0460000  1
   8529   8530   8542   8545     1  0.0000000  0.6694400  3
   8529   8543   8549   8550     1  0.0000000  1.0460000  1
   8529   8543   8549   8550     1  0.0000000  0.6694400  3
   8529   8551   8535   8538     1  0.0000000  1.6038667  3
   8530   8533   8534   8536     1  0.0000000  0.6508444  3
   8530   8533   8541   8544     1  0.0000000  1.0460000  1
   8530   8533   8541   8544     1  0.0000000  0.6694400  3
   8530   8529   8543   8547     1  0.0000000  0.6508444  3
   8530   8529   8543   8548     1  0.0000000  0.6508444  3
   8531   8529   8530   8533     1  0.0000000  0.6508444  3
   8531   8529   8530   8542     1  0.0000000  1.0460000  1
   8531   8529   8530   8542     1  0.0000000  0.0000000  3
   8531   8529   8530   8532     1  0.0000000  0.6508444  3
   8531   8529   8543   8549     1  0.0000000  1.0460000  1
   8531   8529   8543   8549     1  0.0000000  0.0000000  3
   8531   8529   8543   8547     1  0.0000000  0.6508444  3
   8531   8529   8543   8548     1  0.0000000  0.6508444  3
   8531   8529   8551   8535     1  0.0000000  1.6038667  3
   8532   8530   8533   8534     1  0.0000000  0.6508444  3
   8532   8530   8533   8541     1  0.0000000  1.0460000  1
   8532   8530   8533   8541     1  0.0000000  0.0000000  3
   8532   8530   8533   8537     1  0.0000000  0.6508444  3
   8532   8530   8542   8545     1  0.0000000  0.6973333  3
   8532   8530   8529   8543     1  0.0000000  0.6508444  3
   8532   8530   8529   8551     1  0.0000000  1.0460000  1
   8532   8530   8529   8551     1  0.0000000  0.0000000  3
   8533   8534   8535   8538     1  0.0000000  0.6508444  3
   8533   8534   8540   8546     1  0.0000000  1.0460000  1
   8533   8534   8540   8546     1  0.0000000  0.6694400  3
   8533   8530   8542   8545     1  0.0000000  1.0460000  1
   8533   8530   8542   8545     1  0.0000000  0.6694400  3
   8534   8533   8541   8544     1  0.0000000  1.0460000  1
   8534   8533   8541   8544     1  0.0000000  0.6694400  3
   8535   8534   8540   8546     1  0.0000000  1.0460000  1
   8535   8534   8540   8546     1  0.0000000  0.6694400  3
   8535   8534   8533   8537     1  0.0000000  0.6508444  3
   8536   8534   8535   8539     1  0.0000000  1.0460000  1
   8536   8534   8535   8539     1  0.0000000  0.0000000  3
   8536   8534   8535   8551     1  0.0000000  1.0460000  1
   8536   8534   8535   8551     1  0.0000000  0.0000000  3
   8536   8534   8535   8538     1  0.0000000  0.6508444  3
   8536   8534   8540   8546     1  0.0000000  0.6973333  3
   8536   8534   8533   8541     1  0.0000000  1.0460000  1
   8536   8534   8533   8541     1  0.0000000  0.0000000  3
   8536   8534   8533   8537     1  0.0000000  0.6508444  3
   8537   8533   8534   8540     1  0.0000000  1.0460000  1
   8537   8533   8534   8540     1  0.0000000  0.0000000  3
   8537   8533   8541   8544     1  0.0000000  0.6973333  3
   8537   8533   8530   8542     1  0.0000000  1.0460000  1
   8537   8533   8530   8542     1  0.0000000  0.0000000  3
   8538   8535   8534   8540     1  0.0000000  0.6508444  3
   8547   8543   8549   8550     1  0.0000000  0.6973333  3
   8547   8543   8529   8551     1  0.0000000  1.0460000  1
   8547   8543   8529   8551     1  0.0000000  0.0000000  3
   8548   8543   8549   8550     1  0.0000000  0.6973333  3
   8548   8543   8529   8551     1  0.0000000  1.0460000  1
   8548   8543   8529   8551     1  0.0000000  0.0000000  3
   8552   8553   8556   8560     1  0.0000000  0.6508444  3
   8552   8553   8565   8568     1  0.0000000  1.0460000  1
   8552   8553   8565   8568     1  0.0000000  0.6694400  3
   8552   8566   8572   8573     1  0.0000000  1.0460000  1
   8552   8566   8572   8573     1  0.0000000  0.6694400  3
   8552   8574   8558   8561     1  0.0000000  1.6038667  3
   8553   8552   8566   8570     1  0.0000000  0.6508444  3
   8553   8552   8566   8571     1  0.0000000  0.6508444  3
   8553   8556   8557   8559     1  0.0000000  0.6508444  3
   8553   8556   8564   8567     1  0.0000000  1.0460000  1
   8553   8556   8564   8567     1  0.0000000  0.6694400  3
   8554   8552   8553   8556     1  0.0000000  0.6508444  3
   8554   8552   8553   8565     1  0.0000000  1.0460000  1
   8554   8552   8553   8565     1  0.0000000  0.0000000  3
   8554   8552   8553   8555     1  0.0000000  0.6508444  3
   8554   8552   8566   8572     1  0.0000000  1.0460000  1
   8554   8552   8566   8572     1  0.0000000  0.0000000  3
   8554   8552   8566   8570     1  0.0000000  0.6508444  3
   8554   8552   8566   8571     1  0.0000000  0.6508444  3
   8554   8552   8574   8558     1  0.0000000  1.6038667  3
   8555   8553   8552   8566     1  0.0000000  0.6508444  3
   8555   8553   8552   8574     1  0.0000000  1.0460000  1
   8555   8553   8552   8574     1  0.0000000  0.0000000  3
   8555   8553   8556   8557     1  0.0000000  0.6508444  3
   8555   8553   8556   8564     1  0.0000000  1.0460000  1
   8555   8553   8556   8564     1  0.0000000  0.0000000  3
   8555   8553   8556   8560     1  0.0000000  0.6508444  3
   8555   8553   8565   8568     1  0.0000000  0.6973333  3
   8556   8553   8565   8568     1  0.0000000  1.0460000  1
   8556   8553   8565   8568     1  0.0000000  0.6694400  3
   8556   8557   8558   8561     1  0.0000000  0.6508444  3
   8556   8557   8563   8569     1  0.0000000  1.0460000  1
   8556   8557   8563   8569     1  0.0000000  0.6694400  3
   8557   8556   8564   8567     1  0.0000000  1.0460000  1
   8557   8556   8564   8567     1  0.0000000  0.6694400  3
   8558   8557   8556   8560     1  0.0000000  0.6508444  3
   8558   8557   8563   8569     1  0.0000000  1.0460000  1
   8558   8557   8563   8569     1  0.0000000  0.6694400  3
   8559   8557   8556   8564     1  0.0000000  1.0460000  1
   8559   8557   8556   8564     1  0.0000000  0.0000000  3
   8559   8557   8556   8560     1  0.0000000  0.6508444  3
   8559   8557   8558   8562     1  0.0000000  1.0460000  1
   8559   8557   8558   8562     1  0.0000000  0.0000000  3
   8559   8557   8558   8574     1  0.0000000  1.0460000  1
   8559   8557   8558   8574     1  0.0000000  0.0000000  3
   8559   8557   8558   8561     1  0.0000000  0.6508444  3
   8559   8557   8563   8569     1  0.0000000  0.6973333  3
   8560   8556   8553   8565     1  0.0000000  1.0460000  1
   8560   8556   8553   8565     1  0.0000000  0.0000000  3
   8560   8556   8557   8563     1  0.0000000  1.0460000  1
   8560   8556   8557   8563     1  0.0000000  0.0000000  3
   8560   8556   8564   8567     1  0.0000000  0.6973333  3
   8561   8558   8557   8563     1  0.0000000  0.6508444  3
   8570   8566   8552   8574     1  0.0000000  1.0460000  1
   8570   8566   8552   8574     1  0.0000000  0.0000000  3
   8570   8566   8572   8573     1  0.0000000  0.6973333  3
   8571   8566   8552   8574     1  0.0000000  1.0460000  1
   8571   8566   8552   8574     1  0.0000000  0.0000000  3
   8571   8566   8572   8573     1  0.0000000  0.6973333  3
   8575   8576   8579   8583     1  0.0000000  0.6508444  3
   8575   8576   8588   8591     1  0.0000000  1.0460000  1
   8575   8576   8588   8591     1  0.0000000  0.6694400  3
   8575   8589   8595   8596     1  0.0000000  1.0460000  1
   8575   8589   8595   8596     1  0.0000000  0.6694400  3
   8575   8597   8581   8584     1  0.0000000  1.6038667  3
   8576   8579   8580   8582     1  0.0000000  0.6508444  3
   8576   8579   8587   8590     1  0.0000000  1.0460000  1
   8576   8579   8587   8590     1  0.0000000  0.6694400  3
   8576   8575   8589   8593     1  0.0000000  0.6508444  3
   8576   8575   8589   8594     1  0.0000000  0.6508444  3
   8577   8575   8576   8579     1  0.0000000  0.6508444  3
   8577   8575   8576   8588     1  0.0000000  1.0460000  1
   8577   8575   8576   8588     1  0.0000000  0.0000000  3
   8577   8575   8576   8578     1  0.0000000  0.6508444  3
   8577   8575   8589   8595     1  0.0000000  1.0460000  1
   8577   8575   8589   8595     1  0.0000000  0.0000000  3
   8577   8575   8589   8593     1  0.0000000  0.6508444  3
   8577   8575   8589   8594     1  0.0000000  0.6508444  3
   8577   8575   8597   8581     1  0.0000000  1.6038667  3
   8578   8576   8579   8580     1  0.0000000  0.6508444  3
   8578   8576   8579   8587     1  0.0000000  1.0460000  1
   8578   8576   8579   8587     1  0.0000000  0.0000000  3
   8578   8576   8579   8583     1  0.0000000  0.6508444  3
   8578   8576   8588   8591     1  0.0000000  0.6973333  3
   8578   8576   8575   8589     1  0.0000000  0.6508444  3
   8578   8576   8575   8597     1  0.0000000  1.0460000  1
   8578   8576   8575   8597     1  0.0000000  0.0000000  3
   8579   8580   8581   8584     1  0.0000000  0.6508444  3
   8579   8580   8586   8592     1  0.0000000  1.0460000  1
   8579   8580   8586   8592     1  0.0000000  0.6694400  3
   8579   8576   8588   8591     1  0.0000000  1.0460000  1
   8579   8576   8588   8591     1  0.0000000  0.6694400  3
   8580   8579   8587   8590     1  0.0000000  1.0460000  1
   8580   8579   8587   8590     1  0.0000000  0.6694400  3
   8581   8580   8586   8592     1  0.0000000  1.0460000  1
   8581   8580   8586   8592     1  0.0000000  0.6694400  3
   8581   8580   8579   8583     1  0.0000000  0.6508444  3
   8582   8580   8581   8585     1  0.0000000  1.0460000  1
   8582   8580   8581   8585     1  0.0000000  0.0000000  3
   8582   8580   8581   8597     1  0.0000000  1.0460000  1
   8582   8580   8581   8597     1  0.0000000  0.0000000  3
   8582   8580   8581   8584     1  0.0000000  0.6508444  3
   8582   8580   8586   8592     1  0.0000000  0.6973333  3
   8582   8580   8579   8587     1  0.0000000  1.0460000  1
   8582   8580   8579   8587     1  0.0000000  0.0000000  3
   8582   8580   8579   8583     1  0.0000000  0.6508444  3
   8583   8579   8580   8586     1  0.0000000  1.0460000  1
   8583   8579   8580   8586     1  0.0000000  0.0000000  3
   8583   8579   8587   8590     1  0.0000000  0.6973333  3
   8583   8579   8576   8588     1  0.0000000  1.0460000  1
   8583   8579   8576   8588     1  0.0000000  0.0000000  3
   8584   8581   8580   8586     1  0.0000000  0.6508444  3
   8593   8589   8595   8596     1  0.0000000  0.6973333  3
   8593   8589   8575   8597     1  0.0000000  1.0460000  1
   8593   8589   8575   8597     1  0.0000000  0.0000000  3
   8594   8589   8595   8596     1  0.0000000  0.6973333  3
   8594   8589   8575   8597     1  0.0000000  1.0460000  1
   8594   8589   8575   8597     1  0.0000000  0.0000000  3
   8598   8599   8602   8606     1  0.0000000  0.6508444  3
   8598   8599   8611   8614     1  0.0000000  1.0460000  1
   8598   8599   8611   8614     1  0.0000000  0.6694400  3
   8598   8612   8618   8619     1  0.0000000  1.0460000  1
   8598   8612   8618   8619     1  0.0000000  0.6694400  3
   8598   8620   8604   8607     1  0.0000000  1.6038667  3
   8599   8598   8612   8616     1  0.0000000  0.6508444  3
   8599   8598   8612   8617     1  0.0000000  0.6508444  3
   8599   8602   8603   8605     1  0.0000000  0.6508444  3
   8599   8602   8610   8613     1  0.0000000  1.0460000  1
   8599   8602   8610   8613     1  0.0000000  0.6694400  3
   8600   8598   8599   8602     1  0.0000000  0.6508444  3
   8600   8598   8599   8611     1  0.0000000  1.0460000  1
   8600   8598   8599   8611     1  0.0000000  0.0000000  3
   8600   8598   8599   8601     1  0.0000000  0.6508444  3
   8600   8598   8612   8618     1  0.0000000  1.0460000  1
   8600   8598   8612   8618     1  0.0000000  0.0000000  3
   8600   8598   8612   8616     1  0.0000000  0.6508444  3
   8600   8598   8612   8617     1  0.0000000  0.6508444  3
   8600   8598   8620   8604     1  0.0000000  1.6038667  3
   8601   8599   8598   8612     1  0.0000000  0.6508444  3
   8601   8599   8598   8620     1  0.0000000  1.0460000  1
   8601   8599   8598   8620     1  0.0000000  0.0000000  3
   8601   8599   8602   8603     1  0.0000000  0.6508444  3
   8601   8599   8602   8610     1  0.0000000  1.0460000  1
   8601   8599   8602   8610     1  0.0000000  0.0000000  3
   8601   8599   8602   8606     1  0.0000000  0.6508444  3
   8601   8599   8611   8614     1  0.0000000  0.6973333  3
   8602   8599   8611   8614     1  0.0000000  1.0460000  1
   8602   8599   8611   8614     1  0.0000000  0.6694400  3
   8602   8603   8604   8607     1  0.0000000  0.6508444  3
   8602   8603   8609   8615     1  0.0000000  1.0460000  1
   8602   8603   8609   8615     1  0.0000000  0.6694400  3
   8603   8602   8610   8613     1  0.0000000  1.0460000  1
   8603   8602   8610   8613     1  0.0000000  0.6694400  3
   8604   8603   8602   8606     1  0.0000000  0.6508444  3
   8604   8603   8609   8615     1  0.0000000  1.0460000  1
   8604   8603   8609   8615     1  0.0000000  0.6694400  3
   8605   8603   8602   8610     1  0.0000000  1.0460000  1
   8605   8603   8602   8610     1  0.0000000  0.0000000  3
   8605   8603   8602   8606     1  0.0000000  0.6508444  3
   8605   8603   8604   8608     1  0.0000000  1.0460000  1
   8605   8603   8604   8608     1  0.0000000  0.0000000  3
   8605   8603   8604   8620     1  0.0000000  1.0460000  1
   8605   8603   8604   8620     1  0.0000000  0.0000000  3
   8605   8603   8604   8607     1  0.0000000  0.6508444  3
   8605   8603   8609   8615     1  0.0000000  0.6973333  3
   8606   8602   8599   8611     1  0.0000000  1.0460000  1
   8606   8602   8599   8611     1  0.0000000  0.0000000  3
   8606   8602   8603   8609     1  0.0000000  1.0460000  1
   8606   8602   8603   8609     1  0.0000000  0.0000000  3
   8606   8602   8610   8613     1  0.0000000  0.6973333  3
   8607   8604   8603   8609     1  0.0000000  0.6508444  3
   8616   8612   8598   8620     1  0.0000000  1.0460000  1
   8616   8612   8598   8620     1  0.0000000  0.0000000  3
   8616   8612   8618   8619     1  0.0000000  0.6973333  3
   8617   8612   8598   8620     1  0.0000000  1.0460000  1
   8617   8612   8598   8620     1  0.0000000  0.0000000  3
   8617   8612   8618   8619     1  0.0000000  0.6973333  3
   8621   8622   8625   8629     1  0.0000000  0.6508444  3
   8621   8622   8634   8637     1  0.0000000  1.0460000  1
   8621   8622   8634   8637     1  0.0000000  0.6694400  3
   8621   8635   8641   8642     1  0.0000000  1.0460000  1
   8621   8635   8641   8642     1  0.0000000  0.6694400  3
   8621   8643   8627   8630     1  0.0000000  1.6038667  3
   8622   8625   8626   8628     1  0.0000000  0.6508444  3
   8622   8625   8633   8636     1  0.0000000  1.0460000  1
   8622   8625   8633   8636     1  0.0000000  0.6694400  3
   8622   8621   8635   8639     1  0.0000000  0.6508444  3
   8622   8621   8635   8640     1  0.0000000  0.6508444  3
   8623   8621   8622   8625     1  0.0000000  0.6508444  3
   8623   8621   8622   8634     1  0.0000000  1.0460000  1
   8623   8621   8622   8634     1  0.0000000  0.0000000  3
   8623   8621   8622   8624     1  0.0000000  0.6508444  3
   8623   8621   8635   8641     1  0.0000000  1.0460000  1
   8623   8621   8635   8641     1  0.0000000  0.0000000  3
   8623   8621   8635   8639     1  0.0000000  0.6508444  3
   8623   8621   8635   8640     1  0.0000000  0.6508444  3
   8623   8621   8643   8627     1  0.0000000  1.6038667  3
   8624   8622   8625   8626     1  0.0000000  0.6508444  3
   8624   8622   8625   8633     1  0.0000000  1.0460000  1
   8624   8622   8625   8633     1  0.0000000  0.0000000  3
   8624   8622   8625   8629     1  0.0000000  0.6508444  3
   8624   8622   8634   8637     1  0.0000000  0.6973333  3
   8624   8622   8621   8635     1  0.0000000  0.6508444  3
   8624   8622   8621   8643     1  0.0000000  1.0460000  1
   8624   8622   8621   8643     1  0.0000000  0.0000000  3
   8625   8626   8627   8630     1  0.0000000  0.6508444  3
   8625   8626   8632   8638     1  0.0000000  1.0460000  1
   8625   8626   8632   8638     1  0.0000000  0.6694400  3
   8625   8622   8634   8637     1  0.0000000  1.0460000  1
   8625   8622   8634   8637     1  0.0000000  0.6694400  3
   8626   8625   8633   8636     1  0.0000000  1.0460000  1
   8626   8625   8633   8636     1  0.0000000  0.6694400  3
   8627   8626   8632   8638     1  0.0000000  1.0460000  1
   8627   8626   8632   8638     1  0.0000000  0.6694400  3
   8627   8626   8625   8629     1  0.0000000  0.6508444  3
   8628   8626   8627   8631     1  0.0000000  1.0460000  1
   8628   8626   8627   8631     1  0.0000000  0.0000000  3
   8628   8626   8627   8643     1  0.0000000  1.0460000  1
   8628   8626   8627   8643     1  0.0000000  0.0000000  3
   8628   8626   8627   8630     1  0.0000000  0.6508444  3
   8628   8626   8632   8638     1  0.0000000  0.6973333  3
   8628   8626   8625   8633     1  0.0000000  1.0460000  1
   8628   8626   8625   8633     1  0.0000000  0.0000000  3
   8628   8626   8625   8629     1  0.0000000  0.6508444  3
   8629   8625   8626   8632     1  0.0000000  1.0460000  1
   8629   8625   8626   8632     1  0.0000000  0.0000000  3
   8629   8625   8633   8636     1  0.0000000  0.6973333  3
   8629   8625   8622   8634     1  0.0000000  1.0460000  1
   8629   8625   8622   8634     1  0.0000000  0.0000000  3
   8630   8627   8626   8632     1  0.0000000  0.6508444  3
   8639   8635   8641   8642     1  0.0000000  0.6973333  3
   8639   8635   8621   8643     1  0.0000000  1.0460000  1
   8639   8635   8621   8643     1  0.0000000  0.0000000  3
   8640   8635   8641   8642     1  0.0000000  0.6973333  3
   8640   8635   8621   8643     1  0.0000000  1.0460000  1
   8640   8635   8621   8643     1  0.0000000  0.0000000  3
   8644   8645   8648   8652     1  0.0000000  0.6508444  3
   8644   8645   8657   8660     1  0.0000000  1.0460000  1
   8644   8645   8657   8660     1  0.0000000  0.6694400  3
   8644   8658   8664   8665     1  0.0000000  1.0460000  1
   8644   8658   8664   8665     1  0.0000000  0.6694400  3
   8644   8666   8650   8653     1  0.0000000  1.6038667  3
   8645   8644   8658   8662     1  0.0000000  0.6508444  3
   8645   8644   8658   8663     1  0.0000000  0.6508444  3
   8645   8648   8649   8651     1  0.0000000  0.6508444  3
   8645   8648   8656   8659     1  0.0000000  1.0460000  1
   8645   8648   8656   8659     1  0.0000000  0.6694400  3
   8646   8644   8645   8648     1  0.0000000  0.6508444  3
   8646   8644   8645   8657     1  0.0000000  1.0460000  1
   8646   8644   8645   8657     1  0.0000000  0.0000000  3
   8646   8644   8645   8647     1  0.0000000  0.6508444  3
   8646   8644   8658   8664     1  0.0000000  1.0460000  1
   8646   8644   8658   8664     1  0.0000000  0.0000000  3
   8646   8644   8658   8662     1  0.0000000  0.6508444  3
   8646   8644   8658   8663     1  0.0000000  0.6508444  3
   8646   8644   8666   8650     1  0.0000000  1.6038667  3
   8647   8645   8644   8658     1  0.0000000  0.6508444  3
   8647   8645   8644   8666     1  0.0000000  1.0460000  1
   8647   8645   8644   8666     1  0.0000000  0.0000000  3
   8647   8645   8648   8649     1  0.0000000  0.6508444  3
   8647   8645   8648   8656     1  0.0000000  1.0460000  1
   8647   8645   8648   8656     1  0.0000000  0.0000000  3
   8647   8645   8648   8652     1  0.0000000  0.6508444  3
   8647   8645   8657   8660     1  0.0000000  0.6973333  3
   8648   8645   8657   8660     1  0.0000000  1.0460000  1
   8648   8645   8657   8660     1  0.0000000  0.6694400  3
   8648   8649   8650   8653     1  0.0000000  0.6508444  3
   8648   8649   8655   8661     1  0.0000000  1.0460000  1
   8648   8649   8655   8661     1  0.0000000  0.6694400  3
   8649   8648   8656   8659     1  0.0000000  1.0460000  1
   8649   8648   8656   8659     1  0.0000000  0.6694400  3
   8650   8649   8648   8652     1  0.0000000  0.6508444  3
   8650   8649   8655   8661     1  0.0000000  1.0460000  1
   8650   8649   8655   8661     1  0.0000000  0.6694400  3
   8651   8649   8648   8656     1  0.0000000  1.0460000  1
   8651   8649   8648   8656     1  0.0000000  0.0000000  3
   8651   8649   8648   8652     1  0.0000000  0.6508444  3
   8651   8649   8650   8654     1  0.0000000  1.0460000  1
   8651   8649   8650   8654     1  0.0000000  0.0000000  3
   8651   8649   8650   8666     1  0.0000000  1.0460000  1
   8651   8649   8650   8666     1  0.0000000  0.0000000  3
   8651   8649   8650   8653     1  0.0000000  0.6508444  3
   8651   8649   8655   8661     1  0.0000000  0.6973333  3
   8652   8648   8645   8657     1  0.0000000  1.0460000  1
   8652   8648   8645   8657     1  0.0000000  0.0000000  3
   8652   8648   8649   8655     1  0.0000000  1.0460000  1
   8652   8648   8649   8655     1  0.0000000  0.0000000  3
   8652   8648   8656   8659     1  0.0000000  0.6973333  3
   8653   8650   8649   8655     1  0.0000000  0.6508444  3
   8662   8658   8644   8666     1  0.0000000  1.0460000  1
   8662   8658   8644   8666     1  0.0000000  0.0000000  3
   8662   8658   8664   8665     1  0.0000000  0.6973333  3
   8663   8658   8644   8666     1  0.0000000  1.0460000  1
   8663   8658   8644   8666     1  0.0000000  0.0000000  3
   8663   8658   8664   8665     1  0.0000000  0.6973333  3
   8667   8668   8671   8675     1  0.0000000  0.6508444  3
   8667   8668   8680   8683     1  0.0000000  1.0460000  1
   8667   8668   8680   8683     1  0.0000000  0.6694400  3
   8667   8681   8687   8688     1  0.0000000  1.0460000  1
   8667   8681   8687   8688     1  0.0000000  0.6694400  3
   8667   8689   8673   8676     1  0.0000000  1.6038667  3
   8668   8671   8672   8674     1  0.0000000  0.6508444  3
   8668   8671   8679   8682     1  0.0000000  1.0460000  1
   8668   8671   8679   8682     1  0.0000000  0.6694400  3
   8668   8667   8681   8685     1  0.0000000  0.6508444  3
   8668   8667   8681   8686     1  0.0000000  0.6508444  3
   8669   8667   8668   8671     1  0.0000000  0.6508444  3
   8669   8667   8668   8680     1  0.0000000  1.0460000  1
   8669   8667   8668   8680     1  0.0000000  0.0000000  3
   8669   8667   8668   8670     1  0.0000000  0.6508444  3
   8669   8667   8681   8687     1  0.0000000  1.0460000  1
   8669   8667   8681   8687     1  0.0000000  0.0000000  3
   8669   8667   8681   8685     1  0.0000000  0.6508444  3
   8669   8667   8681   8686     1  0.0000000  0.6508444  3
   8669   8667   8689   8673     1  0.0000000  1.6038667  3
   8670   8668   8671   8672     1  0.0000000  0.6508444  3
   8670   8668   8671   8679     1  0.0000000  1.0460000  1
   8670   8668   8671   8679     1  0.0000000  0.0000000  3
   8670   8668   8671   8675     1  0.0000000  0.6508444  3
   8670   8668   8680   8683     1  0.0000000  0.6973333  3
   8670   8668   8667   8681     1  0.0000000  0.6508444  3
   8670   8668   8667   8689     1  0.0000000  1.0460000  1
   8670   8668   8667   8689     1  0.0000000  0.0000000  3
   8671   8672   8673   8676     1  0.0000000  0.6508444  3
   8671   8672   8678   8684     1  0.0000000  1.0460000  1
   8671   8672   8678   8684     1  0.0000000  0.6694400  3
   8671   8668   8680   8683     1  0.0000000  1.0460000  1
   8671   8668   8680   8683     1  0.0000000  0.6694400  3
   8672   8671   8679   8682     1  0.0000000  1.0460000  1
   8672   8671   8679   8682     1  0.0000000  0.6694400  3
   8673   8672   8678   8684     1  0.0000000  1.0460000  1
   8673   8672   8678   8684     1  0.0000000  0.6694400  3
   8673   8672   8671   8675     1  0.0000000  0.6508444  3
   8674   8672   8673   8677     1  0.0000000  1.0460000  1
   8674   8672   8673   8677     1  0.0000000  0.0000000  3
   8674   8672   8673   8689     1  0.0000000  1.0460000  1
   8674   8672   8673   8689     1  0.0000000  0.0000000  3
   8674   8672   8673   8676     1  0.0000000  0.6508444  3
   8674   8672   8678   8684     1  0.0000000  0.6973333  3
   8674   8672   8671   8679     1  0.0000000  1.0460000  1
   8674   8672   8671   8679     1  0.0000000  0.0000000  3
   8674   8672   8671   8675     1  0.0000000  0.6508444  3
   8675   8671   8672   8678     1  0.0000000  1.0460000  1
   8675   8671   8672   8678     1  0.0000000  0.0000000  3
   8675   8671   8679   8682     1  0.0000000  0.6973333  3
   8675   8671   8668   8680     1  0.0000000  1.0460000  1
   8675   8671   8668   8680     1  0.0000000  0.0000000  3
   8676   8673   8672   8678     1  0.0000000  0.6508444  3
   8685   8681   8687   8688     1  0.0000000  0.6973333  3
   8685   8681   8667   8689     1  0.0000000  1.0460000  1
   8685   8681   8667   8689     1  0.0000000  0.0000000  3
   8686   8681   8687   8688     1  0.0000000  0.6973333  3
   8686   8681   8667   8689     1  0.0000000  1.0460000  1
   8686   8681   8667   8689     1  0.0000000  0.0000000  3
   8690   8691   8694   8698     1  0.0000000  0.6508444  3
   8690   8691   8703   8706     1  0.0000000  1.0460000  1
   8690   8691   8703   8706     1  0.0000000  0.6694400  3
   8690   8704   8710   8711     1  0.0000000  1.0460000  1
   8690   8704   8710   8711     1  0.0000000  0.6694400  3
   8690   8712   8696   8699     1  0.0000000  1.6038667  3
   8691   8690   8704   8708     1  0.0000000  0.6508444  3
   8691   8690   8704   8709     1  0.0000000  0.6508444  3
   8691   8694   8695   8697     1  0.0000000  0.6508444  3
   8691   8694   8702   8705     1  0.0000000  1.0460000  1
   8691   8694   8702   8705     1  0.0000000  0.6694400  3
   8692   8690   8691   8694     1  0.0000000  0.6508444  3
   8692   8690   8691   8703     1  0.0000000  1.0460000  1
   8692   8690   8691   8703     1  0.0000000  0.0000000  3
   8692   8690   8691   8693     1  0.0000000  0.6508444  3
   8692   8690   8704   8710     1  0.0000000  1.0460000  1
   8692   8690   8704   8710     1  0.0000000  0.0000000  3
   8692   8690   8704   8708     1  0.0000000  0.6508444  3
   8692   8690   8704   8709     1  0.0000000  0.6508444  3
   8692   8690   8712   8696     1  0.0000000  1.6038667  3
   8693   8691   8690   8704     1  0.0000000  0.6508444  3
   8693   8691   8690   8712     1  0.0000000  1.0460000  1
   8693   8691   8690   8712     1  0.0000000  0.0000000  3
   8693   8691   8694   8695     1  0.0000000  0.6508444  3
   8693   8691   8694   8702     1  0.0000000  1.0460000  1
   8693   8691   8694   8702     1  0.0000000  0.0000000  3
   8693   8691   8694   8698     1  0.0000000  0.6508444  3
   8693   8691   8703   8706     1  0.0000000  0.6973333  3
   8694   8691   8703   8706     1  0.0000000  1.0460000  1
   8694   8691   8703   8706     1  0.0000000  0.6694400  3
   8694   8695   8696   8699     1  0.0000000  0.6508444  3
   8694   8695   8701   8707     1  0.0000000  1.0460000  1
   8694   8695   8701   8707     1  0.0000000  0.6694400  3
   8695   8694   8702   8705     1  0.0000000  1.0460000  1
   8695   8694   8702   8705     1  0.0000000  0.6694400  3
   8696   8695   8694   8698     1  0.0000000  0.6508444  3
   8696   8695   8701   8707     1  0.0000000  1.0460000  1
   8696   8695   8701   8707     1  0.0000000  0.6694400  3
   8697   8695   8694   8702     1  0.0000000  1.0460000  1
   8697   8695   8694   8702     1  0.0000000  0.0000000  3
   8697   8695   8694   8698     1  0.0000000  0.6508444  3
   8697   8695   8696   8700     1  0.0000000  1.0460000  1
   8697   8695   8696   8700     1  0.0000000  0.0000000  3
   8697   8695   8696   8712     1  0.0000000  1.0460000  1
   8697   8695   8696   8712     1  0.0000000  0.0000000  3
   8697   8695   8696   8699     1  0.0000000  0.6508444  3
   8697   8695   8701   8707     1  0.0000000  0.6973333  3
   8698   8694   8691   8703     1  0.0000000  1.0460000  1
   8698   8694   8691   8703     1  0.0000000  0.0000000  3
   8698   8694   8695   8701     1  0.0000000  1.0460000  1
   8698   8694   8695   8701     1  0.0000000  0.0000000  3
   8698   8694   8702   8705     1  0.0000000  0.6973333  3
   8699   8696   8695   8701     1  0.0000000  0.6508444  3
   8708   8704   8690   8712     1  0.0000000  1.0460000  1
   8708   8704   8690   8712     1  0.0000000  0.0000000  3
   8708   8704   8710   8711     1  0.0000000  0.6973333  3
   8709   8704   8690   8712     1  0.0000000  1.0460000  1
   8709   8704   8690   8712     1  0.0000000  0.0000000  3
   8709   8704   8710   8711     1  0.0000000  0.6973333  3
   8713   8714   8717   8721     1  0.0000000  0.6508444  3
   8713   8714   8726   8729     1  0.0000000  1.0460000  1
   8713   8714   8726   8729     1  0.0000000  0.6694400  3
   8713   8727   8733   8734     1  0.0000000  1.0460000  1
   8713   8727   8733   8734     1  0.0000000  0.6694400  3
   8713   8735   8719   8722     1  0.0000000  1.6038667  3
   8714   8717   8718   8720     1  0.0000000  0.6508444  3
   8714   8717   8725   8728     1  0.0000000  1.0460000  1
   8714   8717   8725   8728     1  0.0000000  0.6694400  3
   8714   8713   8727   8731     1  0.0000000  0.6508444  3
   8714   8713   8727   8732     1  0.0000000  0.6508444  3
   8715   8713   8714   8717     1  0.0000000  0.6508444  3
   8715   8713   8714   8726     1  0.0000000  1.0460000  1
   8715   8713   8714   8726     1  0.0000000  0.0000000  3
   8715   8713   8714   8716     1  0.0000000  0.6508444  3
   8715   8713   8727   8733     1  0.0000000  1.0460000  1
   8715   8713   8727   8733     1  0.0000000  0.0000000  3
   8715   8713   8727   8731     1  0.0000000  0.6508444  3
   8715   8713   8727   8732     1  0.0000000  0.6508444  3
   8715   8713   8735   8719     1  0.0000000  1.6038667  3
   8716   8714   8717   8718     1  0.0000000  0.6508444  3
   8716   8714   8717   8725     1  0.0000000  1.0460000  1
   8716   8714   8717   8725     1  0.0000000  0.0000000  3
   8716   8714   8717   8721     1  0.0000000  0.6508444  3
   8716   8714   8726   8729     1  0.0000000  0.6973333  3
   8716   8714   8713   8727     1  0.0000000  0.6508444  3
   8716   8714   8713   8735     1  0.0000000  1.0460000  1
   8716   8714   8713   8735     1  0.0000000  0.0000000  3
   8717   8718   8719   8722     1  0.0000000  0.6508444  3
   8717   8718   8724   8730     1  0.0000000  1.0460000  1
   8717   8718   8724   8730     1  0.0000000  0.6694400  3
   8717   8714   8726   8729     1  0.0000000  1.0460000  1
   8717   8714   8726   8729     1  0.0000000  0.6694400  3
   8718   8717   8725   8728     1  0.0000000  1.0460000  1
   8718   8717   8725   8728     1  0.0000000  0.6694400  3
   8719   8718   8724   8730     1  0.0000000  1.0460000  1
   8719   8718   8724   8730     1  0.0000000  0.6694400  3
   8719   8718   8717   8721     1  0.0000000  0.6508444  3
   8720   8718   8719   8723     1  0.0000000  1.0460000  1
   8720   8718   8719   8723     1  0.0000000  0.0000000  3
   8720   8718   8719   8735     1  0.0000000  1.0460000  1
   8720   8718   8719   8735     1  0.0000000  0.0000000  3
   8720   8718   8719   8722     1  0.0000000  0.6508444  3
   8720   8718   8724   8730     1  0.0000000  0.6973333  3
   8720   8718   8717   8725     1  0.0000000  1.0460000  1
   8720   8718   8717   8725     1  0.0000000  0.0000000  3
   8720   8718   8717   8721     1  0.0000000  0.6508444  3
   8721   8717   8718   8724     1  0.0000000  1.0460000  1
   8721   8717   8718   8724     1  0.0000000  0.0000000  3
   8721   8717   8725   8728     1  0.0000000  0.6973333  3
   8721   8717   8714   8726     1  0.0000000  1.0460000  1
   8721   8717   8714   8726     1  0.0000000  0.0000000  3
   8722   8719   8718   8724     1  0.0000000  0.6508444  3
   8731   8727   8733   8734     1  0.0000000  0.6973333  3
   8731   8727   8713   8735     1  0.0000000  1.0460000  1
   8731   8727   8713   8735     1  0.0000000  0.0000000  3
   8732   8727   8733   8734     1  0.0000000  0.6973333  3
   8732   8727   8713   8735     1  0.0000000  1.0460000  1
   8732   8727   8713   8735     1  0.0000000  0.0000000  3
   8736   8737   8740   8744     1  0.0000000  0.6508444  3
   8736   8737   8749   8752     1  0.0000000  1.0460000  1
   8736   8737   8749   8752     1  0.0000000  0.6694400  3
   8736   8750   8756   8757     1  0.0000000  1.0460000  1
   8736   8750   8756   8757     1  0.0000000  0.6694400  3
   8736   8758   8742   8745     1  0.0000000  1.6038667  3
   8737   8736   8750   8754     1  0.0000000  0.6508444  3
   8737   8736   8750   8755     1  0.0000000  0.6508444  3
   8737   8740   8741   8743     1  0.0000000  0.6508444  3
   8737   8740   8748   8751     1  0.0000000  1.0460000  1
   8737   8740   8748   8751     1  0.0000000  0.6694400  3
   8738   8736   8737   8740     1  0.0000000  0.6508444  3
   8738   8736   8737   8749     1  0.0000000  1.0460000  1
   8738   8736   8737   8749     1  0.0000000  0.0000000  3
   8738   8736   8737   8739     1  0.0000000  0.6508444  3
   8738   8736   8750   8756     1  0.0000000  1.0460000  1
   8738   8736   8750   8756     1  0.0000000  0.0000000  3
   8738   8736   8750   8754     1  0.0000000  0.6508444  3
   8738   8736   8750   8755     1  0.0000000  0.6508444  3
   8738   8736   8758   8742     1  0.0000000  1.6038667  3
   8739   8737   8736   8750     1  0.0000000  0.6508444  3
   8739   8737   8736   8758     1  0.0000000  1.0460000  1
   8739   8737   8736   8758     1  0.0000000  0.0000000  3
   8739   8737   8740   8741     1  0.0000000  0.6508444  3
   8739   8737   8740   8748     1  0.0000000  1.0460000  1
   8739   8737   8740   8748     1  0.0000000  0.0000000  3
   8739   8737   8740   8744     1  0.0000000  0.6508444  3
   8739   8737   8749   8752     1  0.0000000  0.6973333  3
   8740   8737   8749   8752     1  0.0000000  1.0460000  1
   8740   8737   8749   8752     1  0.0000000  0.6694400  3
   8740   8741   8742   8745     1  0.0000000  0.6508444  3
   8740   8741   8747   8753     1  0.0000000  1.0460000  1
   8740   8741   8747   8753     1  0.0000000  0.6694400  3
   8741   8740   8748   8751     1  0.0000000  1.0460000  1
   8741   8740   8748   8751     1  0.0000000  0.6694400  3
   8742   8741   8740   8744     1  0.0000000  0.6508444  3
   8742   8741   8747   8753     1  0.0000000  1.0460000  1
   8742   8741   8747   8753     1  0.0000000  0.6694400  3
   8743   8741   8740   8748     1  0.0000000  1.0460000  1
   8743   8741   8740   8748     1  0.0000000  0.0000000  3
   8743   8741   8740   8744     1  0.0000000  0.6508444  3
   8743   8741   8742   8746     1  0.0000000  1.0460000  1
   8743   8741   8742   8746     1  0.0000000  0.0000000  3
   8743   8741   8742   8758     1  0.0000000  1.0460000  1
   8743   8741   8742   8758     1  0.0000000  0.0000000  3
   8743   8741   8742   8745     1  0.0000000  0.6508444  3
   8743   8741   8747   8753     1  0.0000000  0.6973333  3
   8744   8740   8737   8749     1  0.0000000  1.0460000  1
   8744   8740   8737   8749     1  0.0000000  0.0000000  3
   8744   8740   8741   8747     1  0.0000000  1.0460000  1
   8744   8740   8741   8747     1  0.0000000  0.0000000  3
   8744   8740   8748   8751     1  0.0000000  0.6973333  3
   8745   8742   8741   8747     1  0.0000000  0.6508444  3
   8754   8750   8736   8758     1  0.0000000  1.0460000  1
   8754   8750   8736   8758     1  0.0000000  0.0000000  3
   8754   8750   8756   8757     1  0.0000000  0.6973333  3
   8755   8750   8736   8758     1  0.0000000  1.0460000  1
   8755   8750   8736   8758     1  0.0000000  0.0000000  3
   8755   8750   8756   8757     1  0.0000000  0.6973333  3
   8759   8760   8763   8767     1  0.0000000  0.6508444  3
   8759   8760   8772   8775     1  0.0000000  1.0460000  1
   8759   8760   8772   8775     1  0.0000000  0.6694400  3
   8759   8773   8779   8780     1  0.0000000  1.0460000  1
   8759   8773   8779   8780     1  0.0000000  0.6694400  3
   8759   8781   8765   8768     1  0.0000000  1.6038667  3
   8760   8763   8764   8766     1  0.0000000  0.6508444  3
   8760   8763   8771   8774     1  0.0000000  1.0460000  1
   8760   8763   8771   8774     1  0.0000000  0.6694400  3
   8760   8759   8773   8777     1  0.0000000  0.6508444  3
   8760   8759   8773   8778     1  0.0000000  0.6508444  3
   8761   8759   8760   8763     1  0.0000000  0.6508444  3
   8761   8759   8760   8772     1  0.0000000  1.0460000  1
   8761   8759   8760   8772     1  0.0000000  0.0000000  3
   8761   8759   8760   8762     1  0.0000000  0.6508444  3
   8761   8759   8773   8779     1  0.0000000  1.0460000  1
   8761   8759   8773   8779     1  0.0000000  0.0000000  3
   8761   8759   8773   8777     1  0.0000000  0.6508444  3
   8761   8759   8773   8778     1  0.0000000  0.6508444  3
   8761   8759   8781   8765     1  0.0000000  1.6038667  3
   8762   8760   8763   8764     1  0.0000000  0.6508444  3
   8762   8760   8763   8771     1  0.0000000  1.0460000  1
   8762   8760   8763   8771     1  0.0000000  0.0000000  3
   8762   8760   8763   8767     1  0.0000000  0.6508444  3
   8762   8760   8772   8775     1  0.0000000  0.6973333  3
   8762   8760   8759   8773     1  0.0000000  0.6508444  3
   8762   8760   8759   8781     1  0.0000000  1.0460000  1
   8762   8760   8759   8781     1  0.0000000  0.0000000  3
   8763   8764   8765   8768     1  0.0000000  0.6508444  3
   8763   8764   8770   8776     1  0.0000000  1.0460000  1
   8763   8764   8770   8776     1  0.0000000  0.6694400  3
   8763   8760   8772   8775     1  0.0000000  1.0460000  1
   8763   8760   8772   8775     1  0.0000000  0.6694400  3
   8764   8763   8771   8774     1  0.0000000  1.0460000  1
   8764   8763   8771   8774     1  0.0000000  0.6694400  3
   8765   8764   8770   8776     1  0.0000000  1.0460000  1
   8765   8764   8770   8776     1  0.0000000  0.6694400  3
   8765   8764   8763   8767     1  0.0000000  0.6508444  3
   8766   8764   8765   8769     1  0.0000000  1.0460000  1
   8766   8764   8765   8769     1  0.0000000  0.0000000  3
   8766   8764   8765   8781     1  0.0000000  1.0460000  1
   8766   8764   8765   8781     1  0.0000000  0.0000000  3
   8766   8764   8765   8768     1  0.0000000  0.6508444  3
   8766   8764   8770   8776     1  0.0000000  0.6973333  3
   8766   8764   8763   8771     1  0.0000000  1.0460000  1
   8766   8764   8763   8771     1  0.0000000  0.0000000  3
   8766   8764   8763   8767     1  0.0000000  0.6508444  3
   8767   8763   8764   8770     1  0.0000000  1.0460000  1
   8767   8763   8764   8770     1  0.0000000  0.0000000  3
   8767   8763   8771   8774     1  0.0000000  0.6973333  3
   8767   8763   8760   8772     1  0.0000000  1.0460000  1
   8767   8763   8760   8772     1  0.0000000  0.0000000  3
   8768   8765   8764   8770     1  0.0000000  0.6508444  3
   8777   8773   8779   8780     1  0.0000000  0.6973333  3
   8777   8773   8759   8781     1  0.0000000  1.0460000  1
   8777   8773   8759   8781     1  0.0000000  0.0000000  3
   8778   8773   8779   8780     1  0.0000000  0.6973333  3
   8778   8773   8759   8781     1  0.0000000  1.0460000  1
   8778   8773   8759   8781     1  0.0000000  0.0000000  3
   8782   8783   8786   8790     1  0.0000000  0.6508444  3
   8782   8783   8795   8798     1  0.0000000  1.0460000  1
   8782   8783   8795   8798     1  0.0000000  0.6694400  3
   8782   8796   8802   8803     1  0.0000000  1.0460000  1
   8782   8796   8802   8803     1  0.0000000  0.6694400  3
   8782   8804   8788   8791     1  0.0000000  1.6038667  3
   8783   8782   8796   8800     1  0.0000000  0.6508444  3
   8783   8782   8796   8801     1  0.0000000  0.6508444  3
   8783   8786   8787   8789     1  0.0000000  0.6508444  3
   8783   8786   8794   8797     1  0.0000000  1.0460000  1
   8783   8786   8794   8797     1  0.0000000  0.6694400  3
   8784   8782   8783   8786     1  0.0000000  0.6508444  3
   8784   8782   8783   8795     1  0.0000000  1.0460000  1
   8784   8782   8783   8795     1  0.0000000  0.0000000  3
   8784   8782   8783   8785     1  0.0000000  0.6508444  3
   8784   8782   8796   8802     1  0.0000000  1.0460000  1
   8784   8782   8796   8802     1  0.0000000  0.0000000  3
   8784   8782   8796   8800     1  0.0000000  0.6508444  3
   8784   8782   8796   8801     1  0.0000000  0.6508444  3
   8784   8782   8804   8788     1  0.0000000  1.6038667  3
   8785   8783   8782   8796     1  0.0000000  0.6508444  3
   8785   8783   8782   8804     1  0.0000000  1.0460000  1
   8785   8783   8782   8804     1  0.0000000  0.0000000  3
   8785   8783   8786   8787     1  0.0000000  0.6508444  3
   8785   8783   8786   8794     1  0.0000000  1.0460000  1
   8785   8783   8786   8794     1  0.0000000  0.0000000  3
   8785   8783   8786   8790     1  0.0000000  0.6508444  3
   8785   8783   8795   8798     1  0.0000000  0.6973333  3
   8786   8783   8795   8798     1  0.0000000  1.0460000  1
   8786   8783   8795   8798     1  0.0000000  0.6694400  3
   8786   8787   8788   8791     1  0.0000000  0.6508444  3
   8786   8787   8793   8799     1  0.0000000  1.0460000  1
   8786   8787   8793   8799     1  0.0000000  0.6694400  3
   8787   8786   8794   8797     1  0.0000000  1.0460000  1
   8787   8786   8794   8797     1  0.0000000  0.6694400  3
   8788   8787   8786   8790     1  0.0000000  0.6508444  3
   8788   8787   8793   8799     1  0.0000000  1.0460000  1
   8788   8787   8793   8799     1  0.0000000  0.6694400  3
   8789   8787   8786   8794     1  0.0000000  1.0460000  1
   8789   8787   8786   8794     1  0.0000000  0.0000000  3
   8789   8787   8786   8790     1  0.0000000  0.6508444  3
   8789   8787   8788   8792     1  0.0000000  1.0460000  1
   8789   8787   8788   8792     1  0.0000000  0.0000000  3
   8789   8787   8788   8804     1  0.0000000  1.0460000  1
   8789   8787   8788   8804     1  0.0000000  0.0000000  3
   8789   8787   8788   8791     1  0.0000000  0.6508444  3
   8789   8787   8793   8799     1  0.0000000  0.6973333  3
   8790   8786   8783   8795     1  0.0000000  1.0460000  1
   8790   8786   8783   8795     1  0.0000000  0.0000000  3
   8790   8786   8787   8793     1  0.0000000  1.0460000  1
   8790   8786   8787   8793     1  0.0000000  0.0000000  3
   8790   8786   8794   8797     1  0.0000000  0.6973333  3
   8791   8788   8787   8793     1  0.0000000  0.6508444  3
   8800   8796   8782   8804     1  0.0000000  1.0460000  1
   8800   8796   8782   8804     1  0.0000000  0.0000000  3
   8800   8796   8802   8803     1  0.0000000  0.6973333  3
   8801   8796   8782   8804     1  0.0000000  1.0460000  1
   8801   8796   8782   8804     1  0.0000000  0.0000000  3
   8801   8796   8802   8803     1  0.0000000  0.6973333  3
   8805   8806   8809   8813     1  0.0000000  0.6508444  3
   8805   8806   8818   8821     1  0.0000000  1.0460000  1
   8805   8806   8818   8821     1  0.0000000  0.6694400  3
   8805   8819   8825   8826     1  0.0000000  1.0460000  1
   8805   8819   8825   8826     1  0.0000000  0.6694400  3
   8805   8827   8811   8814     1  0.0000000  1.6038667  3
   8806   8809   8810   8812     1  0.0000000  0.6508444  3
   8806   8809   8817   8820     1  0.0000000  1.0460000  1
   8806   8809   8817   8820     1  0.0000000  0.6694400  3
   8806   8805   8819   8823     1  0.0000000  0.6508444  3
   8806   8805   8819   8824     1  0.0000000  0.6508444  3
   8807   8805   8806   8809     1  0.0000000  0.6508444  3
   8807   8805   8806   8818     1  0.0000000  1.0460000  1
   8807   8805   8806   8818     1  0.0000000  0.0000000  3
   8807   8805   8806   8808     1  0.0000000  0.6508444  3
   8807   8805   8819   8825     1  0.0000000  1.0460000  1
   8807   8805   8819   8825     1  0.0000000  0.0000000  3
   8807   8805   8819   8823     1  0.0000000  0.6508444  3
   8807   8805   8819   8824     1  0.0000000  0.6508444  3
   8807   8805   8827   8811     1  0.0000000  1.6038667  3
   8808   8806   8809   8810     1  0.0000000  0.6508444  3
   8808   8806   8809   8817     1  0.0000000  1.0460000  1
   8808   8806   8809   8817     1  0.0000000  0.0000000  3
   8808   8806   8809   8813     1  0.0000000  0.6508444  3
   8808   8806   8818   8821     1  0.0000000  0.6973333  3
   8808   8806   8805   8819     1  0.0000000  0.6508444  3
   8808   8806   8805   8827     1  0.0000000  1.0460000  1
   8808   8806   8805   8827     1  0.0000000  0.0000000  3
   8809   8810   8811   8814     1  0.0000000  0.6508444  3
   8809   8810   8816   8822     1  0.0000000  1.0460000  1
   8809   8810   8816   8822     1  0.0000000  0.6694400  3
   8809   8806   8818   8821     1  0.0000000  1.0460000  1
   8809   8806   8818   8821     1  0.0000000  0.6694400  3
   8810   8809   8817   8820     1  0.0000000  1.0460000  1
   8810   8809   8817   8820     1  0.0000000  0.6694400  3
   8811   8810   8816   8822     1  0.0000000  1.0460000  1
   8811   8810   8816   8822     1  0.0000000  0.6694400  3
   8811   8810   8809   8813     1  0.0000000  0.6508444  3
   8812   8810   8811   8815     1  0.0000000  1.0460000  1
   8812   8810   8811   8815     1  0.0000000  0.0000000  3
   8812   8810   8811   8827     1  0.0000000  1.0460000  1
   8812   8810   8811   8827     1  0.0000000  0.0000000  3
   8812   8810   8811   8814     1  0.0000000  0.6508444  3
   8812   8810   8816   8822     1  0.0000000  0.6973333  3
   8812   8810   8809   8817     1  0.0000000  1.0460000  1
   8812   8810   8809   8817     1  0.0000000  0.0000000  3
   8812   8810   8809   8813     1  0.0000000  0.6508444  3
   8813   8809   8810   8816     1  0.0000000  1.0460000  1
   8813   8809   8810   8816     1  0.0000000  0.0000000  3
   8813   8809   8817   8820     1  0.0000000  0.6973333  3
   8813   8809   8806   8818     1  0.0000000  1.0460000  1
   8813   8809   8806   8818     1  0.0000000  0.0000000  3
   8814   8811   8810   8816     1  0.0000000  0.6508444  3
   8823   8819   8825   8826     1  0.0000000  0.6973333  3
   8823   8819   8805   8827     1  0.0000000  1.0460000  1
   8823   8819   8805   8827     1  0.0000000  0.0000000  3
   8824   8819   8825   8826     1  0.0000000  0.6973333  3
   8824   8819   8805   8827     1  0.0000000  1.0460000  1
   8824   8819   8805   8827     1  0.0000000  0.0000000  3
   8828   8829   8832   8836     1  0.0000000  0.6508444  3
   8828   8829   8841   8844     1  0.0000000  1.0460000  1
   8828   8829   8841   8844     1  0.0000000  0.6694400  3
   8828   8842   8848   8849     1  0.0000000  1.0460000  1
   8828   8842   8848   8849     1  0.0000000  0.6694400  3
   8828   8850   8834   8837     1  0.0000000  1.6038667  3
   8829   8828   8842   8846     1  0.0000000  0.6508444  3
   8829   8828   8842   8847     1  0.0000000  0.6508444  3
   8829   8832   8833   8835     1  0.0000000  0.6508444  3
   8829   8832   8840   8843     1  0.0000000  1.0460000  1
   8829   8832   8840   8843     1  0.0000000  0.6694400  3
   8830   8828   8829   8832     1  0.0000000  0.6508444  3
   8830   8828   8829   8841     1  0.0000000  1.0460000  1
   8830   8828   8829   8841     1  0.0000000  0.0000000  3
   8830   8828   8829   8831     1  0.0000000  0.6508444  3
   8830   8828   8842   8848     1  0.0000000  1.0460000  1
   8830   8828   8842   8848     1  0.0000000  0.0000000  3
   8830   8828   8842   8846     1  0.0000000  0.6508444  3
   8830   8828   8842   8847     1  0.0000000  0.6508444  3
   8830   8828   8850   8834     1  0.0000000  1.6038667  3
   8831   8829   8828   8842     1  0.0000000  0.6508444  3
   8831   8829   8828   8850     1  0.0000000  1.0460000  1
   8831   8829   8828   8850     1  0.0000000  0.0000000  3
   8831   8829   8832   8833     1  0.0000000  0.6508444  3
   8831   8829   8832   8840     1  0.0000000  1.0460000  1
   8831   8829   8832   8840     1  0.0000000  0.0000000  3
   8831   8829   8832   8836     1  0.0000000  0.6508444  3
   8831   8829   8841   8844     1  0.0000000  0.6973333  3
   8832   8829   8841   8844     1  0.0000000  1.0460000  1
   8832   8829   8841   8844     1  0.0000000  0.6694400  3
   8832   8833   8834   8837     1  0.0000000  0.6508444  3
   8832   8833   8839   8845     1  0.0000000  1.0460000  1
   8832   8833   8839   8845     1  0.0000000  0.6694400  3
   8833   8832   8840   8843     1  0.0000000  1.0460000  1
   8833   8832   8840   8843     1  0.0000000  0.6694400  3
   8834   8833   8832   8836     1  0.0000000  0.6508444  3
   8834   8833   8839   8845     1  0.0000000  1.0460000  1
   8834   8833   8839   8845     1  0.0000000  0.6694400  3
   8835   8833   8832   8840     1  0.0000000  1.0460000  1
   8835   8833   8832   8840     1  0.0000000  0.0000000  3
   8835   8833   8832   8836     1  0.0000000  0.6508444  3
   8835   8833   8834   8838     1  0.0000000  1.0460000  1
   8835   8833   8834   8838     1  0.0000000  0.0000000  3
   8835   8833   8834   8850     1  0.0000000  1.0460000  1
   8835   8833   8834   8850     1  0.0000000  0.0000000  3
   8835   8833   8834   8837     1  0.0000000  0.6508444  3
   8835   8833   8839   8845     1  0.0000000  0.6973333  3
   8836   8832   8829   8841     1  0.0000000  1.0460000  1
   8836   8832   8829   8841     1  0.0000000  0.0000000  3
   8836   8832   8833   8839     1  0.0000000  1.0460000  1
   8836   8832   8833   8839     1  0.0000000  0.0000000  3
   8836   8832   8840   8843     1  0.0000000  0.6973333  3
   8837   8834   8833   8839     1  0.0000000  0.6508444  3
   8846   8842   8828   8850     1  0.0000000  1.0460000  1
   8846   8842   8828   8850     1  0.0000000  0.0000000  3
   8846   8842   8848   8849     1  0.0000000  0.6973333  3
   8847   8842   8828   8850     1  0.0000000  1.0460000  1
   8847   8842   8828   8850     1  0.0000000  0.0000000  3
   8847   8842   8848   8849     1  0.0000000  0.6973333  3
   8851   8852   8855   8859     1  0.0000000  0.6508444  3
   8851   8852   8864   8867     1  0.0000000  1.0460000  1
   8851   8852   8864   8867     1  0.0000000  0.6694400  3
   8851   8865   8871   8872     1  0.0000000  1.0460000  1
   8851   8865   8871   8872     1  0.0000000  0.6694400  3
   8851   8873   8857   8860     1  0.0000000  1.6038667  3
   8852   8855   8856   8858     1  0.0000000  0.6508444  3
   8852   8855   8863   8866     1  0.0000000  1.0460000  1
   8852   8855   8863   8866     1  0.0000000  0.6694400  3
   8852   8851   8865   8869     1  0.0000000  0.6508444  3
   8852   8851   8865   8870     1  0.0000000  0.6508444  3
   8853   8851   8852   8855     1  0.0000000  0.6508444  3
   8853   8851   8852   8864     1  0.0000000  1.0460000  1
   8853   8851   8852   8864     1  0.0000000  0.0000000  3
   8853   8851   8852   8854     1  0.0000000  0.6508444  3
   8853   8851   8865   8871     1  0.0000000  1.0460000  1
   8853   8851   8865   8871     1  0.0000000  0.0000000  3
   8853   8851   8865   8869     1  0.0000000  0.6508444  3
   8853   8851   8865   8870     1  0.0000000  0.6508444  3
   8853   8851   8873   8857     1  0.0000000  1.6038667  3
   8854   8852   8855   8856     1  0.0000000  0.6508444  3
   8854   8852   8855   8863     1  0.0000000  1.0460000  1
   8854   8852   8855   8863     1  0.0000000  0.0000000  3
   8854   8852   8855   8859     1  0.0000000  0.6508444  3
   8854   8852   8864   8867     1  0.0000000  0.6973333  3
   8854   8852   8851   8865     1  0.0000000  0.6508444  3
   8854   8852   8851   8873     1  0.0000000  1.0460000  1
   8854   8852   8851   8873     1  0.0000000  0.0000000  3
   8855   8856   8857   8860     1  0.0000000  0.6508444  3
   8855   8856   8862   8868     1  0.0000000  1.0460000  1
   8855   8856   8862   8868     1  0.0000000  0.6694400  3
   8855   8852   8864   8867     1  0.0000000  1.0460000  1
   8855   8852   8864   8867     1  0.0000000  0.6694400  3
   8856   8855   8863   8866     1  0.0000000  1.0460000  1
   8856   8855   8863   8866     1  0.0000000  0.6694400  3
   8857   8856   8862   8868     1  0.0000000  1.0460000  1
   8857   8856   8862   8868     1  0.0000000  0.6694400  3
   8857   8856   8855   8859     1  0.0000000  0.6508444  3
   8858   8856   8857   8861     1  0.0000000  1.0460000  1
   8858   8856   8857   8861     1  0.0000000  0.0000000  3
   8858   8856   8857   8873     1  0.0000000  1.0460000  1
   8858   8856   8857   8873     1  0.0000000  0.0000000  3
   8858   8856   8857   8860     1  0.0000000  0.6508444  3
   8858   8856   8862   8868     1  0.0000000  0.6973333  3
   8858   8856   8855   8863     1  0.0000000  1.0460000  1
   8858   8856   8855   8863     1  0.0000000  0.0000000  3
   8858   8856   8855   8859     1  0.0000000  0.6508444  3
   8859   8855   8856   8862     1  0.0000000  1.0460000  1
   8859   8855   8856   8862     1  0.0000000  0.0000000  3
   8859   8855   8863   8866     1  0.0000000  0.6973333  3
   8859   8855   8852   8864     1  0.0000000  1.0460000  1
   8859   8855   8852   8864     1  0.0000000  0.0000000  3
   8860   8857   8856   8862     1  0.0000000  0.6508444  3
   8869   8865   8871   8872     1  0.0000000  0.6973333  3
   8869   8865   8851   8873     1  0.0000000  1.0460000  1
   8869   8865   8851   8873     1  0.0000000  0.0000000  3
   8870   8865   8871   8872     1  0.0000000  0.6973333  3
   8870   8865   8851   8873     1  0.0000000  1.0460000  1
   8870   8865   8851   8873     1  0.0000000  0.0000000  3
   8874   8875   8878   8882     1  0.0000000  0.6508444  3
   8874   8875   8887   8890     1  0.0000000  1.0460000  1
   8874   8875   8887   8890     1  0.0000000  0.6694400  3
   8874   8888   8894   8895     1  0.0000000  1.0460000  1
   8874   8888   8894   8895     1  0.0000000  0.6694400  3
   8874   8896   8880   8883     1  0.0000000  1.6038667  3
   8875   8874   8888   8892     1  0.0000000  0.6508444  3
   8875   8874   8888   8893     1  0.0000000  0.6508444  3
   8875   8878   8879   8881     1  0.0000000  0.6508444  3
   8875   8878   8886   8889     1  0.0000000  1.0460000  1
   8875   8878   8886   8889     1  0.0000000  0.6694400  3
   8876   8874   8875   8878     1  0.0000000  0.6508444  3
   8876   8874   8875   8887     1  0.0000000  1.0460000  1
   8876   8874   8875   8887     1  0.0000000  0.0000000  3
   8876   8874   8875   8877     1  0.0000000  0.6508444  3
   8876   8874   8888   8894     1  0.0000000  1.0460000  1
   8876   8874   8888   8894     1  0.0000000  0.0000000  3
   8876   8874   8888   8892     1  0.0000000  0.6508444  3
   8876   8874   8888   8893     1  0.0000000  0.6508444  3
   8876   8874   8896   8880     1  0.0000000  1.6038667  3
   8877   8875   8874   8888     1  0.0000000  0.6508444  3
   8877   8875   8874   8896     1  0.0000000  1.0460000  1
   8877   8875   8874   8896     1  0.0000000  0.0000000  3
   8877   8875   8878   8879     1  0.0000000  0.6508444  3
   8877   8875   8878   8886     1  0.0000000  1.0460000  1
   8877   8875   8878   8886     1  0.0000000  0.0000000  3
   8877   8875   8878   8882     1  0.0000000  0.6508444  3
   8877   8875   8887   8890     1  0.0000000  0.6973333  3
   8878   8875   8887   8890     1  0.0000000  1.0460000  1
   8878   8875   8887   8890     1  0.0000000  0.6694400  3
   8878   8879   8880   8883     1  0.0000000  0.6508444  3
   8878   8879   8885   8891     1  0.0000000  1.0460000  1
   8878   8879   8885   8891     1  0.0000000  0.6694400  3
   8879   8878   8886   8889     1  0.0000000  1.0460000  1
   8879   8878   8886   8889     1  0.0000000  0.6694400  3
   8880   8879   8878   8882     1  0.0000000  0.6508444  3
   8880   8879   8885   8891     1  0.0000000  1.0460000  1
   8880   8879   8885   8891     1  0.0000000  0.6694400  3
   8881   8879   8878   8886     1  0.0000000  1.0460000  1
   8881   8879   8878   8886     1  0.0000000  0.0000000  3
   8881   8879   8878   8882     1  0.0000000  0.6508444  3
   8881   8879   8880   8884     1  0.0000000  1.0460000  1
   8881   8879   8880   8884     1  0.0000000  0.0000000  3
   8881   8879   8880   8896     1  0.0000000  1.0460000  1
   8881   8879   8880   8896     1  0.0000000  0.0000000  3
   8881   8879   8880   8883     1  0.0000000  0.6508444  3
   8881   8879   8885   8891     1  0.0000000  0.6973333  3
   8882   8878   8875   8887     1  0.0000000  1.0460000  1
   8882   8878   8875   8887     1  0.0000000  0.0000000  3
   8882   8878   8879   8885     1  0.0000000  1.0460000  1
   8882   8878   8879   8885     1  0.0000000  0.0000000  3
   8882   8878   8886   8889     1  0.0000000  0.6973333  3
   8883   8880   8879   8885     1  0.0000000  0.6508444  3
   8892   8888   8874   8896     1  0.0000000  1.0460000  1
   8892   8888   8874   8896     1  0.0000000  0.0000000  3
   8892   8888   8894   8895     1  0.0000000  0.6973333  3
   8893   8888   8874   8896     1  0.0000000  1.0460000  1
   8893   8888   8874   8896     1  0.0000000  0.0000000  3
   8893   8888   8894   8895     1  0.0000000  0.6973333  3
   8897   8898   8901   8905     1  0.0000000  0.6508444  3
   8897   8898   8910   8913     1  0.0000000  1.0460000  1
   8897   8898   8910   8913     1  0.0000000  0.6694400  3
   8897   8911   8917   8918     1  0.0000000  1.0460000  1
   8897   8911   8917   8918     1  0.0000000  0.6694400  3
   8897   8919   8903   8906     1  0.0000000  1.6038667  3
   8898   8901   8902   8904     1  0.0000000  0.6508444  3
   8898   8901   8909   8912     1  0.0000000  1.0460000  1
   8898   8901   8909   8912     1  0.0000000  0.6694400  3
   8898   8897   8911   8915     1  0.0000000  0.6508444  3
   8898   8897   8911   8916     1  0.0000000  0.6508444  3
   8899   8897   8898   8901     1  0.0000000  0.6508444  3
   8899   8897   8898   8910     1  0.0000000  1.0460000  1
   8899   8897   8898   8910     1  0.0000000  0.0000000  3
   8899   8897   8898   8900     1  0.0000000  0.6508444  3
   8899   8897   8911   8917     1  0.0000000  1.0460000  1
   8899   8897   8911   8917     1  0.0000000  0.0000000  3
   8899   8897   8911   8915     1  0.0000000  0.6508444  3
   8899   8897   8911   8916     1  0.0000000  0.6508444  3
   8899   8897   8919   8903     1  0.0000000  1.6038667  3
   8900   8898   8901   8902     1  0.0000000  0.6508444  3
   8900   8898   8901   8909     1  0.0000000  1.0460000  1
   8900   8898   8901   8909     1  0.0000000  0.0000000  3
   8900   8898   8901   8905     1  0.0000000  0.6508444  3
   8900   8898   8910   8913     1  0.0000000  0.6973333  3
   8900   8898   8897   8911     1  0.0000000  0.6508444  3
   8900   8898   8897   8919     1  0.0000000  1.0460000  1
   8900   8898   8897   8919     1  0.0000000  0.0000000  3
   8901   8902   8903   8906     1  0.0000000  0.6508444  3
   8901   8902   8908   8914     1  0.0000000  1.0460000  1
   8901   8902   8908   8914     1  0.0000000  0.6694400  3
   8901   8898   8910   8913     1  0.0000000  1.0460000  1
   8901   8898   8910   8913     1  0.0000000  0.6694400  3
   8902   8901   8909   8912     1  0.0000000  1.0460000  1
   8902   8901   8909   8912     1  0.0000000  0.6694400  3
   8903   8902   8908   8914     1  0.0000000  1.0460000  1
   8903   8902   8908   8914     1  0.0000000  0.6694400  3
   8903   8902   8901   8905     1  0.0000000  0.6508444  3
   8904   8902   8903   8907     1  0.0000000  1.0460000  1
   8904   8902   8903   8907     1  0.0000000  0.0000000  3
   8904   8902   8903   8919     1  0.0000000  1.0460000  1
   8904   8902   8903   8919     1  0.0000000  0.0000000  3
   8904   8902   8903   8906     1  0.0000000  0.6508444  3
   8904   8902   8908   8914     1  0.0000000  0.6973333  3
   8904   8902   8901   8909     1  0.0000000  1.0460000  1
   8904   8902   8901   8909     1  0.0000000  0.0000000  3
   8904   8902   8901   8905     1  0.0000000  0.6508444  3
   8905   8901   8902   8908     1  0.0000000  1.0460000  1
   8905   8901   8902   8908     1  0.0000000  0.0000000  3
   8905   8901   8909   8912     1  0.0000000  0.6973333  3
   8905   8901   8898   8910     1  0.0000000  1.0460000  1
   8905   8901   8898   8910     1  0.0000000  0.0000000  3
   8906   8903   8902   8908     1  0.0000000  0.6508444  3
   8915   8911   8917   8918     1  0.0000000  0.6973333  3
   8915   8911   8897   8919     1  0.0000000  1.0460000  1
   8915   8911   8897   8919     1  0.0000000  0.0000000  3
   8916   8911   8917   8918     1  0.0000000  0.6973333  3
   8916   8911   8897   8919     1  0.0000000  1.0460000  1
   8916   8911   8897   8919     1  0.0000000  0.0000000  3
   8920   8921   8924   8928     1  0.0000000  0.6508444  3
   8920   8921   8933   8936     1  0.0000000  1.0460000  1
   8920   8921   8933   8936     1  0.0000000  0.6694400  3
   8920   8934   8940   8941     1  0.0000000  1.0460000  1
   8920   8934   8940   8941     1  0.0000000  0.6694400  3
   8920   8942   8926   8929     1  0.0000000  1.6038667  3
   8921   8920   8934   8938     1  0.0000000  0.6508444  3
   8921   8920   8934   8939     1  0.0000000  0.6508444  3
   8921   8924   8925   8927     1  0.0000000  0.6508444  3
   8921   8924   8932   8935     1  0.0000000  1.0460000  1
   8921   8924   8932   8935     1  0.0000000  0.6694400  3
   8922   8920   8921   8924     1  0.0000000  0.6508444  3
   8922   8920   8921   8933     1  0.0000000  1.0460000  1
   8922   8920   8921   8933     1  0.0000000  0.0000000  3
   8922   8920   8921   8923     1  0.0000000  0.6508444  3
   8922   8920   8934   8940     1  0.0000000  1.0460000  1
   8922   8920   8934   8940     1  0.0000000  0.0000000  3
   8922   8920   8934   8938     1  0.0000000  0.6508444  3
   8922   8920   8934   8939     1  0.0000000  0.6508444  3
   8922   8920   8942   8926     1  0.0000000  1.6038667  3
   8923   8921   8920   8934     1  0.0000000  0.6508444  3
   8923   8921   8920   8942     1  0.0000000  1.0460000  1
   8923   8921   8920   8942     1  0.0000000  0.0000000  3
   8923   8921   8924   8925     1  0.0000000  0.6508444  3
   8923   8921   8924   8932     1  0.0000000  1.0460000  1
   8923   8921   8924   8932     1  0.0000000  0.0000000  3
   8923   8921   8924   8928     1  0.0000000  0.6508444  3
   8923   8921   8933   8936     1  0.0000000  0.6973333  3
   8924   8921   8933   8936     1  0.0000000  1.0460000  1
   8924   8921   8933   8936     1  0.0000000  0.6694400  3
   8924   8925   8926   8929     1  0.0000000  0.6508444  3
   8924   8925   8931   8937     1  0.0000000  1.0460000  1
   8924   8925   8931   8937     1  0.0000000  0.6694400  3
   8925   8924   8932   8935     1  0.0000000  1.0460000  1
   8925   8924   8932   8935     1  0.0000000  0.6694400  3
   8926   8925   8924   8928     1  0.0000000  0.6508444  3
   8926   8925   8931   8937     1  0.0000000  1.0460000  1
   8926   8925   8931   8937     1  0.0000000  0.6694400  3
   8927   8925   8924   8932     1  0.0000000  1.0460000  1
   8927   8925   8924   8932     1  0.0000000  0.0000000  3
   8927   8925   8924   8928     1  0.0000000  0.6508444  3
   8927   8925   8926   8930     1  0.0000000  1.0460000  1
   8927   8925   8926   8930     1  0.0000000  0.0000000  3
   8927   8925   8926   8942     1  0.0000000  1.0460000  1
   8927   8925   8926   8942     1  0.0000000  0.0000000  3
   8927   8925   8926   8929     1  0.0000000  0.6508444  3
   8927   8925   8931   8937     1  0.0000000  0.6973333  3
   8928   8924   8921   8933     1  0.0000000  1.0460000  1
   8928   8924   8921   8933     1  0.0000000  0.0000000  3
   8928   8924   8925   8931     1  0.0000000  1.0460000  1
   8928   8924   8925   8931     1  0.0000000  0.0000000  3
   8928   8924   8932   8935     1  0.0000000  0.6973333  3
   8929   8926   8925   8931     1  0.0000000  0.6508444  3
   8938   8934   8920   8942     1  0.0000000  1.0460000  1
   8938   8934   8920   8942     1  0.0000000  0.0000000  3
   8938   8934   8940   8941     1  0.0000000  0.6973333  3
   8939   8934   8920   8942     1  0.0000000  1.0460000  1
   8939   8934   8920   8942     1  0.0000000  0.0000000  3
   8939   8934   8940   8941     1  0.0000000  0.6973333  3
   8943   8944   8947   8951     1  0.0000000  0.6508444  3
   8943   8944   8956   8959     1  0.0000000  1.0460000  1
   8943   8944   8956   8959     1  0.0000000  0.6694400  3
   8943   8957   8963   8964     1  0.0000000  1.0460000  1
   8943   8957   8963   8964     1  0.0000000  0.6694400  3
   8943   8965   8949   8952     1  0.0000000  1.6038667  3
   8944   8947   8948   8950     1  0.0000000  0.6508444  3
   8944   8947   8955   8958     1  0.0000000  1.0460000  1
   8944   8947   8955   8958     1  0.0000000  0.6694400  3
   8944   8943   8957   8961     1  0.0000000  0.6508444  3
   8944   8943   8957   8962     1  0.0000000  0.6508444  3
   8945   8943   8944   8947     1  0.0000000  0.6508444  3
   8945   8943   8944   8956     1  0.0000000  1.0460000  1
   8945   8943   8944   8956     1  0.0000000  0.0000000  3
   8945   8943   8944   8946     1  0.0000000  0.6508444  3
   8945   8943   8957   8963     1  0.0000000  1.0460000  1
   8945   8943   8957   8963     1  0.0000000  0.0000000  3
   8945   8943   8957   8961     1  0.0000000  0.6508444  3
   8945   8943   8957   8962     1  0.0000000  0.6508444  3
   8945   8943   8965   8949     1  0.0000000  1.6038667  3
   8946   8944   8947   8948     1  0.0000000  0.6508444  3
   8946   8944   8947   8955     1  0.0000000  1.0460000  1
   8946   8944   8947   8955     1  0.0000000  0.0000000  3
   8946   8944   8947   8951     1  0.0000000  0.6508444  3
   8946   8944   8956   8959     1  0.0000000  0.6973333  3
   8946   8944   8943   8957     1  0.0000000  0.6508444  3
   8946   8944   8943   8965     1  0.0000000  1.0460000  1
   8946   8944   8943   8965     1  0.0000000  0.0000000  3
   8947   8948   8949   8952     1  0.0000000  0.6508444  3
   8947   8948   8954   8960     1  0.0000000  1.0460000  1
   8947   8948   8954   8960     1  0.0000000  0.6694400  3
   8947   8944   8956   8959     1  0.0000000  1.0460000  1
   8947   8944   8956   8959     1  0.0000000  0.6694400  3
   8948   8947   8955   8958     1  0.0000000  1.0460000  1
   8948   8947   8955   8958     1  0.0000000  0.6694400  3
   8949   8948   8954   8960     1  0.0000000  1.0460000  1
   8949   8948   8954   8960     1  0.0000000  0.6694400  3
   8949   8948   8947   8951     1  0.0000000  0.6508444  3
   8950   8948   8949   8953     1  0.0000000  1.0460000  1
   8950   8948   8949   8953     1  0.0000000  0.0000000  3
   8950   8948   8949   8965     1  0.0000000  1.0460000  1
   8950   8948   8949   8965     1  0.0000000  0.0000000  3
   8950   8948   8949   8952     1  0.0000000  0.6508444  3
   8950   8948   8954   8960     1  0.0000000  0.6973333  3
   8950   8948   8947   8955     1  0.0000000  1.0460000  1
   8950   8948   8947   8955     1  0.0000000  0.0000000  3
   8950   8948   8947   8951     1  0.0000000  0.6508444  3
   8951   8947   8948   8954     1  0.0000000  1.0460000  1
   8951   8947   8948   8954     1  0.0000000  0.0000000  3
   8951   8947   8955   8958     1  0.0000000  0.6973333  3
   8951   8947   8944   8956     1  0.0000000  1.0460000  1
   8951   8947   8944   8956     1  0.0000000  0.0000000  3
   8952   8949   8948   8954     1  0.0000000  0.6508444  3
   8961   8957   8963   8964     1  0.0000000  0.6973333  3
   8961   8957   8943   8965     1  0.0000000  1.0460000  1
   8961   8957   8943   8965     1  0.0000000  0.0000000  3
   8962   8957   8963   8964     1  0.0000000  0.6973333  3
   8962   8957   8943   8965     1  0.0000000  1.0460000  1
   8962   8957   8943   8965     1  0.0000000  0.0000000  3
   8966   8967   8970   8974     1  0.0000000  0.6508444  3
   8966   8967   8979   8982     1  0.0000000  1.0460000  1
   8966   8967   8979   8982     1  0.0000000  0.6694400  3
   8966   8980   8986   8987     1  0.0000000  1.0460000  1
   8966   8980   8986   8987     1  0.0000000  0.6694400  3
   8966   8988   8972   8975     1  0.0000000  1.6038667  3
   8967   8966   8980   8984     1  0.0000000  0.6508444  3
   8967   8966   8980   8985     1  0.0000000  0.6508444  3
   8967   8970   8971   8973     1  0.0000000  0.6508444  3
   8967   8970   8978   8981     1  0.0000000  1.0460000  1
   8967   8970   8978   8981     1  0.0000000  0.6694400  3
   8968   8966   8967   8970     1  0.0000000  0.6508444  3
   8968   8966   8967   8979     1  0.0000000  1.0460000  1
   8968   8966   8967   8979     1  0.0000000  0.0000000  3
   8968   8966   8967   8969     1  0.0000000  0.6508444  3
   8968   8966   8980   8986     1  0.0000000  1.0460000  1
   8968   8966   8980   8986     1  0.0000000  0.0000000  3
   8968   8966   8980   8984     1  0.0000000  0.6508444  3
   8968   8966   8980   8985     1  0.0000000  0.6508444  3
   8968   8966   8988   8972     1  0.0000000  1.6038667  3
   8969   8967   8966   8980     1  0.0000000  0.6508444  3
   8969   8967   8966   8988     1  0.0000000  1.0460000  1
   8969   8967   8966   8988     1  0.0000000  0.0000000  3
   8969   8967   8970   8971     1  0.0000000  0.6508444  3
   8969   8967   8970   8978     1  0.0000000  1.0460000  1
   8969   8967   8970   8978     1  0.0000000  0.0000000  3
   8969   8967   8970   8974     1  0.0000000  0.6508444  3
   8969   8967   8979   8982     1  0.0000000  0.6973333  3
   8970   8967   8979   8982     1  0.0000000  1.0460000  1
   8970   8967   8979   8982     1  0.0000000  0.6694400  3
   8970   8971   8972   8975     1  0.0000000  0.6508444  3
   8970   8971   8977   8983     1  0.0000000  1.0460000  1
   8970   8971   8977   8983     1  0.0000000  0.6694400  3
   8971   8970   8978   8981     1  0.0000000  1.0460000  1
   8971   8970   8978   8981     1  0.0000000  0.6694400  3
   8972   8971   8970   8974     1  0.0000000  0.6508444  3
   8972   8971   8977   8983     1  0.0000000  1.0460000  1
   8972   8971   8977   8983     1  0.0000000  0.6694400  3
   8973   8971   8970   8978     1  0.0000000  1.0460000  1
   8973   8971   8970   8978     1  0.0000000  0.0000000  3
   8973   8971   8970   8974     1  0.0000000  0.6508444  3
   8973   8971   8972   8976     1  0.0000000  1.0460000  1
   8973   8971   8972   8976     1  0.0000000  0.0000000  3
   8973   8971   8972   8988     1  0.0000000  1.0460000  1
   8973   8971   8972   8988     1  0.0000000  0.0000000  3
   8973   8971   8972   8975     1  0.0000000  0.6508444  3
   8973   8971   8977   8983     1  0.0000000  0.6973333  3
   8974   8970   8967   8979     1  0.0000000  1.0460000  1
   8974   8970   8967   8979     1  0.0000000  0.0000000  3
   8974   8970   8971   8977     1  0.0000000  1.0460000  1
   8974   8970   8971   8977     1  0.0000000  0.0000000  3
   8974   8970   8978   8981     1  0.0000000  0.6973333  3
   8975   8972   8971   8977     1  0.0000000  0.6508444  3
   8984   8980   8966   8988     1  0.0000000  1.0460000  1
   8984   8980   8966   8988     1  0.0000000  0.0000000  3
   8984   8980   8986   8987     1  0.0000000  0.6973333  3
   8985   8980   8966   8988     1  0.0000000  1.0460000  1
   8985   8980   8966   8988     1  0.0000000  0.0000000  3
   8985   8980   8986   8987     1  0.0000000  0.6973333  3
   8989   8990   8993   8997     1  0.0000000  0.6508444  3
   8989   8990   9002   9005     1  0.0000000  1.0460000  1
   8989   8990   9002   9005     1  0.0000000  0.6694400  3
   8989   9003   9009   9010     1  0.0000000  1.0460000  1
   8989   9003   9009   9010     1  0.0000000  0.6694400  3
   8989   9011   8995   8998     1  0.0000000  1.6038667  3
   8990   8993   8994   8996     1  0.0000000  0.6508444  3
   8990   8993   9001   9004     1  0.0000000  1.0460000  1
   8990   8993   9001   9004     1  0.0000000  0.6694400  3
   8990   8989   9003   9007     1  0.0000000  0.6508444  3
   8990   8989   9003   9008     1  0.0000000  0.6508444  3
   8991   8989   8990   8993     1  0.0000000  0.6508444  3
   8991   8989   8990   9002     1  0.0000000  1.0460000  1
   8991   8989   8990   9002     1  0.0000000  0.0000000  3
   8991   8989   8990   8992     1  0.0000000  0.6508444  3
   8991   8989   9003   9009     1  0.0000000  1.0460000  1
   8991   8989   9003   9009     1  0.0000000  0.0000000  3
   8991   8989   9003   9007     1  0.0000000  0.6508444  3
   8991   8989   9003   9008     1  0.0000000  0.6508444  3
   8991   8989   9011   8995     1  0.0000000  1.6038667  3
   8992   8990   8993   8994     1  0.0000000  0.6508444  3
   8992   8990   8993   9001     1  0.0000000  1.0460000  1
   8992   8990   8993   9001     1  0.0000000  0.0000000  3
   8992   8990   8993   8997     1  0.0000000  0.6508444  3
   8992   8990   9002   9005     1  0.0000000  0.6973333  3
   8992   8990   8989   9003     1  0.0000000  0.6508444  3
   8992   8990   8989   9011     1  0.0000000  1.0460000  1
   8992   8990   8989   9011     1  0.0000000  0.0000000  3
   8993   8994   8995   8998     1  0.0000000  0.6508444  3
   8993   8994   9000   9006     1  0.0000000  1.0460000  1
   8993   8994   9000   9006     1  0.0000000  0.6694400  3
   8993   8990   9002   9005     1  0.0000000  1.0460000  1
   8993   8990   9002   9005     1  0.0000000  0.6694400  3
   8994   8993   9001   9004     1  0.0000000  1.0460000  1
   8994   8993   9001   9004     1  0.0000000  0.6694400  3
   8995   8994   9000   9006     1  0.0000000  1.0460000  1
   8995   8994   9000   9006     1  0.0000000  0.6694400  3
   8995   8994   8993   8997     1  0.0000000  0.6508444  3
   8996   8994   8995   8999     1  0.0000000  1.0460000  1
   8996   8994   8995   8999     1  0.0000000  0.0000000  3
   8996   8994   8995   9011     1  0.0000000  1.0460000  1
   8996   8994   8995   9011     1  0.0000000  0.0000000  3
   8996   8994   8995   8998     1  0.0000000  0.6508444  3
   8996   8994   9000   9006     1  0.0000000  0.6973333  3
   8996   8994   8993   9001     1  0.0000000  1.0460000  1
   8996   8994   8993   9001     1  0.0000000  0.0000000  3
   8996   8994   8993   8997     1  0.0000000  0.6508444  3
   8997   8993   8994   9000     1  0.0000000  1.0460000  1
   8997   8993   8994   9000     1  0.0000000  0.0000000  3
   8997   8993   9001   9004     1  0.0000000  0.6973333  3
   8997   8993   8990   9002     1  0.0000000  1.0460000  1
   8997   8993   8990   9002     1  0.0000000  0.0000000  3
   8998   8995   8994   9000     1  0.0000000  0.6508444  3
   9007   9003   9009   9010     1  0.0000000  0.6973333  3
   9007   9003   8989   9011     1  0.0000000  1.0460000  1
   9007   9003   8989   9011     1  0.0000000  0.0000000  3
   9008   9003   9009   9010     1  0.0000000  0.6973333  3
   9008   9003   8989   9011     1  0.0000000  1.0460000  1
   9008   9003   8989   9011     1  0.0000000  0.0000000  3
   9012   9013   9016   9020     1  0.0000000  0.6508444  3
   9012   9013   9025   9028     1  0.0000000  1.0460000  1
   9012   9013   9025   9028     1  0.0000000  0.6694400  3
   9012   9026   9032   9033     1  0.0000000  1.0460000  1
   9012   9026   9032   9033     1  0.0000000  0.6694400  3
   9012   9034   9018   9021     1  0.0000000  1.6038667  3
   9013   9012   9026   9030     1  0.0000000  0.6508444  3
   9013   9012   9026   9031     1  0.0000000  0.6508444  3
   9013   9016   9017   9019     1  0.0000000  0.6508444  3
   9013   9016   9024   9027     1  0.0000000  1.0460000  1
   9013   9016   9024   9027     1  0.0000000  0.6694400  3
   9014   9012   9013   9016     1  0.0000000  0.6508444  3
   9014   9012   9013   9025     1  0.0000000  1.0460000  1
   9014   9012   9013   9025     1  0.0000000  0.0000000  3
   9014   9012   9013   9015     1  0.0000000  0.6508444  3
   9014   9012   9026   9032     1  0.0000000  1.0460000  1
   9014   9012   9026   9032     1  0.0000000  0.0000000  3
   9014   9012   9026   9030     1  0.0000000  0.6508444  3
   9014   9012   9026   9031     1  0.0000000  0.6508444  3
   9014   9012   9034   9018     1  0.0000000  1.6038667  3
   9015   9013   9012   9026     1  0.0000000  0.6508444  3
   9015   9013   9012   9034     1  0.0000000  1.0460000  1
   9015   9013   9012   9034     1  0.0000000  0.0000000  3
   9015   9013   9016   9017     1  0.0000000  0.6508444  3
   9015   9013   9016   9024     1  0.0000000  1.0460000  1
   9015   9013   9016   9024     1  0.0000000  0.0000000  3
   9015   9013   9016   9020     1  0.0000000  0.6508444  3
   9015   9013   9025   9028     1  0.0000000  0.6973333  3
   9016   9013   9025   9028     1  0.0000000  1.0460000  1
   9016   9013   9025   9028     1  0.0000000  0.6694400  3
   9016   9017   9018   9021     1  0.0000000  0.6508444  3
   9016   9017   9023   9029     1  0.0000000  1.0460000  1
   9016   9017   9023   9029     1  0.0000000  0.6694400  3
   9017   9016   9024   9027     1  0.0000000  1.0460000  1
   9017   9016   9024   9027     1  0.0000000  0.6694400  3
   9018   9017   9016   9020     1  0.0000000  0.6508444  3
   9018   9017   9023   9029     1  0.0000000  1.0460000  1
   9018   9017   9023   9029     1  0.0000000  0.6694400  3
   9019   9017   9016   9024     1  0.0000000  1.0460000  1
   9019   9017   9016   9024     1  0.0000000  0.0000000  3
   9019   9017   9016   9020     1  0.0000000  0.6508444  3
   9019   9017   9018   9022     1  0.0000000  1.0460000  1
   9019   9017   9018   9022     1  0.0000000  0.0000000  3
   9019   9017   9018   9034     1  0.0000000  1.0460000  1
   9019   9017   9018   9034     1  0.0000000  0.0000000  3
   9019   9017   9018   9021     1  0.0000000  0.6508444  3
   9019   9017   9023   9029     1  0.0000000  0.6973333  3
   9020   9016   9013   9025     1  0.0000000  1.0460000  1
   9020   9016   9013   9025     1  0.0000000  0.0000000  3
   9020   9016   9017   9023     1  0.0000000  1.0460000  1
   9020   9016   9017   9023     1  0.0000000  0.0000000  3
   9020   9016   9024   9027     1  0.0000000  0.6973333  3
   9021   9018   9017   9023     1  0.0000000  0.6508444  3
   9030   9026   9012   9034     1  0.0000000  1.0460000  1
   9030   9026   9012   9034     1  0.0000000  0.0000000  3
   9030   9026   9032   9033     1  0.0000000  0.6973333  3
   9031   9026   9012   9034     1  0.0000000  1.0460000  1
   9031   9026   9012   9034     1  0.0000000  0.0000000  3
   9031   9026   9032   9033     1  0.0000000  0.6973333  3
   9035   9036   9039   9043     1  0.0000000  0.6508444  3
   9035   9036   9048   9051     1  0.0000000  1.0460000  1
   9035   9036   9048   9051     1  0.0000000  0.6694400  3
   9035   9049   9055   9056     1  0.0000000  1.0460000  1
   9035   9049   9055   9056     1  0.0000000  0.6694400  3
   9035   9057   9041   9044     1  0.0000000  1.6038667  3
   9036   9039   9040   9042     1  0.0000000  0.6508444  3
   9036   9039   9047   9050     1  0.0000000  1.0460000  1
   9036   9039   9047   9050     1  0.0000000  0.6694400  3
   9036   9035   9049   9053     1  0.0000000  0.6508444  3
   9036   9035   9049   9054     1  0.0000000  0.6508444  3
   9037   9035   9036   9039     1  0.0000000  0.6508444  3
   9037   9035   9036   9048     1  0.0000000  1.0460000  1
   9037   9035   9036   9048     1  0.0000000  0.0000000  3
   9037   9035   9036   9038     1  0.0000000  0.6508444  3
   9037   9035   9049   9055     1  0.0000000  1.0460000  1
   9037   9035   9049   9055     1  0.0000000  0.0000000  3
   9037   9035   9049   9053     1  0.0000000  0.6508444  3
   9037   9035   9049   9054     1  0.0000000  0.6508444  3
   9037   9035   9057   9041     1  0.0000000  1.6038667  3
   9038   9036   9039   9040     1  0.0000000  0.6508444  3
   9038   9036   9039   9047     1  0.0000000  1.0460000  1
   9038   9036   9039   9047     1  0.0000000  0.0000000  3
   9038   9036   9039   9043     1  0.0000000  0.6508444  3
   9038   9036   9048   9051     1  0.0000000  0.6973333  3
   9038   9036   9035   9049     1  0.0000000  0.6508444  3
   9038   9036   9035   9057     1  0.0000000  1.0460000  1
   9038   9036   9035   9057     1  0.0000000  0.0000000  3
   9039   9040   9041   9044     1  0.0000000  0.6508444  3
   9039   9040   9046   9052     1  0.0000000  1.0460000  1
   9039   9040   9046   9052     1  0.0000000  0.6694400  3
   9039   9036   9048   9051     1  0.0000000  1.0460000  1
   9039   9036   9048   9051     1  0.0000000  0.6694400  3
   9040   9039   9047   9050     1  0.0000000  1.0460000  1
   9040   9039   9047   9050     1  0.0000000  0.6694400  3
   9041   9040   9046   9052     1  0.0000000  1.0460000  1
   9041   9040   9046   9052     1  0.0000000  0.6694400  3
   9041   9040   9039   9043     1  0.0000000  0.6508444  3
   9042   9040   9041   9045     1  0.0000000  1.0460000  1
   9042   9040   9041   9045     1  0.0000000  0.0000000  3
   9042   9040   9041   9057     1  0.0000000  1.0460000  1
   9042   9040   9041   9057     1  0.0000000  0.0000000  3
   9042   9040   9041   9044     1  0.0000000  0.6508444  3
   9042   9040   9046   9052     1  0.0000000  0.6973333  3
   9042   9040   9039   9047     1  0.0000000  1.0460000  1
   9042   9040   9039   9047     1  0.0000000  0.0000000  3
   9042   9040   9039   9043     1  0.0000000  0.6508444  3
   9043   9039   9040   9046     1  0.0000000  1.0460000  1
   9043   9039   9040   9046     1  0.0000000  0.0000000  3
   9043   9039   9047   9050     1  0.0000000  0.6973333  3
   9043   9039   9036   9048     1  0.0000000  1.0460000  1
   9043   9039   9036   9048     1  0.0000000  0.0000000  3
   9044   9041   9040   9046     1  0.0000000  0.6508444  3
   9053   9049   9055   9056     1  0.0000000  0.6973333  3
   9053   9049   9035   9057     1  0.0000000  1.0460000  1
   9053   9049   9035   9057     1  0.0000000  0.0000000  3
   9054   9049   9055   9056     1  0.0000000  0.6973333  3
   9054   9049   9035   9057     1  0.0000000  1.0460000  1
   9054   9049   9035   9057     1  0.0000000  0.0000000  3
   9058   9059   9062   9066     1  0.0000000  0.6508444  3
   9058   9059   9071   9074     1  0.0000000  1.0460000  1
   9058   9059   9071   9074     1  0.0000000  0.6694400  3
   9058   9072   9078   9079     1  0.0000000  1.0460000  1
   9058   9072   9078   9079     1  0.0000000  0.6694400  3
   9058   9080   9064   9067     1  0.0000000  1.6038667  3
   9059   9058   9072   9076     1  0.0000000  0.6508444  3
   9059   9058   9072   9077     1  0.0000000  0.6508444  3
   9059   9062   9063   9065     1  0.0000000  0.6508444  3
   9059   9062   9070   9073     1  0.0000000  1.0460000  1
   9059   9062   9070   9073     1  0.0000000  0.6694400  3
   9060   9058   9059   9062     1  0.0000000  0.6508444  3
   9060   9058   9059   9071     1  0.0000000  1.0460000  1
   9060   9058   9059   9071     1  0.0000000  0.0000000  3
   9060   9058   9059   9061     1  0.0000000  0.6508444  3
   9060   9058   9072   9078     1  0.0000000  1.0460000  1
   9060   9058   9072   9078     1  0.0000000  0.0000000  3
   9060   9058   9072   9076     1  0.0000000  0.6508444  3
   9060   9058   9072   9077     1  0.0000000  0.6508444  3
   9060   9058   9080   9064     1  0.0000000  1.6038667  3
   9061   9059   9058   9072     1  0.0000000  0.6508444  3
   9061   9059   9058   9080     1  0.0000000  1.0460000  1
   9061   9059   9058   9080     1  0.0000000  0.0000000  3
   9061   9059   9062   9063     1  0.0000000  0.6508444  3
   9061   9059   9062   9070     1  0.0000000  1.0460000  1
   9061   9059   9062   9070     1  0.0000000  0.0000000  3
   9061   9059   9062   9066     1  0.0000000  0.6508444  3
   9061   9059   9071   9074     1  0.0000000  0.6973333  3
   9062   9059   9071   9074     1  0.0000000  1.0460000  1
   9062   9059   9071   9074     1  0.0000000  0.6694400  3
   9062   9063   9064   9067     1  0.0000000  0.6508444  3
   9062   9063   9069   9075     1  0.0000000  1.0460000  1
   9062   9063   9069   9075     1  0.0000000  0.6694400  3
   9063   9062   9070   9073     1  0.0000000  1.0460000  1
   9063   9062   9070   9073     1  0.0000000  0.6694400  3
   9064   9063   9062   9066     1  0.0000000  0.6508444  3
   9064   9063   9069   9075     1  0.0000000  1.0460000  1
   9064   9063   9069   9075     1  0.0000000  0.6694400  3
   9065   9063   9062   9070     1  0.0000000  1.0460000  1
   9065   9063   9062   9070     1  0.0000000  0.0000000  3
   9065   9063   9062   9066     1  0.0000000  0.6508444  3
   9065   9063   9064   9068     1  0.0000000  1.0460000  1
   9065   9063   9064   9068     1  0.0000000  0.0000000  3
   9065   9063   9064   9080     1  0.0000000  1.0460000  1
   9065   9063   9064   9080     1  0.0000000  0.0000000  3
   9065   9063   9064   9067     1  0.0000000  0.6508444  3
   9065   9063   9069   9075     1  0.0000000  0.6973333  3
   9066   9062   9059   9071     1  0.0000000  1.0460000  1
   9066   9062   9059   9071     1  0.0000000  0.0000000  3
   9066   9062   9063   9069     1  0.0000000  1.0460000  1
   9066   9062   9063   9069     1  0.0000000  0.0000000  3
   9066   9062   9070   9073     1  0.0000000  0.6973333  3
   9067   9064   9063   9069     1  0.0000000  0.6508444  3
   9076   9072   9058   9080     1  0.0000000  1.0460000  1
   9076   9072   9058   9080     1  0.0000000  0.0000000  3
   9076   9072   9078   9079     1  0.0000000  0.6973333  3
   9077   9072   9058   9080     1  0.0000000  1.0460000  1
   9077   9072   9058   9080     1  0.0000000  0.0000000  3
   9077   9072   9078   9079     1  0.0000000  0.6973333  3
   9081   9082   9085   9089     1  0.0000000  0.6508444  3
   9081   9082   9094   9097     1  0.0000000  1.0460000  1
   9081   9082   9094   9097     1  0.0000000  0.6694400  3
   9081   9095   9101   9102     1  0.0000000  1.0460000  1
   9081   9095   9101   9102     1  0.0000000  0.6694400  3
   9081   9103   9087   9090     1  0.0000000  1.6038667  3
   9082   9085   9086   9088     1  0.0000000  0.6508444  3
   9082   9085   9093   9096     1  0.0000000  1.0460000  1
   9082   9085   9093   9096     1  0.0000000  0.6694400  3
   9082   9081   9095   9099     1  0.0000000  0.6508444  3
   9082   9081   9095   9100     1  0.0000000  0.6508444  3
   9083   9081   9082   9085     1  0.0000000  0.6508444  3
   9083   9081   9082   9094     1  0.0000000  1.0460000  1
   9083   9081   9082   9094     1  0.0000000  0.0000000  3
   9083   9081   9082   9084     1  0.0000000  0.6508444  3
   9083   9081   9095   9101     1  0.0000000  1.0460000  1
   9083   9081   9095   9101     1  0.0000000  0.0000000  3
   9083   9081   9095   9099     1  0.0000000  0.6508444  3
   9083   9081   9095   9100     1  0.0000000  0.6508444  3
   9083   9081   9103   9087     1  0.0000000  1.6038667  3
   9084   9082   9085   9086     1  0.0000000  0.6508444  3
   9084   9082   9085   9093     1  0.0000000  1.0460000  1
   9084   9082   9085   9093     1  0.0000000  0.0000000  3
   9084   9082   9085   9089     1  0.0000000  0.6508444  3
   9084   9082   9094   9097     1  0.0000000  0.6973333  3
   9084   9082   9081   9095     1  0.0000000  0.6508444  3
   9084   9082   9081   9103     1  0.0000000  1.0460000  1
   9084   9082   9081   9103     1  0.0000000  0.0000000  3
   9085   9086   9087   9090     1  0.0000000  0.6508444  3
   9085   9086   9092   9098     1  0.0000000  1.0460000  1
   9085   9086   9092   9098     1  0.0000000  0.6694400  3
   9085   9082   9094   9097     1  0.0000000  1.0460000  1
   9085   9082   9094   9097     1  0.0000000  0.6694400  3
   9086   9085   9093   9096     1  0.0000000  1.0460000  1
   9086   9085   9093   9096     1  0.0000000  0.6694400  3
   9087   9086   9092   9098     1  0.0000000  1.0460000  1
   9087   9086   9092   9098     1  0.0000000  0.6694400  3
   9087   9086   9085   9089     1  0.0000000  0.6508444  3
   9088   9086   9087   9091     1  0.0000000  1.0460000  1
   9088   9086   9087   9091     1  0.0000000  0.0000000  3
   9088   9086   9087   9103     1  0.0000000  1.0460000  1
   9088   9086   9087   9103     1  0.0000000  0.0000000  3
   9088   9086   9087   9090     1  0.0000000  0.6508444  3
   9088   9086   9092   9098     1  0.0000000  0.6973333  3
   9088   9086   9085   9093     1  0.0000000  1.0460000  1
   9088   9086   9085   9093     1  0.0000000  0.0000000  3
   9088   9086   9085   9089     1  0.0000000  0.6508444  3
   9089   9085   9086   9092     1  0.0000000  1.0460000  1
   9089   9085   9086   9092     1  0.0000000  0.0000000  3
   9089   9085   9093   9096     1  0.0000000  0.6973333  3
   9089   9085   9082   9094     1  0.0000000  1.0460000  1
   9089   9085   9082   9094     1  0.0000000  0.0000000  3
   9090   9087   9086   9092     1  0.0000000  0.6508444  3
   9099   9095   9101   9102     1  0.0000000  0.6973333  3
   9099   9095   9081   9103     1  0.0000000  1.0460000  1
   9099   9095   9081   9103     1  0.0000000  0.0000000  3
   9100   9095   9101   9102     1  0.0000000  0.6973333  3
   9100   9095   9081   9103     1  0.0000000  1.0460000  1
   9100   9095   9081   9103     1  0.0000000  0.0000000  3
   9104   9105   9108   9112     1  0.0000000  0.6508444  3
   9104   9105   9117   9120     1  0.0000000  1.0460000  1
   9104   9105   9117   9120     1  0.0000000  0.6694400  3
   9104   9118   9124   9125     1  0.0000000  1.0460000  1
   9104   9118   9124   9125     1  0.0000000  0.6694400  3
   9104   9126   9110   9113     1  0.0000000  1.6038667  3
   9105   9104   9118   9122     1  0.0000000  0.6508444  3
   9105   9104   9118   9123     1  0.0000000  0.6508444  3
   9105   9108   9109   9111     1  0.0000000  0.6508444  3
   9105   9108   9116   9119     1  0.0000000  1.0460000  1
   9105   9108   9116   9119     1  0.0000000  0.6694400  3
   9106   9104   9105   9108     1  0.0000000  0.6508444  3
   9106   9104   9105   9117     1  0.0000000  1.0460000  1
   9106   9104   9105   9117     1  0.0000000  0.0000000  3
   9106   9104   9105   9107     1  0.0000000  0.6508444  3
   9106   9104   9118   9124     1  0.0000000  1.0460000  1
   9106   9104   9118   9124     1  0.0000000  0.0000000  3
   9106   9104   9118   9122     1  0.0000000  0.6508444  3
   9106   9104   9118   9123     1  0.0000000  0.6508444  3
   9106   9104   9126   9110     1  0.0000000  1.6038667  3
   9107   9105   9104   9118     1  0.0000000  0.6508444  3
   9107   9105   9104   9126     1  0.0000000  1.0460000  1
   9107   9105   9104   9126     1  0.0000000  0.0000000  3
   9107   9105   9108   9109     1  0.0000000  0.6508444  3
   9107   9105   9108   9116     1  0.0000000  1.0460000  1
   9107   9105   9108   9116     1  0.0000000  0.0000000  3
   9107   9105   9108   9112     1  0.0000000  0.6508444  3
   9107   9105   9117   9120     1  0.0000000  0.6973333  3
   9108   9105   9117   9120     1  0.0000000  1.0460000  1
   9108   9105   9117   9120     1  0.0000000  0.6694400  3
   9108   9109   9110   9113     1  0.0000000  0.6508444  3
   9108   9109   9115   9121     1  0.0000000  1.0460000  1
   9108   9109   9115   9121     1  0.0000000  0.6694400  3
   9109   9108   9116   9119     1  0.0000000  1.0460000  1
   9109   9108   9116   9119     1  0.0000000  0.6694400  3
   9110   9109   9108   9112     1  0.0000000  0.6508444  3
   9110   9109   9115   9121     1  0.0000000  1.0460000  1
   9110   9109   9115   9121     1  0.0000000  0.6694400  3
   9111   9109   9108   9116     1  0.0000000  1.0460000  1
   9111   9109   9108   9116     1  0.0000000  0.0000000  3
   9111   9109   9108   9112     1  0.0000000  0.6508444  3
   9111   9109   9110   9114     1  0.0000000  1.0460000  1
   9111   9109   9110   9114     1  0.0000000  0.0000000  3
   9111   9109   9110   9126     1  0.0000000  1.0460000  1
   9111   9109   9110   9126     1  0.0000000  0.0000000  3
   9111   9109   9110   9113     1  0.0000000  0.6508444  3
   9111   9109   9115   9121     1  0.0000000  0.6973333  3
   9112   9108   9105   9117     1  0.0000000  1.0460000  1
   9112   9108   9105   9117     1  0.0000000  0.0000000  3
   9112   9108   9109   9115     1  0.0000000  1.0460000  1
   9112   9108   9109   9115     1  0.0000000  0.0000000  3
   9112   9108   9116   9119     1  0.0000000  0.6973333  3
   9113   9110   9109   9115     1  0.0000000  0.6508444  3
   9122   9118   9104   9126     1  0.0000000  1.0460000  1
   9122   9118   9104   9126     1  0.0000000  0.0000000  3
   9122   9118   9124   9125     1  0.0000000  0.6973333  3
   9123   9118   9104   9126     1  0.0000000  1.0460000  1
   9123   9118   9104   9126     1  0.0000000  0.0000000  3
   9123   9118   9124   9125     1  0.0000000  0.6973333  3
   9127   9128   9131   9135     1  0.0000000  0.6508444  3
   9127   9128   9140   9143     1  0.0000000  1.0460000  1
   9127   9128   9140   9143     1  0.0000000  0.6694400  3
   9127   9141   9147   9148     1  0.0000000  1.0460000  1
   9127   9141   9147   9148     1  0.0000000  0.6694400  3
   9127   9149   9133   9136     1  0.0000000  1.6038667  3
   9128   9131   9132   9134     1  0.0000000  0.6508444  3
   9128   9131   9139   9142     1  0.0000000  1.0460000  1
   9128   9131   9139   9142     1  0.0000000  0.6694400  3
   9128   9127   9141   9145     1  0.0000000  0.6508444  3
   9128   9127   9141   9146     1  0.0000000  0.6508444  3
   9129   9127   9128   9131     1  0.0000000  0.6508444  3
   9129   9127   9128   9140     1  0.0000000  1.0460000  1
   9129   9127   9128   9140     1  0.0000000  0.0000000  3
   9129   9127   9128   9130     1  0.0000000  0.6508444  3
   9129   9127   9141   9147     1  0.0000000  1.0460000  1
   9129   9127   9141   9147     1  0.0000000  0.0000000  3
   9129   9127   9141   9145     1  0.0000000  0.6508444  3
   9129   9127   9141   9146     1  0.0000000  0.6508444  3
   9129   9127   9149   9133     1  0.0000000  1.6038667  3
   9130   9128   9131   9132     1  0.0000000  0.6508444  3
   9130   9128   9131   9139     1  0.0000000  1.0460000  1
   9130   9128   9131   9139     1  0.0000000  0.0000000  3
   9130   9128   9131   9135     1  0.0000000  0.6508444  3
   9130   9128   9140   9143     1  0.0000000  0.6973333  3
   9130   9128   9127   9141     1  0.0000000  0.6508444  3
   9130   9128   9127   9149     1  0.0000000  1.0460000  1
   9130   9128   9127   9149     1  0.0000000  0.0000000  3
   9131   9132   9133   9136     1  0.0000000  0.6508444  3
   9131   9132   9138   9144     1  0.0000000  1.0460000  1
   9131   9132   9138   9144     1  0.0000000  0.6694400  3
   9131   9128   9140   9143     1  0.0000000  1.0460000  1
   9131   9128   9140   9143     1  0.0000000  0.6694400  3
   9132   9131   9139   9142     1  0.0000000  1.0460000  1
   9132   9131   9139   9142     1  0.0000000  0.6694400  3
   9133   9132   9138   9144     1  0.0000000  1.0460000  1
   9133   9132   9138   9144     1  0.0000000  0.6694400  3
   9133   9132   9131   9135     1  0.0000000  0.6508444  3
   9134   9132   9133   9137     1  0.0000000  1.0460000  1
   9134   9132   9133   9137     1  0.0000000  0.0000000  3
   9134   9132   9133   9149     1  0.0000000  1.0460000  1
   9134   9132   9133   9149     1  0.0000000  0.0000000  3
   9134   9132   9133   9136     1  0.0000000  0.6508444  3
   9134   9132   9138   9144     1  0.0000000  0.6973333  3
   9134   9132   9131   9139     1  0.0000000  1.0460000  1
   9134   9132   9131   9139     1  0.0000000  0.0000000  3
   9134   9132   9131   9135     1  0.0000000  0.6508444  3
   9135   9131   9132   9138     1  0.0000000  1.0460000  1
   9135   9131   9132   9138     1  0.0000000  0.0000000  3
   9135   9131   9139   9142     1  0.0000000  0.6973333  3
   9135   9131   9128   9140     1  0.0000000  1.0460000  1
   9135   9131   9128   9140     1  0.0000000  0.0000000  3
   9136   9133   9132   9138     1  0.0000000  0.6508444  3
   9145   9141   9147   9148     1  0.0000000  0.6973333  3
   9145   9141   9127   9149     1  0.0000000  1.0460000  1
   9145   9141   9127   9149     1  0.0000000  0.0000000  3
   9146   9141   9147   9148     1  0.0000000  0.6973333  3
   9146   9141   9127   9149     1  0.0000000  1.0460000  1
   9146   9141   9127   9149     1  0.0000000  0.0000000  3
   9150   9151   9154   9158     1  0.0000000  0.6508444  3
   9150   9151   9163   9166     1  0.0000000  1.0460000  1
   9150   9151   9163   9166     1  0.0000000  0.6694400  3
   9150   9164   9170   9171     1  0.0000000  1.0460000  1
   9150   9164   9170   9171     1  0.0000000  0.6694400  3
   9150   9172   9156   9159     1  0.0000000  1.6038667  3
   9151   9150   9164   9168     1  0.0000000  0.6508444  3
   9151   9150   9164   9169     1  0.0000000  0.6508444  3
   9151   9154   9155   9157     1  0.0000000  0.6508444  3
   9151   9154   9162   9165     1  0.0000000  1.0460000  1
   9151   9154   9162   9165     1  0.0000000  0.6694400  3
   9152   9150   9151   9154     1  0.0000000  0.6508444  3
   9152   9150   9151   9163     1  0.0000000  1.0460000  1
   9152   9150   9151   9163     1  0.0000000  0.0000000  3
   9152   9150   9151   9153     1  0.0000000  0.6508444  3
   9152   9150   9164   9170     1  0.0000000  1.0460000  1
   9152   9150   9164   9170     1  0.0000000  0.0000000  3
   9152   9150   9164   9168     1  0.0000000  0.6508444  3
   9152   9150   9164   9169     1  0.0000000  0.6508444  3
   9152   9150   9172   9156     1  0.0000000  1.6038667  3
   9153   9151   9150   9164     1  0.0000000  0.6508444  3
   9153   9151   9150   9172     1  0.0000000  1.0460000  1
   9153   9151   9150   9172     1  0.0000000  0.0000000  3
   9153   9151   9154   9155     1  0.0000000  0.6508444  3
   9153   9151   9154   9162     1  0.0000000  1.0460000  1
   9153   9151   9154   9162     1  0.0000000  0.0000000  3
   9153   9151   9154   9158     1  0.0000000  0.6508444  3
   9153   9151   9163   9166     1  0.0000000  0.6973333  3
   9154   9151   9163   9166     1  0.0000000  1.0460000  1
   9154   9151   9163   9166     1  0.0000000  0.6694400  3
   9154   9155   9156   9159     1  0.0000000  0.6508444  3
   9154   9155   9161   9167     1  0.0000000  1.0460000  1
   9154   9155   9161   9167     1  0.0000000  0.6694400  3
   9155   9154   9162   9165     1  0.0000000  1.0460000  1
   9155   9154   9162   9165     1  0.0000000  0.6694400  3
   9156   9155   9154   9158     1  0.0000000  0.6508444  3
   9156   9155   9161   9167     1  0.0000000  1.0460000  1
   9156   9155   9161   9167     1  0.0000000  0.6694400  3
   9157   9155   9154   9162     1  0.0000000  1.0460000  1
   9157   9155   9154   9162     1  0.0000000  0.0000000  3
   9157   9155   9154   9158     1  0.0000000  0.6508444  3
   9157   9155   9156   9160     1  0.0000000  1.0460000  1
   9157   9155   9156   9160     1  0.0000000  0.0000000  3
   9157   9155   9156   9172     1  0.0000000  1.0460000  1
   9157   9155   9156   9172     1  0.0000000  0.0000000  3
   9157   9155   9156   9159     1  0.0000000  0.6508444  3
   9157   9155   9161   9167     1  0.0000000  0.6973333  3
   9158   9154   9151   9163     1  0.0000000  1.0460000  1
   9158   9154   9151   9163     1  0.0000000  0.0000000  3
   9158   9154   9155   9161     1  0.0000000  1.0460000  1
   9158   9154   9155   9161     1  0.0000000  0.0000000  3
   9158   9154   9162   9165     1  0.0000000  0.6973333  3
   9159   9156   9155   9161     1  0.0000000  0.6508444  3
   9168   9164   9150   9172     1  0.0000000  1.0460000  1
   9168   9164   9150   9172     1  0.0000000  0.0000000  3
   9168   9164   9170   9171     1  0.0000000  0.6973333  3
   9169   9164   9150   9172     1  0.0000000  1.0460000  1
   9169   9164   9150   9172     1  0.0000000  0.0000000  3
   9169   9164   9170   9171     1  0.0000000  0.6973333  3
   9173   9174   9177   9181     1  0.0000000  0.6508444  3
   9173   9174   9186   9189     1  0.0000000  1.0460000  1
   9173   9174   9186   9189     1  0.0000000  0.6694400  3
   9173   9187   9193   9194     1  0.0000000  1.0460000  1
   9173   9187   9193   9194     1  0.0000000  0.6694400  3
   9173   9195   9179   9182     1  0.0000000  1.6038667  3
   9174   9177   9178   9180     1  0.0000000  0.6508444  3
   9174   9177   9185   9188     1  0.0000000  1.0460000  1
   9174   9177   9185   9188     1  0.0000000  0.6694400  3
   9174   9173   9187   9191     1  0.0000000  0.6508444  3
   9174   9173   9187   9192     1  0.0000000  0.6508444  3
   9175   9173   9174   9177     1  0.0000000  0.6508444  3
   9175   9173   9174   9186     1  0.0000000  1.0460000  1
   9175   9173   9174   9186     1  0.0000000  0.0000000  3
   9175   9173   9174   9176     1  0.0000000  0.6508444  3
   9175   9173   9187   9193     1  0.0000000  1.0460000  1
   9175   9173   9187   9193     1  0.0000000  0.0000000  3
   9175   9173   9187   9191     1  0.0000000  0.6508444  3
   9175   9173   9187   9192     1  0.0000000  0.6508444  3
   9175   9173   9195   9179     1  0.0000000  1.6038667  3
   9176   9174   9177   9178     1  0.0000000  0.6508444  3
   9176   9174   9177   9185     1  0.0000000  1.0460000  1
   9176   9174   9177   9185     1  0.0000000  0.0000000  3
   9176   9174   9177   9181     1  0.0000000  0.6508444  3
   9176   9174   9186   9189     1  0.0000000  0.6973333  3
   9176   9174   9173   9187     1  0.0000000  0.6508444  3
   9176   9174   9173   9195     1  0.0000000  1.0460000  1
   9176   9174   9173   9195     1  0.0000000  0.0000000  3
   9177   9178   9179   9182     1  0.0000000  0.6508444  3
   9177   9178   9184   9190     1  0.0000000  1.0460000  1
   9177   9178   9184   9190     1  0.0000000  0.6694400  3
   9177   9174   9186   9189     1  0.0000000  1.0460000  1
   9177   9174   9186   9189     1  0.0000000  0.6694400  3
   9178   9177   9185   9188     1  0.0000000  1.0460000  1
   9178   9177   9185   9188     1  0.0000000  0.6694400  3
   9179   9178   9184   9190     1  0.0000000  1.0460000  1
   9179   9178   9184   9190     1  0.0000000  0.6694400  3
   9179   9178   9177   9181     1  0.0000000  0.6508444  3
   9180   9178   9179   9183     1  0.0000000  1.0460000  1
   9180   9178   9179   9183     1  0.0000000  0.0000000  3
   9180   9178   9179   9195     1  0.0000000  1.0460000  1
   9180   9178   9179   9195     1  0.0000000  0.0000000  3
   9180   9178   9179   9182     1  0.0000000  0.6508444  3
   9180   9178   9184   9190     1  0.0000000  0.6973333  3
   9180   9178   9177   9185     1  0.0000000  1.0460000  1
   9180   9178   9177   9185     1  0.0000000  0.0000000  3
   9180   9178   9177   9181     1  0.0000000  0.6508444  3
   9181   9177   9178   9184     1  0.0000000  1.0460000  1
   9181   9177   9178   9184     1  0.0000000  0.0000000  3
   9181   9177   9185   9188     1  0.0000000  0.6973333  3
   9181   9177   9174   9186     1  0.0000000  1.0460000  1
   9181   9177   9174   9186     1  0.0000000  0.0000000  3
   9182   9179   9178   9184     1  0.0000000  0.6508444  3
   9191   9187   9193   9194     1  0.0000000  0.6973333  3
   9191   9187   9173   9195     1  0.0000000  1.0460000  1
   9191   9187   9173   9195     1  0.0000000  0.0000000  3
   9192   9187   9193   9194     1  0.0000000  0.6973333  3
   9192   9187   9173   9195     1  0.0000000  1.0460000  1
   9192   9187   9173   9195     1  0.0000000  0.0000000  3
   9196   9197   9200   9204     1  0.0000000  0.6508444  3
   9196   9197   9209   9212     1  0.0000000  1.0460000  1
   9196   9197   9209   9212     1  0.0000000  0.6694400  3
   9196   9210   9216   9217     1  0.0000000  1.0460000  1
   9196   9210   9216   9217     1  0.0000000  0.6694400  3
   9196   9218   9202   9205     1  0.0000000  1.6038667  3
   9197   9196   9210   9214     1  0.0000000  0.6508444  3
   9197   9196   9210   9215     1  0.0000000  0.6508444  3
   9197   9200   9201   9203     1  0.0000000  0.6508444  3
   9197   9200   9208   9211     1  0.0000000  1.0460000  1
   9197   9200   9208   9211     1  0.0000000  0.6694400  3
   9198   9196   9197   9200     1  0.0000000  0.6508444  3
   9198   9196   9197   9209     1  0.0000000  1.0460000  1
   9198   9196   9197   9209     1  0.0000000  0.0000000  3
   9198   9196   9197   9199     1  0.0000000  0.6508444  3
   9198   9196   9210   9216     1  0.0000000  1.0460000  1
   9198   9196   9210   9216     1  0.0000000  0.0000000  3
   9198   9196   9210   9214     1  0.0000000  0.6508444  3
   9198   9196   9210   9215     1  0.0000000  0.6508444  3
   9198   9196   9218   9202     1  0.0000000  1.6038667  3
   9199   9197   9196   9210     1  0.0000000  0.6508444  3
   9199   9197   9196   9218     1  0.0000000  1.0460000  1
   9199   9197   9196   9218     1  0.0000000  0.0000000  3
   9199   9197   9200   9201     1  0.0000000  0.6508444  3
   9199   9197   9200   9208     1  0.0000000  1.0460000  1
   9199   9197   9200   9208     1  0.0000000  0.0000000  3
   9199   9197   9200   9204     1  0.0000000  0.6508444  3
   9199   9197   9209   9212     1  0.0000000  0.6973333  3
   9200   9197   9209   9212     1  0.0000000  1.0460000  1
   9200   9197   9209   9212     1  0.0000000  0.6694400  3
   9200   9201   9202   9205     1  0.0000000  0.6508444  3
   9200   9201   9207   9213     1  0.0000000  1.0460000  1
   9200   9201   9207   9213     1  0.0000000  0.6694400  3
   9201   9200   9208   9211     1  0.0000000  1.0460000  1
   9201   9200   9208   9211     1  0.0000000  0.6694400  3
   9202   9201   9200   9204     1  0.0000000  0.6508444  3
   9202   9201   9207   9213     1  0.0000000  1.0460000  1
   9202   9201   9207   9213     1  0.0000000  0.6694400  3
   9203   9201   9200   9208     1  0.0000000  1.0460000  1
   9203   9201   9200   9208     1  0.0000000  0.0000000  3
   9203   9201   9200   9204     1  0.0000000  0.6508444  3
   9203   9201   9202   9206     1  0.0000000  1.0460000  1
   9203   9201   9202   9206     1  0.0000000  0.0000000  3
   9203   9201   9202   9218     1  0.0000000  1.0460000  1
   9203   9201   9202   9218     1  0.0000000  0.0000000  3
   9203   9201   9202   9205     1  0.0000000  0.6508444  3
   9203   9201   9207   9213     1  0.0000000  0.6973333  3
   9204   9200   9197   9209     1  0.0000000  1.0460000  1
   9204   9200   9197   9209     1  0.0000000  0.0000000  3
   9204   9200   9201   9207     1  0.0000000  1.0460000  1
   9204   9200   9201   9207     1  0.0000000  0.0000000  3
   9204   9200   9208   9211     1  0.0000000  0.6973333  3
   9205   9202   9201   9207     1  0.0000000  0.6508444  3
   9214   9210   9196   9218     1  0.0000000  1.0460000  1
   9214   9210   9196   9218     1  0.0000000  0.0000000  3
   9214   9210   9216   9217     1  0.0000000  0.6973333  3
   9215   9210   9196   9218     1  0.0000000  1.0460000  1
   9215   9210   9196   9218     1  0.0000000  0.0000000  3
   9215   9210   9216   9217     1  0.0000000  0.6973333  3
   9219   9220   9223   9227     1  0.0000000  0.6508444  3
   9219   9220   9232   9235     1  0.0000000  1.0460000  1
   9219   9220   9232   9235     1  0.0000000  0.6694400  3
   9219   9233   9239   9240     1  0.0000000  1.0460000  1
   9219   9233   9239   9240     1  0.0000000  0.6694400  3
   9219   9241   9225   9228     1  0.0000000  1.6038667  3
   9220   9223   9224   9226     1  0.0000000  0.6508444  3
   9220   9223   9231   9234     1  0.0000000  1.0460000  1
   9220   9223   9231   9234     1  0.0000000  0.6694400  3
   9220   9219   9233   9237     1  0.0000000  0.6508444  3
   9220   9219   9233   9238     1  0.0000000  0.6508444  3
   9221   9219   9220   9223     1  0.0000000  0.6508444  3
   9221   9219   9220   9232     1  0.0000000  1.0460000  1
   9221   9219   9220   9232     1  0.0000000  0.0000000  3
   9221   9219   9220   9222     1  0.0000000  0.6508444  3
   9221   9219   9233   9239     1  0.0000000  1.0460000  1
   9221   9219   9233   9239     1  0.0000000  0.0000000  3
   9221   9219   9233   9237     1  0.0000000  0.6508444  3
   9221   9219   9233   9238     1  0.0000000  0.6508444  3
   9221   9219   9241   9225     1  0.0000000  1.6038667  3
   9222   9220   9223   9224     1  0.0000000  0.6508444  3
   9222   9220   9223   9231     1  0.0000000  1.0460000  1
   9222   9220   9223   9231     1  0.0000000  0.0000000  3
   9222   9220   9223   9227     1  0.0000000  0.6508444  3
   9222   9220   9232   9235     1  0.0000000  0.6973333  3
   9222   9220   9219   9233     1  0.0000000  0.6508444  3
   9222   9220   9219   9241     1  0.0000000  1.0460000  1
   9222   9220   9219   9241     1  0.0000000  0.0000000  3
   9223   9224   9225   9228     1  0.0000000  0.6508444  3
   9223   9224   9230   9236     1  0.0000000  1.0460000  1
   9223   9224   9230   9236     1  0.0000000  0.6694400  3
   9223   9220   9232   9235     1  0.0000000  1.0460000  1
   9223   9220   9232   9235     1  0.0000000  0.6694400  3
   9224   9223   9231   9234     1  0.0000000  1.0460000  1
   9224   9223   9231   9234     1  0.0000000  0.6694400  3
   9225   9224   9230   9236     1  0.0000000  1.0460000  1
   9225   9224   9230   9236     1  0.0000000  0.6694400  3
   9225   9224   9223   9227     1  0.0000000  0.6508444  3
   9226   9224   9225   9229     1  0.0000000  1.0460000  1
   9226   9224   9225   9229     1  0.0000000  0.0000000  3
   9226   9224   9225   9241     1  0.0000000  1.0460000  1
   9226   9224   9225   9241     1  0.0000000  0.0000000  3
   9226   9224   9225   9228     1  0.0000000  0.6508444  3
   9226   9224   9230   9236     1  0.0000000  0.6973333  3
   9226   9224   9223   9231     1  0.0000000  1.0460000  1
   9226   9224   9223   9231     1  0.0000000  0.0000000  3
   9226   9224   9223   9227     1  0.0000000  0.6508444  3
   9227   9223   9224   9230     1  0.0000000  1.0460000  1
   9227   9223   9224   9230     1  0.0000000  0.0000000  3
   9227   9223   9231   9234     1  0.0000000  0.6973333  3
   9227   9223   9220   9232     1  0.0000000  1.0460000  1
   9227   9223   9220   9232     1  0.0000000  0.0000000  3
   9228   9225   9224   9230     1  0.0000000  0.6508444  3
   9237   9233   9239   9240     1  0.0000000  0.6973333  3
   9237   9233   9219   9241     1  0.0000000  1.0460000  1
   9237   9233   9219   9241     1  0.0000000  0.0000000  3
   9238   9233   9239   9240     1  0.0000000  0.6973333  3
   9238   9233   9219   9241     1  0.0000000  1.0460000  1
   9238   9233   9219   9241     1  0.0000000  0.0000000  3
   9242   9243   9246   9250     1  0.0000000  0.6508444  3
   9242   9243   9255   9258     1  0.0000000  1.0460000  1
   9242   9243   9255   9258     1  0.0000000  0.6694400  3
   9242   9256   9262   9263     1  0.0000000  1.0460000  1
   9242   9256   9262   9263     1  0.0000000  0.6694400  3
   9242   9264   9248   9251     1  0.0000000  1.6038667  3
   9243   9242   9256   9260     1  0.0000000  0.6508444  3
   9243   9242   9256   9261     1  0.0000000  0.6508444  3
   9243   9246   9247   9249     1  0.0000000  0.6508444  3
   9243   9246   9254   9257     1  0.0000000  1.0460000  1
   9243   9246   9254   9257     1  0.0000000  0.6694400  3
   9244   9242   9243   9246     1  0.0000000  0.6508444  3
   9244   9242   9243   9255     1  0.0000000  1.0460000  1
   9244   9242   9243   9255     1  0.0000000  0.0000000  3
   9244   9242   9243   9245     1  0.0000000  0.6508444  3
   9244   9242   9256   9262     1  0.0000000  1.0460000  1
   9244   9242   9256   9262     1  0.0000000  0.0000000  3
   9244   9242   9256   9260     1  0.0000000  0.6508444  3
   9244   9242   9256   9261     1  0.0000000  0.6508444  3
   9244   9242   9264   9248     1  0.0000000  1.6038667  3
   9245   9243   9242   9256     1  0.0000000  0.6508444  3
   9245   9243   9242   9264     1  0.0000000  1.0460000  1
   9245   9243   9242   9264     1  0.0000000  0.0000000  3
   9245   9243   9246   9247     1  0.0000000  0.6508444  3
   9245   9243   9246   9254     1  0.0000000  1.0460000  1
   9245   9243   9246   9254     1  0.0000000  0.0000000  3
   9245   9243   9246   9250     1  0.0000000  0.6508444  3
   9245   9243   9255   9258     1  0.0000000  0.6973333  3
   9246   9243   9255   9258     1  0.0000000  1.0460000  1
   9246   9243   9255   9258     1  0.0000000  0.6694400  3
   9246   9247   9248   9251     1  0.0000000  0.6508444  3
   9246   9247   9253   9259     1  0.0000000  1.0460000  1
   9246   9247   9253   9259     1  0.0000000  0.6694400  3
   9247   9246   9254   9257     1  0.0000000  1.0460000  1
   9247   9246   9254   9257     1  0.0000000  0.6694400  3
   9248   9247   9246   9250     1  0.0000000  0.6508444  3
   9248   9247   9253   9259     1  0.0000000  1.0460000  1
   9248   9247   9253   9259     1  0.0000000  0.6694400  3
   9249   9247   9246   9254     1  0.0000000  1.0460000  1
   9249   9247   9246   9254     1  0.0000000  0.0000000  3
   9249   9247   9246   9250     1  0.0000000  0.6508444  3
   9249   9247   9248   9252     1  0.0000000  1.0460000  1
   9249   9247   9248   9252     1  0.0000000  0.0000000  3
   9249   9247   9248   9264     1  0.0000000  1.0460000  1
   9249   9247   9248   9264     1  0.0000000  0.0000000  3
   9249   9247   9248   9251     1  0.0000000  0.6508444  3
   9249   9247   9253   9259     1  0.0000000  0.6973333  3
   9250   9246   9243   9255     1  0.0000000  1.0460000  1
   9250   9246   9243   9255     1  0.0000000  0.0000000  3
   9250   9246   9247   9253     1  0.0000000  1.0460000  1
   9250   9246   9247   9253     1  0.0000000  0.0000000  3
   9250   9246   9254   9257     1  0.0000000  0.6973333  3
   9251   9248   9247   9253     1  0.0000000  0.6508444  3
   9260   9256   9242   9264     1  0.0000000  1.0460000  1
   9260   9256   9242   9264     1  0.0000000  0.0000000  3
   9260   9256   9262   9263     1  0.0000000  0.6973333  3
   9261   9256   9242   9264     1  0.0000000  1.0460000  1
   9261   9256   9242   9264     1  0.0000000  0.0000000  3
   9261   9256   9262   9263     1  0.0000000  0.6973333  3
   9265   9266   9269   9273     1  0.0000000  0.6508444  3
   9265   9266   9278   9281     1  0.0000000  1.0460000  1
   9265   9266   9278   9281     1  0.0000000  0.6694400  3
   9265   9279   9285   9286     1  0.0000000  1.0460000  1
   9265   9279   9285   9286     1  0.0000000  0.6694400  3
   9265   9287   9271   9274     1  0.0000000  1.6038667  3
   9266   9269   9270   9272     1  0.0000000  0.6508444  3
   9266   9269   9277   9280     1  0.0000000  1.0460000  1
   9266   9269   9277   9280     1  0.0000000  0.6694400  3
   9266   9265   9279   9283     1  0.0000000  0.6508444  3
   9266   9265   9279   9284     1  0.0000000  0.6508444  3
   9267   9265   9266   9269     1  0.0000000  0.6508444  3
   9267   9265   9266   9278     1  0.0000000  1.0460000  1
   9267   9265   9266   9278     1  0.0000000  0.0000000  3
   9267   9265   9266   9268     1  0.0000000  0.6508444  3
   9267   9265   9279   9285     1  0.0000000  1.0460000  1
   9267   9265   9279   9285     1  0.0000000  0.0000000  3
   9267   9265   9279   9283     1  0.0000000  0.6508444  3
   9267   9265   9279   9284     1  0.0000000  0.6508444  3
   9267   9265   9287   9271     1  0.0000000  1.6038667  3
   9268   9266   9269   9270     1  0.0000000  0.6508444  3
   9268   9266   9269   9277     1  0.0000000  1.0460000  1
   9268   9266   9269   9277     1  0.0000000  0.0000000  3
   9268   9266   9269   9273     1  0.0000000  0.6508444  3
   9268   9266   9278   9281     1  0.0000000  0.6973333  3
   9268   9266   9265   9279     1  0.0000000  0.6508444  3
   9268   9266   9265   9287     1  0.0000000  1.0460000  1
   9268   9266   9265   9287     1  0.0000000  0.0000000  3
   9269   9270   9271   9274     1  0.0000000  0.6508444  3
   9269   9270   9276   9282     1  0.0000000  1.0460000  1
   9269   9270   9276   9282     1  0.0000000  0.6694400  3
   9269   9266   9278   9281     1  0.0000000  1.0460000  1
   9269   9266   9278   9281     1  0.0000000  0.6694400  3
   9270   9269   9277   9280     1  0.0000000  1.0460000  1
   9270   9269   9277   9280     1  0.0000000  0.6694400  3
   9271   9270   9276   9282     1  0.0000000  1.0460000  1
   9271   9270   9276   9282     1  0.0000000  0.6694400  3
   9271   9270   9269   9273     1  0.0000000  0.6508444  3
   9272   9270   9271   9275     1  0.0000000  1.0460000  1
   9272   9270   9271   9275     1  0.0000000  0.0000000  3
   9272   9270   9271   9287     1  0.0000000  1.0460000  1
   9272   9270   9271   9287     1  0.0000000  0.0000000  3
   9272   9270   9271   9274     1  0.0000000  0.6508444  3
   9272   9270   9276   9282     1  0.0000000  0.6973333  3
   9272   9270   9269   9277     1  0.0000000  1.0460000  1
   9272   9270   9269   9277     1  0.0000000  0.0000000  3
   9272   9270   9269   9273     1  0.0000000  0.6508444  3
   9273   9269   9270   9276     1  0.0000000  1.0460000  1
   9273   9269   9270   9276     1  0.0000000  0.0000000  3
   9273   9269   9277   9280     1  0.0000000  0.6973333  3
   9273   9269   9266   9278     1  0.0000000  1.0460000  1
   9273   9269   9266   9278     1  0.0000000  0.0000000  3
   9274   9271   9270   9276     1  0.0000000  0.6508444  3
   9283   9279   9285   9286     1  0.0000000  0.6973333  3
   9283   9279   9265   9287     1  0.0000000  1.0460000  1
   9283   9279   9265   9287     1  0.0000000  0.0000000  3
   9284   9279   9285   9286     1  0.0000000  0.6973333  3
   9284   9279   9265   9287     1  0.0000000  1.0460000  1
   9284   9279   9265   9287     1  0.0000000  0.0000000  3
   9288   9289   9292   9296     1  0.0000000  0.6508444  3
   9288   9289   9301   9304     1  0.0000000  1.0460000  1
   9288   9289   9301   9304     1  0.0000000  0.6694400  3
   9288   9302   9308   9309     1  0.0000000  1.0460000  1
   9288   9302   9308   9309     1  0.0000000  0.6694400  3
   9288   9310   9294   9297     1  0.0000000  1.6038667  3
   9289   9288   9302   9306     1  0.0000000  0.6508444  3
   9289   9288   9302   9307     1  0.0000000  0.6508444  3
   9289   9292   9293   9295     1  0.0000000  0.6508444  3
   9289   9292   9300   9303     1  0.0000000  1.0460000  1
   9289   9292   9300   9303     1  0.0000000  0.6694400  3
   9290   9288   9289   9292     1  0.0000000  0.6508444  3
   9290   9288   9289   9301     1  0.0000000  1.0460000  1
   9290   9288   9289   9301     1  0.0000000  0.0000000  3
   9290   9288   9289   9291     1  0.0000000  0.6508444  3
   9290   9288   9302   9308     1  0.0000000  1.0460000  1
   9290   9288   9302   9308     1  0.0000000  0.0000000  3
   9290   9288   9302   9306     1  0.0000000  0.6508444  3
   9290   9288   9302   9307     1  0.0000000  0.6508444  3
   9290   9288   9310   9294     1  0.0000000  1.6038667  3
   9291   9289   9288   9302     1  0.0000000  0.6508444  3
   9291   9289   9288   9310     1  0.0000000  1.0460000  1
   9291   9289   9288   9310     1  0.0000000  0.0000000  3
   9291   9289   9292   9293     1  0.0000000  0.6508444  3
   9291   9289   9292   9300     1  0.0000000  1.0460000  1
   9291   9289   9292   9300     1  0.0000000  0.0000000  3
   9291   9289   9292   9296     1  0.0000000  0.6508444  3
   9291   9289   9301   9304     1  0.0000000  0.6973333  3
   9292   9289   9301   9304     1  0.0000000  1.0460000  1
   9292   9289   9301   9304     1  0.0000000  0.6694400  3
   9292   9293   9294   9297     1  0.0000000  0.6508444  3
   9292   9293   9299   9305     1  0.0000000  1.0460000  1
   9292   9293   9299   9305     1  0.0000000  0.6694400  3
   9293   9292   9300   9303     1  0.0000000  1.0460000  1
   9293   9292   9300   9303     1  0.0000000  0.6694400  3
   9294   9293   9292   9296     1  0.0000000  0.6508444  3
   9294   9293   9299   9305     1  0.0000000  1.0460000  1
   9294   9293   9299   9305     1  0.0000000  0.6694400  3
   9295   9293   9292   9300     1  0.0000000  1.0460000  1
   9295   9293   9292   9300     1  0.0000000  0.0000000  3
   9295   9293   9292   9296     1  0.0000000  0.6508444  3
   9295   9293   9294   9298     1  0.0000000  1.0460000  1
   9295   9293   9294   9298     1  0.0000000  0.0000000  3
   9295   9293   9294   9310     1  0.0000000  1.0460000  1
   9295   9293   9294   9310     1  0.0000000  0.0000000  3
   9295   9293   9294   9297     1  0.0000000  0.6508444  3
   9295   9293   9299   9305     1  0.0000000  0.6973333  3
   9296   9292   9289   9301     1  0.0000000  1.0460000  1
   9296   9292   9289   9301     1  0.0000000  0.0000000  3
   9296   9292   9293   9299     1  0.0000000  1.0460000  1
   9296   9292   9293   9299     1  0.0000000  0.0000000  3
   9296   9292   9300   9303     1  0.0000000  0.6973333  3
   9297   9294   9293   9299     1  0.0000000  0.6508444  3
   9306   9302   9288   9310     1  0.0000000  1.0460000  1
   9306   9302   9288   9310     1  0.0000000  0.0000000  3
   9306   9302   9308   9309     1  0.0000000  0.6973333  3
   9307   9302   9288   9310     1  0.0000000  1.0460000  1
   9307   9302   9288   9310     1  0.0000000  0.0000000  3
   9307   9302   9308   9309     1  0.0000000  0.6973333  3
   9311   9312   9315   9319     1  0.0000000  0.6508444  3
   9311   9312   9324   9327     1  0.0000000  1.0460000  1
   9311   9312   9324   9327     1  0.0000000  0.6694400  3
   9311   9325   9331   9332     1  0.0000000  1.0460000  1
   9311   9325   9331   9332     1  0.0000000  0.6694400  3
   9311   9333   9317   9320     1  0.0000000  1.6038667  3
   9312   9315   9316   9318     1  0.0000000  0.6508444  3
   9312   9315   9323   9326     1  0.0000000  1.0460000  1
   9312   9315   9323   9326     1  0.0000000  0.6694400  3
   9312   9311   9325   9329     1  0.0000000  0.6508444  3
   9312   9311   9325   9330     1  0.0000000  0.6508444  3
   9313   9311   9312   9315     1  0.0000000  0.6508444  3
   9313   9311   9312   9324     1  0.0000000  1.0460000  1
   9313   9311   9312   9324     1  0.0000000  0.0000000  3
   9313   9311   9312   9314     1  0.0000000  0.6508444  3
   9313   9311   9325   9331     1  0.0000000  1.0460000  1
   9313   9311   9325   9331     1  0.0000000  0.0000000  3
   9313   9311   9325   9329     1  0.0000000  0.6508444  3
   9313   9311   9325   9330     1  0.0000000  0.6508444  3
   9313   9311   9333   9317     1  0.0000000  1.6038667  3
   9314   9312   9315   9316     1  0.0000000  0.6508444  3
   9314   9312   9315   9323     1  0.0000000  1.0460000  1
   9314   9312   9315   9323     1  0.0000000  0.0000000  3
   9314   9312   9315   9319     1  0.0000000  0.6508444  3
   9314   9312   9324   9327     1  0.0000000  0.6973333  3
   9314   9312   9311   9325     1  0.0000000  0.6508444  3
   9314   9312   9311   9333     1  0.0000000  1.0460000  1
   9314   9312   9311   9333     1  0.0000000  0.0000000  3
   9315   9316   9317   9320     1  0.0000000  0.6508444  3
   9315   9316   9322   9328     1  0.0000000  1.0460000  1
   9315   9316   9322   9328     1  0.0000000  0.6694400  3
   9315   9312   9324   9327     1  0.0000000  1.0460000  1
   9315   9312   9324   9327     1  0.0000000  0.6694400  3
   9316   9315   9323   9326     1  0.0000000  1.0460000  1
   9316   9315   9323   9326     1  0.0000000  0.6694400  3
   9317   9316   9322   9328     1  0.0000000  1.0460000  1
   9317   9316   9322   9328     1  0.0000000  0.6694400  3
   9317   9316   9315   9319     1  0.0000000  0.6508444  3
   9318   9316   9317   9321     1  0.0000000  1.0460000  1
   9318   9316   9317   9321     1  0.0000000  0.0000000  3
   9318   9316   9317   9333     1  0.0000000  1.0460000  1
   9318   9316   9317   9333     1  0.0000000  0.0000000  3
   9318   9316   9317   9320     1  0.0000000  0.6508444  3
   9318   9316   9322   9328     1  0.0000000  0.6973333  3
   9318   9316   9315   9323     1  0.0000000  1.0460000  1
   9318   9316   9315   9323     1  0.0000000  0.0000000  3
   9318   9316   9315   9319     1  0.0000000  0.6508444  3
   9319   9315   9316   9322     1  0.0000000  1.0460000  1
   9319   9315   9316   9322     1  0.0000000  0.0000000  3
   9319   9315   9323   9326     1  0.0000000  0.6973333  3
   9319   9315   9312   9324     1  0.0000000  1.0460000  1
   9319   9315   9312   9324     1  0.0000000  0.0000000  3
   9320   9317   9316   9322     1  0.0000000  0.6508444  3
   9329   9325   9331   9332     1  0.0000000  0.6973333  3
   9329   9325   9311   9333     1  0.0000000  1.0460000  1
   9329   9325   9311   9333     1  0.0000000  0.0000000  3
   9330   9325   9331   9332     1  0.0000000  0.6973333  3
   9330   9325   9311   9333     1  0.0000000  1.0460000  1
   9330   9325   9311   9333     1  0.0000000  0.0000000  3
   9334   9335   9338   9342     1  0.0000000  0.6508444  3
   9334   9335   9347   9350     1  0.0000000  1.0460000  1
   9334   9335   9347   9350     1  0.0000000  0.6694400  3
   9334   9348   9354   9355     1  0.0000000  1.0460000  1
   9334   9348   9354   9355     1  0.0000000  0.6694400  3
   9334   9356   9340   9343     1  0.0000000  1.6038667  3
   9335   9334   9348   9352     1  0.0000000  0.6508444  3
   9335   9334   9348   9353     1  0.0000000  0.6508444  3
   9335   9338   9339   9341     1  0.0000000  0.6508444  3
   9335   9338   9346   9349     1  0.0000000  1.0460000  1
   9335   9338   9346   9349     1  0.0000000  0.6694400  3
   9336   9334   9335   9338     1  0.0000000  0.6508444  3
   9336   9334   9335   9347     1  0.0000000  1.0460000  1
   9336   9334   9335   9347     1  0.0000000  0.0000000  3
   9336   9334   9335   9337     1  0.0000000  0.6508444  3
   9336   9334   9348   9354     1  0.0000000  1.0460000  1
   9336   9334   9348   9354     1  0.0000000  0.0000000  3
   9336   9334   9348   9352     1  0.0000000  0.6508444  3
   9336   9334   9348   9353     1  0.0000000  0.6508444  3
   9336   9334   9356   9340     1  0.0000000  1.6038667  3
   9337   9335   9334   9348     1  0.0000000  0.6508444  3
   9337   9335   9334   9356     1  0.0000000  1.0460000  1
   9337   9335   9334   9356     1  0.0000000  0.0000000  3
   9337   9335   9338   9339     1  0.0000000  0.6508444  3
   9337   9335   9338   9346     1  0.0000000  1.0460000  1
   9337   9335   9338   9346     1  0.0000000  0.0000000  3
   9337   9335   9338   9342     1  0.0000000  0.6508444  3
   9337   9335   9347   9350     1  0.0000000  0.6973333  3
   9338   9335   9347   9350     1  0.0000000  1.0460000  1
   9338   9335   9347   9350     1  0.0000000  0.6694400  3
   9338   9339   9340   9343     1  0.0000000  0.6508444  3
   9338   9339   9345   9351     1  0.0000000  1.0460000  1
   9338   9339   9345   9351     1  0.0000000  0.6694400  3
   9339   9338   9346   9349     1  0.0000000  1.0460000  1
   9339   9338   9346   9349     1  0.0000000  0.6694400  3
   9340   9339   9338   9342     1  0.0000000  0.6508444  3
   9340   9339   9345   9351     1  0.0000000  1.0460000  1
   9340   9339   9345   9351     1  0.0000000  0.6694400  3
   9341   9339   9338   9346     1  0.0000000  1.0460000  1
   9341   9339   9338   9346     1  0.0000000  0.0000000  3
   9341   9339   9338   9342     1  0.0000000  0.6508444  3
   9341   9339   9340   9344     1  0.0000000  1.0460000  1
   9341   9339   9340   9344     1  0.0000000  0.0000000  3
   9341   9339   9340   9356     1  0.0000000  1.0460000  1
   9341   9339   9340   9356     1  0.0000000  0.0000000  3
   9341   9339   9340   9343     1  0.0000000  0.6508444  3
   9341   9339   9345   9351     1  0.0000000  0.6973333  3
   9342   9338   9335   9347     1  0.0000000  1.0460000  1
   9342   9338   9335   9347     1  0.0000000  0.0000000  3
   9342   9338   9339   9345     1  0.0000000  1.0460000  1
   9342   9338   9339   9345     1  0.0000000  0.0000000  3
   9342   9338   9346   9349     1  0.0000000  0.6973333  3
   9343   9340   9339   9345     1  0.0000000  0.6508444  3
   9352   9348   9334   9356     1  0.0000000  1.0460000  1
   9352   9348   9334   9356     1  0.0000000  0.0000000  3
   9352   9348   9354   9355     1  0.0000000  0.6973333  3
   9353   9348   9334   9356     1  0.0000000  1.0460000  1
   9353   9348   9334   9356     1  0.0000000  0.0000000  3
   9353   9348   9354   9355     1  0.0000000  0.6973333  3
   9357   9358   9361   9365     1  0.0000000  0.6508444  3
   9357   9358   9370   9373     1  0.0000000  1.0460000  1
   9357   9358   9370   9373     1  0.0000000  0.6694400  3
   9357   9371   9377   9378     1  0.0000000  1.0460000  1
   9357   9371   9377   9378     1  0.0000000  0.6694400  3
   9357   9379   9363   9366     1  0.0000000  1.6038667  3
   9358   9361   9362   9364     1  0.0000000  0.6508444  3
   9358   9361   9369   9372     1  0.0000000  1.0460000  1
   9358   9361   9369   9372     1  0.0000000  0.6694400  3
   9358   9357   9371   9375     1  0.0000000  0.6508444  3
   9358   9357   9371   9376     1  0.0000000  0.6508444  3
   9359   9357   9358   9361     1  0.0000000  0.6508444  3
   9359   9357   9358   9370     1  0.0000000  1.0460000  1
   9359   9357   9358   9370     1  0.0000000  0.0000000  3
   9359   9357   9358   9360     1  0.0000000  0.6508444  3
   9359   9357   9371   9377     1  0.0000000  1.0460000  1
   9359   9357   9371   9377     1  0.0000000  0.0000000  3
   9359   9357   9371   9375     1  0.0000000  0.6508444  3
   9359   9357   9371   9376     1  0.0000000  0.6508444  3
   9359   9357   9379   9363     1  0.0000000  1.6038667  3
   9360   9358   9361   9362     1  0.0000000  0.6508444  3
   9360   9358   9361   9369     1  0.0000000  1.0460000  1
   9360   9358   9361   9369     1  0.0000000  0.0000000  3
   9360   9358   9361   9365     1  0.0000000  0.6508444  3
   9360   9358   9370   9373     1  0.0000000  0.6973333  3
   9360   9358   9357   9371     1  0.0000000  0.6508444  3
   9360   9358   9357   9379     1  0.0000000  1.0460000  1
   9360   9358   9357   9379     1  0.0000000  0.0000000  3
   9361   9362   9363   9366     1  0.0000000  0.6508444  3
   9361   9362   9368   9374     1  0.0000000  1.0460000  1
   9361   9362   9368   9374     1  0.0000000  0.6694400  3
   9361   9358   9370   9373     1  0.0000000  1.0460000  1
   9361   9358   9370   9373     1  0.0000000  0.6694400  3
   9362   9361   9369   9372     1  0.0000000  1.0460000  1
   9362   9361   9369   9372     1  0.0000000  0.6694400  3
   9363   9362   9368   9374     1  0.0000000  1.0460000  1
   9363   9362   9368   9374     1  0.0000000  0.6694400  3
   9363   9362   9361   9365     1  0.0000000  0.6508444  3
   9364   9362   9363   9367     1  0.0000000  1.0460000  1
   9364   9362   9363   9367     1  0.0000000  0.0000000  3
   9364   9362   9363   9379     1  0.0000000  1.0460000  1
   9364   9362   9363   9379     1  0.0000000  0.0000000  3
   9364   9362   9363   9366     1  0.0000000  0.6508444  3
   9364   9362   9368   9374     1  0.0000000  0.6973333  3
   9364   9362   9361   9369     1  0.0000000  1.0460000  1
   9364   9362   9361   9369     1  0.0000000  0.0000000  3
   9364   9362   9361   9365     1  0.0000000  0.6508444  3
   9365   9361   9362   9368     1  0.0000000  1.0460000  1
   9365   9361   9362   9368     1  0.0000000  0.0000000  3
   9365   9361   9369   9372     1  0.0000000  0.6973333  3
   9365   9361   9358   9370     1  0.0000000  1.0460000  1
   9365   9361   9358   9370     1  0.0000000  0.0000000  3
   9366   9363   9362   9368     1  0.0000000  0.6508444  3
   9375   9371   9377   9378     1  0.0000000  0.6973333  3
   9375   9371   9357   9379     1  0.0000000  1.0460000  1
   9375   9371   9357   9379     1  0.0000000  0.0000000  3
   9376   9371   9377   9378     1  0.0000000  0.6973333  3
   9376   9371   9357   9379     1  0.0000000  1.0460000  1
   9376   9371   9357   9379     1  0.0000000  0.0000000  3
   9380   9381   9384   9388     1  0.0000000  0.6508444  3
   9380   9381   9393   9396     1  0.0000000  1.0460000  1
   9380   9381   9393   9396     1  0.0000000  0.6694400  3
   9380   9394   9400   9401     1  0.0000000  1.0460000  1
   9380   9394   9400   9401     1  0.0000000  0.6694400  3
   9380   9402   9386   9389     1  0.0000000  1.6038667  3
   9381   9380   9394   9398     1  0.0000000  0.6508444  3
   9381   9380   9394   9399     1  0.0000000  0.6508444  3
   9381   9384   9385   9387     1  0.0000000  0.6508444  3
   9381   9384   9392   9395     1  0.0000000  1.0460000  1
   9381   9384   9392   9395     1  0.0000000  0.6694400  3
   9382   9380   9381   9384     1  0.0000000  0.6508444  3
   9382   9380   9381   9393     1  0.0000000  1.0460000  1
   9382   9380   9381   9393     1  0.0000000  0.0000000  3
   9382   9380   9381   9383     1  0.0000000  0.6508444  3
   9382   9380   9394   9400     1  0.0000000  1.0460000  1
   9382   9380   9394   9400     1  0.0000000  0.0000000  3
   9382   9380   9394   9398     1  0.0000000  0.6508444  3
   9382   9380   9394   9399     1  0.0000000  0.6508444  3
   9382   9380   9402   9386     1  0.0000000  1.6038667  3
   9383   9381   9380   9394     1  0.0000000  0.6508444  3
   9383   9381   9380   9402     1  0.0000000  1.0460000  1
   9383   9381   9380   9402     1  0.0000000  0.0000000  3
   9383   9381   9384   9385     1  0.0000000  0.6508444  3
   9383   9381   9384   9392     1  0.0000000  1.0460000  1
   9383   9381   9384   9392     1  0.0000000  0.0000000  3
   9383   9381   9384   9388     1  0.0000000  0.6508444  3
   9383   9381   9393   9396     1  0.0000000  0.6973333  3
   9384   9381   9393   9396     1  0.0000000  1.0460000  1
   9384   9381   9393   9396     1  0.0000000  0.6694400  3
   9384   9385   9386   9389     1  0.0000000  0.6508444  3
   9384   9385   9391   9397     1  0.0000000  1.0460000  1
   9384   9385   9391   9397     1  0.0000000  0.6694400  3
   9385   9384   9392   9395     1  0.0000000  1.0460000  1
   9385   9384   9392   9395     1  0.0000000  0.6694400  3
   9386   9385   9384   9388     1  0.0000000  0.6508444  3
   9386   9385   9391   9397     1  0.0000000  1.0460000  1
   9386   9385   9391   9397     1  0.0000000  0.6694400  3
   9387   9385   9384   9392     1  0.0000000  1.0460000  1
   9387   9385   9384   9392     1  0.0000000  0.0000000  3
   9387   9385   9384   9388     1  0.0000000  0.6508444  3
   9387   9385   9386   9390     1  0.0000000  1.0460000  1
   9387   9385   9386   9390     1  0.0000000  0.0000000  3
   9387   9385   9386   9402     1  0.0000000  1.0460000  1
   9387   9385   9386   9402     1  0.0000000  0.0000000  3
   9387   9385   9386   9389     1  0.0000000  0.6508444  3
   9387   9385   9391   9397     1  0.0000000  0.6973333  3
   9388   9384   9381   9393     1  0.0000000  1.0460000  1
   9388   9384   9381   9393     1  0.0000000  0.0000000  3
   9388   9384   9385   9391     1  0.0000000  1.0460000  1
   9388   9384   9385   9391     1  0.0000000  0.0000000  3
   9388   9384   9392   9395     1  0.0000000  0.6973333  3
   9389   9386   9385   9391     1  0.0000000  0.6508444  3
   9398   9394   9380   9402     1  0.0000000  1.0460000  1
   9398   9394   9380   9402     1  0.0000000  0.0000000  3
   9398   9394   9400   9401     1  0.0000000  0.6973333  3
   9399   9394   9380   9402     1  0.0000000  1.0460000  1
   9399   9394   9380   9402     1  0.0000000  0.0000000  3
   9399   9394   9400   9401     1  0.0000000  0.6973333  3
   9403   9404   9407   9411     1  0.0000000  0.6508444  3
   9403   9404   9416   9419     1  0.0000000  1.0460000  1
   9403   9404   9416   9419     1  0.0000000  0.6694400  3
   9403   9417   9423   9424     1  0.0000000  1.0460000  1
   9403   9417   9423   9424     1  0.0000000  0.6694400  3
   9403   9425   9409   9412     1  0.0000000  1.6038667  3
   9404   9407   9408   9410     1  0.0000000  0.6508444  3
   9404   9407   9415   9418     1  0.0000000  1.0460000  1
   9404   9407   9415   9418     1  0.0000000  0.6694400  3
   9404   9403   9417   9421     1  0.0000000  0.6508444  3
   9404   9403   9417   9422     1  0.0000000  0.6508444  3
   9405   9403   9404   9407     1  0.0000000  0.6508444  3
   9405   9403   9404   9416     1  0.0000000  1.0460000  1
   9405   9403   9404   9416     1  0.0000000  0.0000000  3
   9405   9403   9404   9406     1  0.0000000  0.6508444  3
   9405   9403   9417   9423     1  0.0000000  1.0460000  1
   9405   9403   9417   9423     1  0.0000000  0.0000000  3
   9405   9403   9417   9421     1  0.0000000  0.6508444  3
   9405   9403   9417   9422     1  0.0000000  0.6508444  3
   9405   9403   9425   9409     1  0.0000000  1.6038667  3
   9406   9404   9407   9408     1  0.0000000  0.6508444  3
   9406   9404   9407   9415     1  0.0000000  1.0460000  1
   9406   9404   9407   9415     1  0.0000000  0.0000000  3
   9406   9404   9407   9411     1  0.0000000  0.6508444  3
   9406   9404   9416   9419     1  0.0000000  0.6973333  3
   9406   9404   9403   9417     1  0.0000000  0.6508444  3
   9406   9404   9403   9425     1  0.0000000  1.0460000  1
   9406   9404   9403   9425     1  0.0000000  0.0000000  3
   9407   9408   9409   9412     1  0.0000000  0.6508444  3
   9407   9408   9414   9420     1  0.0000000  1.0460000  1
   9407   9408   9414   9420     1  0.0000000  0.6694400  3
   9407   9404   9416   9419     1  0.0000000  1.0460000  1
   9407   9404   9416   9419     1  0.0000000  0.6694400  3
   9408   9407   9415   9418     1  0.0000000  1.0460000  1
   9408   9407   9415   9418     1  0.0000000  0.6694400  3
   9409   9408   9414   9420     1  0.0000000  1.0460000  1
   9409   9408   9414   9420     1  0.0000000  0.6694400  3
   9409   9408   9407   9411     1  0.0000000  0.6508444  3
   9410   9408   9409   9413     1  0.0000000  1.0460000  1
   9410   9408   9409   9413     1  0.0000000  0.0000000  3
   9410   9408   9409   9425     1  0.0000000  1.0460000  1
   9410   9408   9409   9425     1  0.0000000  0.0000000  3
   9410   9408   9409   9412     1  0.0000000  0.6508444  3
   9410   9408   9414   9420     1  0.0000000  0.6973333  3
   9410   9408   9407   9415     1  0.0000000  1.0460000  1
   9410   9408   9407   9415     1  0.0000000  0.0000000  3
   9410   9408   9407   9411     1  0.0000000  0.6508444  3
   9411   9407   9408   9414     1  0.0000000  1.0460000  1
   9411   9407   9408   9414     1  0.0000000  0.0000000  3
   9411   9407   9415   9418     1  0.0000000  0.6973333  3
   9411   9407   9404   9416     1  0.0000000  1.0460000  1
   9411   9407   9404   9416     1  0.0000000  0.0000000  3
   9412   9409   9408   9414     1  0.0000000  0.6508444  3
   9421   9417   9423   9424     1  0.0000000  0.6973333  3
   9421   9417   9403   9425     1  0.0000000  1.0460000  1
   9421   9417   9403   9425     1  0.0000000  0.0000000  3
   9422   9417   9423   9424     1  0.0000000  0.6973333  3
   9422   9417   9403   9425     1  0.0000000  1.0460000  1
   9422   9417   9403   9425     1  0.0000000  0.0000000  3
   9426   9427   9430   9434     1  0.0000000  0.6508444  3
   9426   9427   9439   9442     1  0.0000000  1.0460000  1
   9426   9427   9439   9442     1  0.0000000  0.6694400  3
   9426   9440   9446   9447     1  0.0000000  1.0460000  1
   9426   9440   9446   9447     1  0.0000000  0.6694400  3
   9426   9448   9432   9435     1  0.0000000  1.6038667  3
   9427   9426   9440   9444     1  0.0000000  0.6508444  3
   9427   9426   9440   9445     1  0.0000000  0.6508444  3
   9427   9430   9431   9433     1  0.0000000  0.6508444  3
   9427   9430   9438   9441     1  0.0000000  1.0460000  1
   9427   9430   9438   9441     1  0.0000000  0.6694400  3
   9428   9426   9427   9430     1  0.0000000  0.6508444  3
   9428   9426   9427   9439     1  0.0000000  1.0460000  1
   9428   9426   9427   9439     1  0.0000000  0.0000000  3
   9428   9426   9427   9429     1  0.0000000  0.6508444  3
   9428   9426   9440   9446     1  0.0000000  1.0460000  1
   9428   9426   9440   9446     1  0.0000000  0.0000000  3
   9428   9426   9440   9444     1  0.0000000  0.6508444  3
   9428   9426   9440   9445     1  0.0000000  0.6508444  3
   9428   9426   9448   9432     1  0.0000000  1.6038667  3
   9429   9427   9426   9440     1  0.0000000  0.6508444  3
   9429   9427   9426   9448     1  0.0000000  1.0460000  1
   9429   9427   9426   9448     1  0.0000000  0.0000000  3
   9429   9427   9430   9431     1  0.0000000  0.6508444  3
   9429   9427   9430   9438     1  0.0000000  1.0460000  1
   9429   9427   9430   9438     1  0.0000000  0.0000000  3
   9429   9427   9430   9434     1  0.0000000  0.6508444  3
   9429   9427   9439   9442     1  0.0000000  0.6973333  3
   9430   9427   9439   9442     1  0.0000000  1.0460000  1
   9430   9427   9439   9442     1  0.0000000  0.6694400  3
   9430   9431   9432   9435     1  0.0000000  0.6508444  3
   9430   9431   9437   9443     1  0.0000000  1.0460000  1
   9430   9431   9437   9443     1  0.0000000  0.6694400  3
   9431   9430   9438   9441     1  0.0000000  1.0460000  1
   9431   9430   9438   9441     1  0.0000000  0.6694400  3
   9432   9431   9430   9434     1  0.0000000  0.6508444  3
   9432   9431   9437   9443     1  0.0000000  1.0460000  1
   9432   9431   9437   9443     1  0.0000000  0.6694400  3
   9433   9431   9430   9438     1  0.0000000  1.0460000  1
   9433   9431   9430   9438     1  0.0000000  0.0000000  3
   9433   9431   9430   9434     1  0.0000000  0.6508444  3
   9433   9431   9432   9436     1  0.0000000  1.0460000  1
   9433   9431   9432   9436     1  0.0000000  0.0000000  3
   9433   9431   9432   9448     1  0.0000000  1.0460000  1
   9433   9431   9432   9448     1  0.0000000  0.0000000  3
   9433   9431   9432   9435     1  0.0000000  0.6508444  3
   9433   9431   9437   9443     1  0.0000000  0.6973333  3
   9434   9430   9427   9439     1  0.0000000  1.0460000  1
   9434   9430   9427   9439     1  0.0000000  0.0000000  3
   9434   9430   9431   9437     1  0.0000000  1.0460000  1
   9434   9430   9431   9437     1  0.0000000  0.0000000  3
   9434   9430   9438   9441     1  0.0000000  0.6973333  3
   9435   9432   9431   9437     1  0.0000000  0.6508444  3
   9444   9440   9426   9448     1  0.0000000  1.0460000  1
   9444   9440   9426   9448     1  0.0000000  0.0000000  3
   9444   9440   9446   9447     1  0.0000000  0.6973333  3
   9445   9440   9426   9448     1  0.0000000  1.0460000  1
   9445   9440   9426   9448     1  0.0000000  0.0000000  3
   9445   9440   9446   9447     1  0.0000000  0.6973333  3
   9449   9450   9453   9457     1  0.0000000  0.6508444  3
   9449   9450   9462   9465     1  0.0000000  1.0460000  1
   9449   9450   9462   9465     1  0.0000000  0.6694400  3
   9449   9463   9469   9470     1  0.0000000  1.0460000  1
   9449   9463   9469   9470     1  0.0000000  0.6694400  3
   9449   9471   9455   9458     1  0.0000000  1.6038667  3
   9450   9453   9454   9456     1  0.0000000  0.6508444  3
   9450   9453   9461   9464     1  0.0000000  1.0460000  1
   9450   9453   9461   9464     1  0.0000000  0.6694400  3
   9450   9449   9463   9467     1  0.0000000  0.6508444  3
   9450   9449   9463   9468     1  0.0000000  0.6508444  3
   9451   9449   9450   9453     1  0.0000000  0.6508444  3
   9451   9449   9450   9462     1  0.0000000  1.0460000  1
   9451   9449   9450   9462     1  0.0000000  0.0000000  3
   9451   9449   9450   9452     1  0.0000000  0.6508444  3
   9451   9449   9463   9469     1  0.0000000  1.0460000  1
   9451   9449   9463   9469     1  0.0000000  0.0000000  3
   9451   9449   9463   9467     1  0.0000000  0.6508444  3
   9451   9449   9463   9468     1  0.0000000  0.6508444  3
   9451   9449   9471   9455     1  0.0000000  1.6038667  3
   9452   9450   9453   9454     1  0.0000000  0.6508444  3
   9452   9450   9453   9461     1  0.0000000  1.0460000  1
   9452   9450   9453   9461     1  0.0000000  0.0000000  3
   9452   9450   9453   9457     1  0.0000000  0.6508444  3
   9452   9450   9462   9465     1  0.0000000  0.6973333  3
   9452   9450   9449   9463     1  0.0000000  0.6508444  3
   9452   9450   9449   9471     1  0.0000000  1.0460000  1
   9452   9450   9449   9471     1  0.0000000  0.0000000  3
   9453   9454   9455   9458     1  0.0000000  0.6508444  3
   9453   9454   9460   9466     1  0.0000000  1.0460000  1
   9453   9454   9460   9466     1  0.0000000  0.6694400  3
   9453   9450   9462   9465     1  0.0000000  1.0460000  1
   9453   9450   9462   9465     1  0.0000000  0.6694400  3
   9454   9453   9461   9464     1  0.0000000  1.0460000  1
   9454   9453   9461   9464     1  0.0000000  0.6694400  3
   9455   9454   9460   9466     1  0.0000000  1.0460000  1
   9455   9454   9460   9466     1  0.0000000  0.6694400  3
   9455   9454   9453   9457     1  0.0000000  0.6508444  3
   9456   9454   9455   9459     1  0.0000000  1.0460000  1
   9456   9454   9455   9459     1  0.0000000  0.0000000  3
   9456   9454   9455   9471     1  0.0000000  1.0460000  1
   9456   9454   9455   9471     1  0.0000000  0.0000000  3
   9456   9454   9455   9458     1  0.0000000  0.6508444  3
   9456   9454   9460   9466     1  0.0000000  0.6973333  3
   9456   9454   9453   9461     1  0.0000000  1.0460000  1
   9456   9454   9453   9461     1  0.0000000  0.0000000  3
   9456   9454   9453   9457     1  0.0000000  0.6508444  3
   9457   9453   9454   9460     1  0.0000000  1.0460000  1
   9457   9453   9454   9460     1  0.0000000  0.0000000  3
   9457   9453   9461   9464     1  0.0000000  0.6973333  3
   9457   9453   9450   9462     1  0.0000000  1.0460000  1
   9457   9453   9450   9462     1  0.0000000  0.0000000  3
   9458   9455   9454   9460     1  0.0000000  0.6508444  3
   9467   9463   9469   9470     1  0.0000000  0.6973333  3
   9467   9463   9449   9471     1  0.0000000  1.0460000  1
   9467   9463   9449   9471     1  0.0000000  0.0000000  3
   9468   9463   9469   9470     1  0.0000000  0.6973333  3
   9468   9463   9449   9471     1  0.0000000  1.0460000  1
   9468   9463   9449   9471     1  0.0000000  0.0000000  3
   9472   9473   9476   9480     1  0.0000000  0.6508444  3
   9472   9473   9485   9488     1  0.0000000  1.0460000  1
   9472   9473   9485   9488     1  0.0000000  0.6694400  3
   9472   9486   9492   9493     1  0.0000000  1.0460000  1
   9472   9486   9492   9493     1  0.0000000  0.6694400  3
   9472   9494   9478   9481     1  0.0000000  1.6038667  3
   9473   9472   9486   9490     1  0.0000000  0.6508444  3
   9473   9472   9486   9491     1  0.0000000  0.6508444  3
   9473   9476   9477   9479     1  0.0000000  0.6508444  3
   9473   9476   9484   9487     1  0.0000000  1.0460000  1
   9473   9476   9484   9487     1  0.0000000  0.6694400  3
   9474   9472   9473   9476     1  0.0000000  0.6508444  3
   9474   9472   9473   9485     1  0.0000000  1.0460000  1
   9474   9472   9473   9485     1  0.0000000  0.0000000  3
   9474   9472   9473   9475     1  0.0000000  0.6508444  3
   9474   9472   9486   9492     1  0.0000000  1.0460000  1
   9474   9472   9486   9492     1  0.0000000  0.0000000  3
   9474   9472   9486   9490     1  0.0000000  0.6508444  3
   9474   9472   9486   9491     1  0.0000000  0.6508444  3
   9474   9472   9494   9478     1  0.0000000  1.6038667  3
   9475   9473   9472   9486     1  0.0000000  0.6508444  3
   9475   9473   9472   9494     1  0.0000000  1.0460000  1
   9475   9473   9472   9494     1  0.0000000  0.0000000  3
   9475   9473   9476   9477     1  0.0000000  0.6508444  3
   9475   9473   9476   9484     1  0.0000000  1.0460000  1
   9475   9473   9476   9484     1  0.0000000  0.0000000  3
   9475   9473   9476   9480     1  0.0000000  0.6508444  3
   9475   9473   9485   9488     1  0.0000000  0.6973333  3
   9476   9473   9485   9488     1  0.0000000  1.0460000  1
   9476   9473   9485   9488     1  0.0000000  0.6694400  3
   9476   9477   9478   9481     1  0.0000000  0.6508444  3
   9476   9477   9483   9489     1  0.0000000  1.0460000  1
   9476   9477   9483   9489     1  0.0000000  0.6694400  3
   9477   9476   9484   9487     1  0.0000000  1.0460000  1
   9477   9476   9484   9487     1  0.0000000  0.6694400  3
   9478   9477   9476   9480     1  0.0000000  0.6508444  3
   9478   9477   9483   9489     1  0.0000000  1.0460000  1
   9478   9477   9483   9489     1  0.0000000  0.6694400  3
   9479   9477   9476   9484     1  0.0000000  1.0460000  1
   9479   9477   9476   9484     1  0.0000000  0.0000000  3
   9479   9477   9476   9480     1  0.0000000  0.6508444  3
   9479   9477   9478   9482     1  0.0000000  1.0460000  1
   9479   9477   9478   9482     1  0.0000000  0.0000000  3
   9479   9477   9478   9494     1  0.0000000  1.0460000  1
   9479   9477   9478   9494     1  0.0000000  0.0000000  3
   9479   9477   9478   9481     1  0.0000000  0.6508444  3
   9479   9477   9483   9489     1  0.0000000  0.6973333  3
   9480   9476   9473   9485     1  0.0000000  1.0460000  1
   9480   9476   9473   9485     1  0.0000000  0.0000000  3
   9480   9476   9477   9483     1  0.0000000  1.0460000  1
   9480   9476   9477   9483     1  0.0000000  0.0000000  3
   9480   9476   9484   9487     1  0.0000000  0.6973333  3
   9481   9478   9477   9483     1  0.0000000  0.6508444  3
   9490   9486   9472   9494     1  0.0000000  1.0460000  1
   9490   9486   9472   9494     1  0.0000000  0.0000000  3
   9490   9486   9492   9493     1  0.0000000  0.6973333  3
   9491   9486   9472   9494     1  0.0000000  1.0460000  1
   9491   9486   9472   9494     1  0.0000000  0.0000000  3
   9491   9486   9492   9493     1  0.0000000  0.6973333  3
   9495   9496   9499   9503     1  0.0000000  0.6508444  3
   9495   9496   9508   9511     1  0.0000000  1.0460000  1
   9495   9496   9508   9511     1  0.0000000  0.6694400  3
   9495   9509   9515   9516     1  0.0000000  1.0460000  1
   9495   9509   9515   9516     1  0.0000000  0.6694400  3
   9495   9517   9501   9504     1  0.0000000  1.6038667  3
   9496   9499   9500   9502     1  0.0000000  0.6508444  3
   9496   9499   9507   9510     1  0.0000000  1.0460000  1
   9496   9499   9507   9510     1  0.0000000  0.6694400  3
   9496   9495   9509   9513     1  0.0000000  0.6508444  3
   9496   9495   9509   9514     1  0.0000000  0.6508444  3
   9497   9495   9496   9499     1  0.0000000  0.6508444  3
   9497   9495   9496   9508     1  0.0000000  1.0460000  1
   9497   9495   9496   9508     1  0.0000000  0.0000000  3
   9497   9495   9496   9498     1  0.0000000  0.6508444  3
   9497   9495   9509   9515     1  0.0000000  1.0460000  1
   9497   9495   9509   9515     1  0.0000000  0.0000000  3
   9497   9495   9509   9513     1  0.0000000  0.6508444  3
   9497   9495   9509   9514     1  0.0000000  0.6508444  3
   9497   9495   9517   9501     1  0.0000000  1.6038667  3
   9498   9496   9499   9500     1  0.0000000  0.6508444  3
   9498   9496   9499   9507     1  0.0000000  1.0460000  1
   9498   9496   9499   9507     1  0.0000000  0.0000000  3
   9498   9496   9499   9503     1  0.0000000  0.6508444  3
   9498   9496   9508   9511     1  0.0000000  0.6973333  3
   9498   9496   9495   9509     1  0.0000000  0.6508444  3
   9498   9496   9495   9517     1  0.0000000  1.0460000  1
   9498   9496   9495   9517     1  0.0000000  0.0000000  3
   9499   9500   9501   9504     1  0.0000000  0.6508444  3
   9499   9500   9506   9512     1  0.0000000  1.0460000  1
   9499   9500   9506   9512     1  0.0000000  0.6694400  3
   9499   9496   9508   9511     1  0.0000000  1.0460000  1
   9499   9496   9508   9511     1  0.0000000  0.6694400  3
   9500   9499   9507   9510     1  0.0000000  1.0460000  1
   9500   9499   9507   9510     1  0.0000000  0.6694400  3
   9501   9500   9506   9512     1  0.0000000  1.0460000  1
   9501   9500   9506   9512     1  0.0000000  0.6694400  3
   9501   9500   9499   9503     1  0.0000000  0.6508444  3
   9502   9500   9501   9505     1  0.0000000  1.0460000  1
   9502   9500   9501   9505     1  0.0000000  0.0000000  3
   9502   9500   9501   9517     1  0.0000000  1.0460000  1
   9502   9500   9501   9517     1  0.0000000  0.0000000  3
   9502   9500   9501   9504     1  0.0000000  0.6508444  3
   9502   9500   9506   9512     1  0.0000000  0.6973333  3
   9502   9500   9499   9507     1  0.0000000  1.0460000  1
   9502   9500   9499   9507     1  0.0000000  0.0000000  3
   9502   9500   9499   9503     1  0.0000000  0.6508444  3
   9503   9499   9500   9506     1  0.0000000  1.0460000  1
   9503   9499   9500   9506     1  0.0000000  0.0000000  3
   9503   9499   9507   9510     1  0.0000000  0.6973333  3
   9503   9499   9496   9508     1  0.0000000  1.0460000  1
   9503   9499   9496   9508     1  0.0000000  0.0000000  3
   9504   9501   9500   9506     1  0.0000000  0.6508444  3
   9513   9509   9515   9516     1  0.0000000  0.6973333  3
   9513   9509   9495   9517     1  0.0000000  1.0460000  1
   9513   9509   9495   9517     1  0.0000000  0.0000000  3
   9514   9509   9515   9516     1  0.0000000  0.6973333  3
   9514   9509   9495   9517     1  0.0000000  1.0460000  1
   9514   9509   9495   9517     1  0.0000000  0.0000000  3
   9518   9519   9522   9526     1  0.0000000  0.6508444  3
   9518   9519   9531   9534     1  0.0000000  1.0460000  1
   9518   9519   9531   9534     1  0.0000000  0.6694400  3
   9518   9532   9538   9539     1  0.0000000  1.0460000  1
   9518   9532   9538   9539     1  0.0000000  0.6694400  3
   9518   9540   9524   9527     1  0.0000000  1.6038667  3
   9519   9518   9532   9536     1  0.0000000  0.6508444  3
   9519   9518   9532   9537     1  0.0000000  0.6508444  3
   9519   9522   9523   9525     1  0.0000000  0.6508444  3
   9519   9522   9530   9533     1  0.0000000  1.0460000  1
   9519   9522   9530   9533     1  0.0000000  0.6694400  3
   9520   9518   9519   9522     1  0.0000000  0.6508444  3
   9520   9518   9519   9531     1  0.0000000  1.0460000  1
   9520   9518   9519   9531     1  0.0000000  0.0000000  3
   9520   9518   9519   9521     1  0.0000000  0.6508444  3
   9520   9518   9532   9538     1  0.0000000  1.0460000  1
   9520   9518   9532   9538     1  0.0000000  0.0000000  3
   9520   9518   9532   9536     1  0.0000000  0.6508444  3
   9520   9518   9532   9537     1  0.0000000  0.6508444  3
   9520   9518   9540   9524     1  0.0000000  1.6038667  3
   9521   9519   9518   9532     1  0.0000000  0.6508444  3
   9521   9519   9518   9540     1  0.0000000  1.0460000  1
   9521   9519   9518   9540     1  0.0000000  0.0000000  3
   9521   9519   9522   9523     1  0.0000000  0.6508444  3
   9521   9519   9522   9530     1  0.0000000  1.0460000  1
   9521   9519   9522   9530     1  0.0000000  0.0000000  3
   9521   9519   9522   9526     1  0.0000000  0.6508444  3
   9521   9519   9531   9534     1  0.0000000  0.6973333  3
   9522   9519   9531   9534     1  0.0000000  1.0460000  1
   9522   9519   9531   9534     1  0.0000000  0.6694400  3
   9522   9523   9524   9527     1  0.0000000  0.6508444  3
   9522   9523   9529   9535     1  0.0000000  1.0460000  1
   9522   9523   9529   9535     1  0.0000000  0.6694400  3
   9523   9522   9530   9533     1  0.0000000  1.0460000  1
   9523   9522   9530   9533     1  0.0000000  0.6694400  3
   9524   9523   9522   9526     1  0.0000000  0.6508444  3
   9524   9523   9529   9535     1  0.0000000  1.0460000  1
   9524   9523   9529   9535     1  0.0000000  0.6694400  3
   9525   9523   9522   9530     1  0.0000000  1.0460000  1
   9525   9523   9522   9530     1  0.0000000  0.0000000  3
   9525   9523   9522   9526     1  0.0000000  0.6508444  3
   9525   9523   9524   9528     1  0.0000000  1.0460000  1
   9525   9523   9524   9528     1  0.0000000  0.0000000  3
   9525   9523   9524   9540     1  0.0000000  1.0460000  1
   9525   9523   9524   9540     1  0.0000000  0.0000000  3
   9525   9523   9524   9527     1  0.0000000  0.6508444  3
   9525   9523   9529   9535     1  0.0000000  0.6973333  3
   9526   9522   9519   9531     1  0.0000000  1.0460000  1
   9526   9522   9519   9531     1  0.0000000  0.0000000  3
   9526   9522   9523   9529     1  0.0000000  1.0460000  1
   9526   9522   9523   9529     1  0.0000000  0.0000000  3
   9526   9522   9530   9533     1  0.0000000  0.6973333  3
   9527   9524   9523   9529     1  0.0000000  0.6508444  3
   9536   9532   9518   9540     1  0.0000000  1.0460000  1
   9536   9532   9518   9540     1  0.0000000  0.0000000  3
   9536   9532   9538   9539     1  0.0000000  0.6973333  3
   9537   9532   9518   9540     1  0.0000000  1.0460000  1
   9537   9532   9518   9540     1  0.0000000  0.0000000  3
   9537   9532   9538   9539     1  0.0000000  0.6973333  3
   9541   9542   9545   9549     1  0.0000000  0.6508444  3
   9541   9542   9554   9557     1  0.0000000  1.0460000  1
   9541   9542   9554   9557     1  0.0000000  0.6694400  3
   9541   9555   9561   9562     1  0.0000000  1.0460000  1
   9541   9555   9561   9562     1  0.0000000  0.6694400  3
   9541   9563   9547   9550     1  0.0000000  1.6038667  3
   9542   9545   9546   9548     1  0.0000000  0.6508444  3
   9542   9545   9553   9556     1  0.0000000  1.0460000  1
   9542   9545   9553   9556     1  0.0000000  0.6694400  3
   9542   9541   9555   9559     1  0.0000000  0.6508444  3
   9542   9541   9555   9560     1  0.0000000  0.6508444  3
   9543   9541   9542   9545     1  0.0000000  0.6508444  3
   9543   9541   9542   9554     1  0.0000000  1.0460000  1
   9543   9541   9542   9554     1  0.0000000  0.0000000  3
   9543   9541   9542   9544     1  0.0000000  0.6508444  3
   9543   9541   9555   9561     1  0.0000000  1.0460000  1
   9543   9541   9555   9561     1  0.0000000  0.0000000  3
   9543   9541   9555   9559     1  0.0000000  0.6508444  3
   9543   9541   9555   9560     1  0.0000000  0.6508444  3
   9543   9541   9563   9547     1  0.0000000  1.6038667  3
   9544   9542   9545   9546     1  0.0000000  0.6508444  3
   9544   9542   9545   9553     1  0.0000000  1.0460000  1
   9544   9542   9545   9553     1  0.0000000  0.0000000  3
   9544   9542   9545   9549     1  0.0000000  0.6508444  3
   9544   9542   9554   9557     1  0.0000000  0.6973333  3
   9544   9542   9541   9555     1  0.0000000  0.6508444  3
   9544   9542   9541   9563     1  0.0000000  1.0460000  1
   9544   9542   9541   9563     1  0.0000000  0.0000000  3
   9545   9546   9547   9550     1  0.0000000  0.6508444  3
   9545   9546   9552   9558     1  0.0000000  1.0460000  1
   9545   9546   9552   9558     1  0.0000000  0.6694400  3
   9545   9542   9554   9557     1  0.0000000  1.0460000  1
   9545   9542   9554   9557     1  0.0000000  0.6694400  3
   9546   9545   9553   9556     1  0.0000000  1.0460000  1
   9546   9545   9553   9556     1  0.0000000  0.6694400  3
   9547   9546   9552   9558     1  0.0000000  1.0460000  1
   9547   9546   9552   9558     1  0.0000000  0.6694400  3
   9547   9546   9545   9549     1  0.0000000  0.6508444  3
   9548   9546   9547   9551     1  0.0000000  1.0460000  1
   9548   9546   9547   9551     1  0.0000000  0.0000000  3
   9548   9546   9547   9563     1  0.0000000  1.0460000  1
   9548   9546   9547   9563     1  0.0000000  0.0000000  3
   9548   9546   9547   9550     1  0.0000000  0.6508444  3
   9548   9546   9552   9558     1  0.0000000  0.6973333  3
   9548   9546   9545   9553     1  0.0000000  1.0460000  1
   9548   9546   9545   9553     1  0.0000000  0.0000000  3
   9548   9546   9545   9549     1  0.0000000  0.6508444  3
   9549   9545   9546   9552     1  0.0000000  1.0460000  1
   9549   9545   9546   9552     1  0.0000000  0.0000000  3
   9549   9545   9553   9556     1  0.0000000  0.6973333  3
   9549   9545   9542   9554     1  0.0000000  1.0460000  1
   9549   9545   9542   9554     1  0.0000000  0.0000000  3
   9550   9547   9546   9552     1  0.0000000  0.6508444  3
   9559   9555   9561   9562     1  0.0000000  0.6973333  3
   9559   9555   9541   9563     1  0.0000000  1.0460000  1
   9559   9555   9541   9563     1  0.0000000  0.0000000  3
   9560   9555   9561   9562     1  0.0000000  0.6973333  3
   9560   9555   9541   9563     1  0.0000000  1.0460000  1
   9560   9555   9541   9563     1  0.0000000  0.0000000  3
   9564   9565   9568   9572     1  0.0000000  0.6508444  3
   9564   9565   9577   9580     1  0.0000000  1.0460000  1
   9564   9565   9577   9580     1  0.0000000  0.6694400  3
   9564   9578   9584   9585     1  0.0000000  1.0460000  1
   9564   9578   9584   9585     1  0.0000000  0.6694400  3
   9564   9586   9570   9573     1  0.0000000  1.6038667  3
   9565   9564   9578   9582     1  0.0000000  0.6508444  3
   9565   9564   9578   9583     1  0.0000000  0.6508444  3
   9565   9568   9569   9571     1  0.0000000  0.6508444  3
   9565   9568   9576   9579     1  0.0000000  1.0460000  1
   9565   9568   9576   9579     1  0.0000000  0.6694400  3
   9566   9564   9565   9568     1  0.0000000  0.6508444  3
   9566   9564   9565   9577     1  0.0000000  1.0460000  1
   9566   9564   9565   9577     1  0.0000000  0.0000000  3
   9566   9564   9565   9567     1  0.0000000  0.6508444  3
   9566   9564   9578   9584     1  0.0000000  1.0460000  1
   9566   9564   9578   9584     1  0.0000000  0.0000000  3
   9566   9564   9578   9582     1  0.0000000  0.6508444  3
   9566   9564   9578   9583     1  0.0000000  0.6508444  3
   9566   9564   9586   9570     1  0.0000000  1.6038667  3
   9567   9565   9564   9578     1  0.0000000  0.6508444  3
   9567   9565   9564   9586     1  0.0000000  1.0460000  1
   9567   9565   9564   9586     1  0.0000000  0.0000000  3
   9567   9565   9568   9569     1  0.0000000  0.6508444  3
   9567   9565   9568   9576     1  0.0000000  1.0460000  1
   9567   9565   9568   9576     1  0.0000000  0.0000000  3
   9567   9565   9568   9572     1  0.0000000  0.6508444  3
   9567   9565   9577   9580     1  0.0000000  0.6973333  3
   9568   9565   9577   9580     1  0.0000000  1.0460000  1
   9568   9565   9577   9580     1  0.0000000  0.6694400  3
   9568   9569   9570   9573     1  0.0000000  0.6508444  3
   9568   9569   9575   9581     1  0.0000000  1.0460000  1
   9568   9569   9575   9581     1  0.0000000  0.6694400  3
   9569   9568   9576   9579     1  0.0000000  1.0460000  1
   9569   9568   9576   9579     1  0.0000000  0.6694400  3
   9570   9569   9568   9572     1  0.0000000  0.6508444  3
   9570   9569   9575   9581     1  0.0000000  1.0460000  1
   9570   9569   9575   9581     1  0.0000000  0.6694400  3
   9571   9569   9568   9576     1  0.0000000  1.0460000  1
   9571   9569   9568   9576     1  0.0000000  0.0000000  3
   9571   9569   9568   9572     1  0.0000000  0.6508444  3
   9571   9569   9570   9574     1  0.0000000  1.0460000  1
   9571   9569   9570   9574     1  0.0000000  0.0000000  3
   9571   9569   9570   9586     1  0.0000000  1.0460000  1
   9571   9569   9570   9586     1  0.0000000  0.0000000  3
   9571   9569   9570   9573     1  0.0000000  0.6508444  3
   9571   9569   9575   9581     1  0.0000000  0.6973333  3
   9572   9568   9565   9577     1  0.0000000  1.0460000  1
   9572   9568   9565   9577     1  0.0000000  0.0000000  3
   9572   9568   9569   9575     1  0.0000000  1.0460000  1
   9572   9568   9569   9575     1  0.0000000  0.0000000  3
   9572   9568   9576   9579     1  0.0000000  0.6973333  3
   9573   9570   9569   9575     1  0.0000000  0.6508444  3
   9582   9578   9564   9586     1  0.0000000  1.0460000  1
   9582   9578   9564   9586     1  0.0000000  0.0000000  3
   9582   9578   9584   9585     1  0.0000000  0.6973333  3
   9583   9578   9564   9586     1  0.0000000  1.0460000  1
   9583   9578   9564   9586     1  0.0000000  0.0000000  3
   9583   9578   9584   9585     1  0.0000000  0.6973333  3
   9587   9588   9591   9595     1  0.0000000  0.6508444  3
   9587   9588   9600   9603     1  0.0000000  1.0460000  1
   9587   9588   9600   9603     1  0.0000000  0.6694400  3
   9587   9601   9607   9608     1  0.0000000  1.0460000  1
   9587   9601   9607   9608     1  0.0000000  0.6694400  3
   9587   9609   9593   9596     1  0.0000000  1.6038667  3
   9588   9591   9592   9594     1  0.0000000  0.6508444  3
   9588   9591   9599   9602     1  0.0000000  1.0460000  1
   9588   9591   9599   9602     1  0.0000000  0.6694400  3
   9588   9587   9601   9605     1  0.0000000  0.6508444  3
   9588   9587   9601   9606     1  0.0000000  0.6508444  3
   9589   9587   9588   9591     1  0.0000000  0.6508444  3
   9589   9587   9588   9600     1  0.0000000  1.0460000  1
   9589   9587   9588   9600     1  0.0000000  0.0000000  3
   9589   9587   9588   9590     1  0.0000000  0.6508444  3
   9589   9587   9601   9607     1  0.0000000  1.0460000  1
   9589   9587   9601   9607     1  0.0000000  0.0000000  3
   9589   9587   9601   9605     1  0.0000000  0.6508444  3
   9589   9587   9601   9606     1  0.0000000  0.6508444  3
   9589   9587   9609   9593     1  0.0000000  1.6038667  3
   9590   9588   9591   9592     1  0.0000000  0.6508444  3
   9590   9588   9591   9599     1  0.0000000  1.0460000  1
   9590   9588   9591   9599     1  0.0000000  0.0000000  3
   9590   9588   9591   9595     1  0.0000000  0.6508444  3
   9590   9588   9600   9603     1  0.0000000  0.6973333  3
   9590   9588   9587   9601     1  0.0000000  0.6508444  3
   9590   9588   9587   9609     1  0.0000000  1.0460000  1
   9590   9588   9587   9609     1  0.0000000  0.0000000  3
   9591   9592   9593   9596     1  0.0000000  0.6508444  3
   9591   9592   9598   9604     1  0.0000000  1.0460000  1
   9591   9592   9598   9604     1  0.0000000  0.6694400  3
   9591   9588   9600   9603     1  0.0000000  1.0460000  1
   9591   9588   9600   9603     1  0.0000000  0.6694400  3
   9592   9591   9599   9602     1  0.0000000  1.0460000  1
   9592   9591   9599   9602     1  0.0000000  0.6694400  3
   9593   9592   9598   9604     1  0.0000000  1.0460000  1
   9593   9592   9598   9604     1  0.0000000  0.6694400  3
   9593   9592   9591   9595     1  0.0000000  0.6508444  3
   9594   9592   9593   9597     1  0.0000000  1.0460000  1
   9594   9592   9593   9597     1  0.0000000  0.0000000  3
   9594   9592   9593   9609     1  0.0000000  1.0460000  1
   9594   9592   9593   9609     1  0.0000000  0.0000000  3
   9594   9592   9593   9596     1  0.0000000  0.6508444  3
   9594   9592   9598   9604     1  0.0000000  0.6973333  3
   9594   9592   9591   9599     1  0.0000000  1.0460000  1
   9594   9592   9591   9599     1  0.0000000  0.0000000  3
   9594   9592   9591   9595     1  0.0000000  0.6508444  3
   9595   9591   9592   9598     1  0.0000000  1.0460000  1
   9595   9591   9592   9598     1  0.0000000  0.0000000  3
   9595   9591   9599   9602     1  0.0000000  0.6973333  3
   9595   9591   9588   9600     1  0.0000000  1.0460000  1
   9595   9591   9588   9600     1  0.0000000  0.0000000  3
   9596   9593   9592   9598     1  0.0000000  0.6508444  3
   9605   9601   9607   9608     1  0.0000000  0.6973333  3
   9605   9601   9587   9609     1  0.0000000  1.0460000  1
   9605   9601   9587   9609     1  0.0000000  0.0000000  3
   9606   9601   9607   9608     1  0.0000000  0.6973333  3
   9606   9601   9587   9609     1  0.0000000  1.0460000  1
   9606   9601   9587   9609     1  0.0000000  0.0000000  3
   9610   9611   9614   9618     1  0.0000000  0.6508444  3
   9610   9611   9623   9626     1  0.0000000  1.0460000  1
   9610   9611   9623   9626     1  0.0000000  0.6694400  3
   9610   9624   9630   9631     1  0.0000000  1.0460000  1
   9610   9624   9630   9631     1  0.0000000  0.6694400  3
   9610   9632   9616   9619     1  0.0000000  1.6038667  3
   9611   9610   9624   9628     1  0.0000000  0.6508444  3
   9611   9610   9624   9629     1  0.0000000  0.6508444  3
   9611   9614   9615   9617     1  0.0000000  0.6508444  3
   9611   9614   9622   9625     1  0.0000000  1.0460000  1
   9611   9614   9622   9625     1  0.0000000  0.6694400  3
   9612   9610   9611   9614     1  0.0000000  0.6508444  3
   9612   9610   9611   9623     1  0.0000000  1.0460000  1
   9612   9610   9611   9623     1  0.0000000  0.0000000  3
   9612   9610   9611   9613     1  0.0000000  0.6508444  3
   9612   9610   9624   9630     1  0.0000000  1.0460000  1
   9612   9610   9624   9630     1  0.0000000  0.0000000  3
   9612   9610   9624   9628     1  0.0000000  0.6508444  3
   9612   9610   9624   9629     1  0.0000000  0.6508444  3
   9612   9610   9632   9616     1  0.0000000  1.6038667  3
   9613   9611   9610   9624     1  0.0000000  0.6508444  3
   9613   9611   9610   9632     1  0.0000000  1.0460000  1
   9613   9611   9610   9632     1  0.0000000  0.0000000  3
   9613   9611   9614   9615     1  0.0000000  0.6508444  3
   9613   9611   9614   9622     1  0.0000000  1.0460000  1
   9613   9611   9614   9622     1  0.0000000  0.0000000  3
   9613   9611   9614   9618     1  0.0000000  0.6508444  3
   9613   9611   9623   9626     1  0.0000000  0.6973333  3
   9614   9611   9623   9626     1  0.0000000  1.0460000  1
   9614   9611   9623   9626     1  0.0000000  0.6694400  3
   9614   9615   9616   9619     1  0.0000000  0.6508444  3
   9614   9615   9621   9627     1  0.0000000  1.0460000  1
   9614   9615   9621   9627     1  0.0000000  0.6694400  3
   9615   9614   9622   9625     1  0.0000000  1.0460000  1
   9615   9614   9622   9625     1  0.0000000  0.6694400  3
   9616   9615   9614   9618     1  0.0000000  0.6508444  3
   9616   9615   9621   9627     1  0.0000000  1.0460000  1
   9616   9615   9621   9627     1  0.0000000  0.6694400  3
   9617   9615   9614   9622     1  0.0000000  1.0460000  1
   9617   9615   9614   9622     1  0.0000000  0.0000000  3
   9617   9615   9614   9618     1  0.0000000  0.6508444  3
   9617   9615   9616   9620     1  0.0000000  1.0460000  1
   9617   9615   9616   9620     1  0.0000000  0.0000000  3
   9617   9615   9616   9632     1  0.0000000  1.0460000  1
   9617   9615   9616   9632     1  0.0000000  0.0000000  3
   9617   9615   9616   9619     1  0.0000000  0.6508444  3
   9617   9615   9621   9627     1  0.0000000  0.6973333  3
   9618   9614   9611   9623     1  0.0000000  1.0460000  1
   9618   9614   9611   9623     1  0.0000000  0.0000000  3
   9618   9614   9615   9621     1  0.0000000  1.0460000  1
   9618   9614   9615   9621     1  0.0000000  0.0000000  3
   9618   9614   9622   9625     1  0.0000000  0.6973333  3
   9619   9616   9615   9621     1  0.0000000  0.6508444  3
   9628   9624   9610   9632     1  0.0000000  1.0460000  1
   9628   9624   9610   9632     1  0.0000000  0.0000000  3
   9628   9624   9630   9631     1  0.0000000  0.6973333  3
   9629   9624   9610   9632     1  0.0000000  1.0460000  1
   9629   9624   9610   9632     1  0.0000000  0.0000000  3
   9629   9624   9630   9631     1  0.0000000  0.6973333  3
   9633   9634   9637   9641     1  0.0000000  0.6508444  3
   9633   9634   9646   9649     1  0.0000000  1.0460000  1
   9633   9634   9646   9649     1  0.0000000  0.6694400  3
   9633   9647   9653   9654     1  0.0000000  1.0460000  1
   9633   9647   9653   9654     1  0.0000000  0.6694400  3
   9633   9655   9639   9642     1  0.0000000  1.6038667  3
   9634   9637   9638   9640     1  0.0000000  0.6508444  3
   9634   9637   9645   9648     1  0.0000000  1.0460000  1
   9634   9637   9645   9648     1  0.0000000  0.6694400  3
   9634   9633   9647   9651     1  0.0000000  0.6508444  3
   9634   9633   9647   9652     1  0.0000000  0.6508444  3
   9635   9633   9634   9637     1  0.0000000  0.6508444  3
   9635   9633   9634   9646     1  0.0000000  1.0460000  1
   9635   9633   9634   9646     1  0.0000000  0.0000000  3
   9635   9633   9634   9636     1  0.0000000  0.6508444  3
   9635   9633   9647   9653     1  0.0000000  1.0460000  1
   9635   9633   9647   9653     1  0.0000000  0.0000000  3
   9635   9633   9647   9651     1  0.0000000  0.6508444  3
   9635   9633   9647   9652     1  0.0000000  0.6508444  3
   9635   9633   9655   9639     1  0.0000000  1.6038667  3
   9636   9634   9637   9638     1  0.0000000  0.6508444  3
   9636   9634   9637   9645     1  0.0000000  1.0460000  1
   9636   9634   9637   9645     1  0.0000000  0.0000000  3
   9636   9634   9637   9641     1  0.0000000  0.6508444  3
   9636   9634   9646   9649     1  0.0000000  0.6973333  3
   9636   9634   9633   9647     1  0.0000000  0.6508444  3
   9636   9634   9633   9655     1  0.0000000  1.0460000  1
   9636   9634   9633   9655     1  0.0000000  0.0000000  3
   9637   9638   9639   9642     1  0.0000000  0.6508444  3
   9637   9638   9644   9650     1  0.0000000  1.0460000  1
   9637   9638   9644   9650     1  0.0000000  0.6694400  3
   9637   9634   9646   9649     1  0.0000000  1.0460000  1
   9637   9634   9646   9649     1  0.0000000  0.6694400  3
   9638   9637   9645   9648     1  0.0000000  1.0460000  1
   9638   9637   9645   9648     1  0.0000000  0.6694400  3
   9639   9638   9644   9650     1  0.0000000  1.0460000  1
   9639   9638   9644   9650     1  0.0000000  0.6694400  3
   9639   9638   9637   9641     1  0.0000000  0.6508444  3
   9640   9638   9639   9643     1  0.0000000  1.0460000  1
   9640   9638   9639   9643     1  0.0000000  0.0000000  3
   9640   9638   9639   9655     1  0.0000000  1.0460000  1
   9640   9638   9639   9655     1  0.0000000  0.0000000  3
   9640   9638   9639   9642     1  0.0000000  0.6508444  3
   9640   9638   9644   9650     1  0.0000000  0.6973333  3
   9640   9638   9637   9645     1  0.0000000  1.0460000  1
   9640   9638   9637   9645     1  0.0000000  0.0000000  3
   9640   9638   9637   9641     1  0.0000000  0.6508444  3
   9641   9637   9638   9644     1  0.0000000  1.0460000  1
   9641   9637   9638   9644     1  0.0000000  0.0000000  3
   9641   9637   9645   9648     1  0.0000000  0.6973333  3
   9641   9637   9634   9646     1  0.0000000  1.0460000  1
   9641   9637   9634   9646     1  0.0000000  0.0000000  3
   9642   9639   9638   9644     1  0.0000000  0.6508444  3
   9651   9647   9653   9654     1  0.0000000  0.6973333  3
   9651   9647   9633   9655     1  0.0000000  1.0460000  1
   9651   9647   9633   9655     1  0.0000000  0.0000000  3
   9652   9647   9653   9654     1  0.0000000  0.6973333  3
   9652   9647   9633   9655     1  0.0000000  1.0460000  1
   9652   9647   9633   9655     1  0.0000000  0.0000000  3
   9656   9657   9660   9664     1  0.0000000  0.6508444  3
   9656   9657   9669   9672     1  0.0000000  1.0460000  1
   9656   9657   9669   9672     1  0.0000000  0.6694400  3
   9656   9670   9676   9677     1  0.0000000  1.0460000  1
   9656   9670   9676   9677     1  0.0000000  0.6694400  3
   9656   9678   9662   9665     1  0.0000000  1.6038667  3
   9657   9656   9670   9674     1  0.0000000  0.6508444  3
   9657   9656   9670   9675     1  0.0000000  0.6508444  3
   9657   9660   9661   9663     1  0.0000000  0.6508444  3
   9657   9660   9668   9671     1  0.0000000  1.0460000  1
   9657   9660   9668   9671     1  0.0000000  0.6694400  3
   9658   9656   9657   9660     1  0.0000000  0.6508444  3
   9658   9656   9657   9669     1  0.0000000  1.0460000  1
   9658   9656   9657   9669     1  0.0000000  0.0000000  3
   9658   9656   9657   9659     1  0.0000000  0.6508444  3
   9658   9656   9670   9676     1  0.0000000  1.0460000  1
   9658   9656   9670   9676     1  0.0000000  0.0000000  3
   9658   9656   9670   9674     1  0.0000000  0.6508444  3
   9658   9656   9670   9675     1  0.0000000  0.6508444  3
   9658   9656   9678   9662     1  0.0000000  1.6038667  3
   9659   9657   9656   9670     1  0.0000000  0.6508444  3
   9659   9657   9656   9678     1  0.0000000  1.0460000  1
   9659   9657   9656   9678     1  0.0000000  0.0000000  3
   9659   9657   9660   9661     1  0.0000000  0.6508444  3
   9659   9657   9660   9668     1  0.0000000  1.0460000  1
   9659   9657   9660   9668     1  0.0000000  0.0000000  3
   9659   9657   9660   9664     1  0.0000000  0.6508444  3
   9659   9657   9669   9672     1  0.0000000  0.6973333  3
   9660   9657   9669   9672     1  0.0000000  1.0460000  1
   9660   9657   9669   9672     1  0.0000000  0.6694400  3
   9660   9661   9662   9665     1  0.0000000  0.6508444  3
   9660   9661   9667   9673     1  0.0000000  1.0460000  1
   9660   9661   9667   9673     1  0.0000000  0.6694400  3
   9661   9660   9668   9671     1  0.0000000  1.0460000  1
   9661   9660   9668   9671     1  0.0000000  0.6694400  3
   9662   9661   9660   9664     1  0.0000000  0.6508444  3
   9662   9661   9667   9673     1  0.0000000  1.0460000  1
   9662   9661   9667   9673     1  0.0000000  0.6694400  3
   9663   9661   9660   9668     1  0.0000000  1.0460000  1
   9663   9661   9660   9668     1  0.0000000  0.0000000  3
   9663   9661   9660   9664     1  0.0000000  0.6508444  3
   9663   9661   9662   9666     1  0.0000000  1.0460000  1
   9663   9661   9662   9666     1  0.0000000  0.0000000  3
   9663   9661   9662   9678     1  0.0000000  1.0460000  1
   9663   9661   9662   9678     1  0.0000000  0.0000000  3
   9663   9661   9662   9665     1  0.0000000  0.6508444  3
   9663   9661   9667   9673     1  0.0000000  0.6973333  3
   9664   9660   9657   9669     1  0.0000000  1.0460000  1
   9664   9660   9657   9669     1  0.0000000  0.0000000  3
   9664   9660   9661   9667     1  0.0000000  1.0460000  1
   9664   9660   9661   9667     1  0.0000000  0.0000000  3
   9664   9660   9668   9671     1  0.0000000  0.6973333  3
   9665   9662   9661   9667     1  0.0000000  0.6508444  3
   9674   9670   9656   9678     1  0.0000000  1.0460000  1
   9674   9670   9656   9678     1  0.0000000  0.0000000  3
   9674   9670   9676   9677     1  0.0000000  0.6973333  3
   9675   9670   9656   9678     1  0.0000000  1.0460000  1
   9675   9670   9656   9678     1  0.0000000  0.0000000  3
   9675   9670   9676   9677     1  0.0000000  0.6973333  3
   9679   9680   9683   9687     1  0.0000000  0.6508444  3
   9679   9680   9692   9695     1  0.0000000  1.0460000  1
   9679   9680   9692   9695     1  0.0000000  0.6694400  3
   9679   9693   9699   9700     1  0.0000000  1.0460000  1
   9679   9693   9699   9700     1  0.0000000  0.6694400  3
   9679   9701   9685   9688     1  0.0000000  1.6038667  3
   9680   9683   9684   9686     1  0.0000000  0.6508444  3
   9680   9683   9691   9694     1  0.0000000  1.0460000  1
   9680   9683   9691   9694     1  0.0000000  0.6694400  3
   9680   9679   9693   9697     1  0.0000000  0.6508444  3
   9680   9679   9693   9698     1  0.0000000  0.6508444  3
   9681   9679   9680   9683     1  0.0000000  0.6508444  3
   9681   9679   9680   9692     1  0.0000000  1.0460000  1
   9681   9679   9680   9692     1  0.0000000  0.0000000  3
   9681   9679   9680   9682     1  0.0000000  0.6508444  3
   9681   9679   9693   9699     1  0.0000000  1.0460000  1
   9681   9679   9693   9699     1  0.0000000  0.0000000  3
   9681   9679   9693   9697     1  0.0000000  0.6508444  3
   9681   9679   9693   9698     1  0.0000000  0.6508444  3
   9681   9679   9701   9685     1  0.0000000  1.6038667  3
   9682   9680   9683   9684     1  0.0000000  0.6508444  3
   9682   9680   9683   9691     1  0.0000000  1.0460000  1
   9682   9680   9683   9691     1  0.0000000  0.0000000  3
   9682   9680   9683   9687     1  0.0000000  0.6508444  3
   9682   9680   9692   9695     1  0.0000000  0.6973333  3
   9682   9680   9679   9693     1  0.0000000  0.6508444  3
   9682   9680   9679   9701     1  0.0000000  1.0460000  1
   9682   9680   9679   9701     1  0.0000000  0.0000000  3
   9683   9684   9685   9688     1  0.0000000  0.6508444  3
   9683   9684   9690   9696     1  0.0000000  1.0460000  1
   9683   9684   9690   9696     1  0.0000000  0.6694400  3
   9683   9680   9692   9695     1  0.0000000  1.0460000  1
   9683   9680   9692   9695     1  0.0000000  0.6694400  3
   9684   9683   9691   9694     1  0.0000000  1.0460000  1
   9684   9683   9691   9694     1  0.0000000  0.6694400  3
   9685   9684   9690   9696     1  0.0000000  1.0460000  1
   9685   9684   9690   9696     1  0.0000000  0.6694400  3
   9685   9684   9683   9687     1  0.0000000  0.6508444  3
   9686   9684   9685   9689     1  0.0000000  1.0460000  1
   9686   9684   9685   9689     1  0.0000000  0.0000000  3
   9686   9684   9685   9701     1  0.0000000  1.0460000  1
   9686   9684   9685   9701     1  0.0000000  0.0000000  3
   9686   9684   9685   9688     1  0.0000000  0.6508444  3
   9686   9684   9690   9696     1  0.0000000  0.6973333  3
   9686   9684   9683   9691     1  0.0000000  1.0460000  1
   9686   9684   9683   9691     1  0.0000000  0.0000000  3
   9686   9684   9683   9687     1  0.0000000  0.6508444  3
   9687   9683   9684   9690     1  0.0000000  1.0460000  1
   9687   9683   9684   9690     1  0.0000000  0.0000000  3
   9687   9683   9691   9694     1  0.0000000  0.6973333  3
   9687   9683   9680   9692     1  0.0000000  1.0460000  1
   9687   9683   9680   9692     1  0.0000000  0.0000000  3
   9688   9685   9684   9690     1  0.0000000  0.6508444  3
   9697   9693   9699   9700     1  0.0000000  0.6973333  3
   9697   9693   9679   9701     1  0.0000000  1.0460000  1
   9697   9693   9679   9701     1  0.0000000  0.0000000  3
   9698   9693   9699   9700     1  0.0000000  0.6973333  3
   9698   9693   9679   9701     1  0.0000000  1.0460000  1
   9698   9693   9679   9701     1  0.0000000  0.0000000  3
   9702   9703   9706   9710     1  0.0000000  0.6508444  3
   9702   9703   9715   9718     1  0.0000000  1.0460000  1
   9702   9703   9715   9718     1  0.0000000  0.6694400  3
   9702   9716   9722   9723     1  0.0000000  1.0460000  1
   9702   9716   9722   9723     1  0.0000000  0.6694400  3
   9702   9724   9708   9711     1  0.0000000  1.6038667  3
   9703   9702   9716   9720     1  0.0000000  0.6508444  3
   9703   9702   9716   9721     1  0.0000000  0.6508444  3
   9703   9706   9707   9709     1  0.0000000  0.6508444  3
   9703   9706   9714   9717     1  0.0000000  1.0460000  1
   9703   9706   9714   9717     1  0.0000000  0.6694400  3
   9704   9702   9703   9706     1  0.0000000  0.6508444  3
   9704   9702   9703   9715     1  0.0000000  1.0460000  1
   9704   9702   9703   9715     1  0.0000000  0.0000000  3
   9704   9702   9703   9705     1  0.0000000  0.6508444  3
   9704   9702   9716   9722     1  0.0000000  1.0460000  1
   9704   9702   9716   9722     1  0.0000000  0.0000000  3
   9704   9702   9716   9720     1  0.0000000  0.6508444  3
   9704   9702   9716   9721     1  0.0000000  0.6508444  3
   9704   9702   9724   9708     1  0.0000000  1.6038667  3
   9705   9703   9702   9716     1  0.0000000  0.6508444  3
   9705   9703   9702   9724     1  0.0000000  1.0460000  1
   9705   9703   9702   9724     1  0.0000000  0.0000000  3
   9705   9703   9706   9707     1  0.0000000  0.6508444  3
   9705   9703   9706   9714     1  0.0000000  1.0460000  1
   9705   9703   9706   9714     1  0.0000000  0.0000000  3
   9705   9703   9706   9710     1  0.0000000  0.6508444  3
   9705   9703   9715   9718     1  0.0000000  0.6973333  3
   9706   9703   9715   9718     1  0.0000000  1.0460000  1
   9706   9703   9715   9718     1  0.0000000  0.6694400  3
   9706   9707   9708   9711     1  0.0000000  0.6508444  3
   9706   9707   9713   9719     1  0.0000000  1.0460000  1
   9706   9707   9713   9719     1  0.0000000  0.6694400  3
   9707   9706   9714   9717     1  0.0000000  1.0460000  1
   9707   9706   9714   9717     1  0.0000000  0.6694400  3
   9708   9707   9706   9710     1  0.0000000  0.6508444  3
   9708   9707   9713   9719     1  0.0000000  1.0460000  1
   9708   9707   9713   9719     1  0.0000000  0.6694400  3
   9709   9707   9706   9714     1  0.0000000  1.0460000  1
   9709   9707   9706   9714     1  0.0000000  0.0000000  3
   9709   9707   9706   9710     1  0.0000000  0.6508444  3
   9709   9707   9708   9712     1  0.0000000  1.0460000  1
   9709   9707   9708   9712     1  0.0000000  0.0000000  3
   9709   9707   9708   9724     1  0.0000000  1.0460000  1
   9709   9707   9708   9724     1  0.0000000  0.0000000  3
   9709   9707   9708   9711     1  0.0000000  0.6508444  3
   9709   9707   9713   9719     1  0.0000000  0.6973333  3
   9710   9706   9703   9715     1  0.0000000  1.0460000  1
   9710   9706   9703   9715     1  0.0000000  0.0000000  3
   9710   9706   9707   9713     1  0.0000000  1.0460000  1
   9710   9706   9707   9713     1  0.0000000  0.0000000  3
   9710   9706   9714   9717     1  0.0000000  0.6973333  3
   9711   9708   9707   9713     1  0.0000000  0.6508444  3
   9720   9716   9702   9724     1  0.0000000  1.0460000  1
   9720   9716   9702   9724     1  0.0000000  0.0000000  3
   9720   9716   9722   9723     1  0.0000000  0.6973333  3
   9721   9716   9702   9724     1  0.0000000  1.0460000  1
   9721   9716   9702   9724     1  0.0000000  0.0000000  3
   9721   9716   9722   9723     1  0.0000000  0.6973333  3
   9725   9726   9729   9733     1  0.0000000  0.6508444  3
   9725   9726   9738   9741     1  0.0000000  1.0460000  1
   9725   9726   9738   9741     1  0.0000000  0.6694400  3
   9725   9739   9745   9746     1  0.0000000  1.0460000  1
   9725   9739   9745   9746     1  0.0000000  0.6694400  3
   9725   9747   9731   9734     1  0.0000000  1.6038667  3
   9726   9729   9730   9732     1  0.0000000  0.6508444  3
   9726   9729   9737   9740     1  0.0000000  1.0460000  1
   9726   9729   9737   9740     1  0.0000000  0.6694400  3
   9726   9725   9739   9743     1  0.0000000  0.6508444  3
   9726   9725   9739   9744     1  0.0000000  0.6508444  3
   9727   9725   9726   9729     1  0.0000000  0.6508444  3
   9727   9725   9726   9738     1  0.0000000  1.0460000  1
   9727   9725   9726   9738     1  0.0000000  0.0000000  3
   9727   9725   9726   9728     1  0.0000000  0.6508444  3
   9727   9725   9739   9745     1  0.0000000  1.0460000  1
   9727   9725   9739   9745     1  0.0000000  0.0000000  3
   9727   9725   9739   9743     1  0.0000000  0.6508444  3
   9727   9725   9739   9744     1  0.0000000  0.6508444  3
   9727   9725   9747   9731     1  0.0000000  1.6038667  3
   9728   9726   9729   9730     1  0.0000000  0.6508444  3
   9728   9726   9729   9737     1  0.0000000  1.0460000  1
   9728   9726   9729   9737     1  0.0000000  0.0000000  3
   9728   9726   9729   9733     1  0.0000000  0.6508444  3
   9728   9726   9738   9741     1  0.0000000  0.6973333  3
   9728   9726   9725   9739     1  0.0000000  0.6508444  3
   9728   9726   9725   9747     1  0.0000000  1.0460000  1
   9728   9726   9725   9747     1  0.0000000  0.0000000  3
   9729   9730   9731   9734     1  0.0000000  0.6508444  3
   9729   9730   9736   9742     1  0.0000000  1.0460000  1
   9729   9730   9736   9742     1  0.0000000  0.6694400  3
   9729   9726   9738   9741     1  0.0000000  1.0460000  1
   9729   9726   9738   9741     1  0.0000000  0.6694400  3
   9730   9729   9737   9740     1  0.0000000  1.0460000  1
   9730   9729   9737   9740     1  0.0000000  0.6694400  3
   9731   9730   9736   9742     1  0.0000000  1.0460000  1
   9731   9730   9736   9742     1  0.0000000  0.6694400  3
   9731   9730   9729   9733     1  0.0000000  0.6508444  3
   9732   9730   9731   9735     1  0.0000000  1.0460000  1
   9732   9730   9731   9735     1  0.0000000  0.0000000  3
   9732   9730   9731   9747     1  0.0000000  1.0460000  1
   9732   9730   9731   9747     1  0.0000000  0.0000000  3
   9732   9730   9731   9734     1  0.0000000  0.6508444  3
   9732   9730   9736   9742     1  0.0000000  0.6973333  3
   9732   9730   9729   9737     1  0.0000000  1.0460000  1
   9732   9730   9729   9737     1  0.0000000  0.0000000  3
   9732   9730   9729   9733     1  0.0000000  0.6508444  3
   9733   9729   9730   9736     1  0.0000000  1.0460000  1
   9733   9729   9730   9736     1  0.0000000  0.0000000  3
   9733   9729   9737   9740     1  0.0000000  0.6973333  3
   9733   9729   9726   9738     1  0.0000000  1.0460000  1
   9733   9729   9726   9738     1  0.0000000  0.0000000  3
   9734   9731   9730   9736     1  0.0000000  0.6508444  3
   9743   9739   9745   9746     1  0.0000000  0.6973333  3
   9743   9739   9725   9747     1  0.0000000  1.0460000  1
   9743   9739   9725   9747     1  0.0000000  0.0000000  3
   9744   9739   9745   9746     1  0.0000000  0.6973333  3
   9744   9739   9725   9747     1  0.0000000  1.0460000  1
   9744   9739   9725   9747     1  0.0000000  0.0000000  3
   9748   9749   9752   9756     1  0.0000000  0.6508444  3
   9748   9749   9761   9764     1  0.0000000  1.0460000  1
   9748   9749   9761   9764     1  0.0000000  0.6694400  3
   9748   9762   9768   9769     1  0.0000000  1.0460000  1
   9748   9762   9768   9769     1  0.0000000  0.6694400  3
   9748   9770   9754   9757     1  0.0000000  1.6038667  3
   9749   9748   9762   9766     1  0.0000000  0.6508444  3
   9749   9748   9762   9767     1  0.0000000  0.6508444  3
   9749   9752   9753   9755     1  0.0000000  0.6508444  3
   9749   9752   9760   9763     1  0.0000000  1.0460000  1
   9749   9752   9760   9763     1  0.0000000  0.6694400  3
   9750   9748   9749   9752     1  0.0000000  0.6508444  3
   9750   9748   9749   9761     1  0.0000000  1.0460000  1
   9750   9748   9749   9761     1  0.0000000  0.0000000  3
   9750   9748   9749   9751     1  0.0000000  0.6508444  3
   9750   9748   9762   9768     1  0.0000000  1.0460000  1
   9750   9748   9762   9768     1  0.0000000  0.0000000  3
   9750   9748   9762   9766     1  0.0000000  0.6508444  3
   9750   9748   9762   9767     1  0.0000000  0.6508444  3
   9750   9748   9770   9754     1  0.0000000  1.6038667  3
   9751   9749   9748   9762     1  0.0000000  0.6508444  3
   9751   9749   9748   9770     1  0.0000000  1.0460000  1
   9751   9749   9748   9770     1  0.0000000  0.0000000  3
   9751   9749   9752   9753     1  0.0000000  0.6508444  3
   9751   9749   9752   9760     1  0.0000000  1.0460000  1
   9751   9749   9752   9760     1  0.0000000  0.0000000  3
   9751   9749   9752   9756     1  0.0000000  0.6508444  3
   9751   9749   9761   9764     1  0.0000000  0.6973333  3
   9752   9749   9761   9764     1  0.0000000  1.0460000  1
   9752   9749   9761   9764     1  0.0000000  0.6694400  3
   9752   9753   9754   9757     1  0.0000000  0.6508444  3
   9752   9753   9759   9765     1  0.0000000  1.0460000  1
   9752   9753   9759   9765     1  0.0000000  0.6694400  3
   9753   9752   9760   9763     1  0.0000000  1.0460000  1
   9753   9752   9760   9763     1  0.0000000  0.6694400  3
   9754   9753   9752   9756     1  0.0000000  0.6508444  3
   9754   9753   9759   9765     1  0.0000000  1.0460000  1
   9754   9753   9759   9765     1  0.0000000  0.6694400  3
   9755   9753   9752   9760     1  0.0000000  1.0460000  1
   9755   9753   9752   9760     1  0.0000000  0.0000000  3
   9755   9753   9752   9756     1  0.0000000  0.6508444  3
   9755   9753   9754   9758     1  0.0000000  1.0460000  1
   9755   9753   9754   9758     1  0.0000000  0.0000000  3
   9755   9753   9754   9770     1  0.0000000  1.0460000  1
   9755   9753   9754   9770     1  0.0000000  0.0000000  3
   9755   9753   9754   9757     1  0.0000000  0.6508444  3
   9755   9753   9759   9765     1  0.0000000  0.6973333  3
   9756   9752   9749   9761     1  0.0000000  1.0460000  1
   9756   9752   9749   9761     1  0.0000000  0.0000000  3
   9756   9752   9753   9759     1  0.0000000  1.0460000  1
   9756   9752   9753   9759     1  0.0000000  0.0000000  3
   9756   9752   9760   9763     1  0.0000000  0.6973333  3
   9757   9754   9753   9759     1  0.0000000  0.6508444  3
   9766   9762   9748   9770     1  0.0000000  1.0460000  1
   9766   9762   9748   9770     1  0.0000000  0.0000000  3
   9766   9762   9768   9769     1  0.0000000  0.6973333  3
   9767   9762   9748   9770     1  0.0000000  1.0460000  1
   9767   9762   9748   9770     1  0.0000000  0.0000000  3
   9767   9762   9768   9769     1  0.0000000  0.6973333  3
   9771   9772   9775   9779     1  0.0000000  0.6508444  3
   9771   9772   9784   9787     1  0.0000000  1.0460000  1
   9771   9772   9784   9787     1  0.0000000  0.6694400  3
   9771   9785   9791   9792     1  0.0000000  1.0460000  1
   9771   9785   9791   9792     1  0.0000000  0.6694400  3
   9771   9793   9777   9780     1  0.0000000  1.6038667  3
   9772   9775   9776   9778     1  0.0000000  0.6508444  3
   9772   9775   9783   9786     1  0.0000000  1.0460000  1
   9772   9775   9783   9786     1  0.0000000  0.6694400  3
   9772   9771   9785   9789     1  0.0000000  0.6508444  3
   9772   9771   9785   9790     1  0.0000000  0.6508444  3
   9773   9771   9772   9775     1  0.0000000  0.6508444  3
   9773   9771   9772   9784     1  0.0000000  1.0460000  1
   9773   9771   9772   9784     1  0.0000000  0.0000000  3
   9773   9771   9772   9774     1  0.0000000  0.6508444  3
   9773   9771   9785   9791     1  0.0000000  1.0460000  1
   9773   9771   9785   9791     1  0.0000000  0.0000000  3
   9773   9771   9785   9789     1  0.0000000  0.6508444  3
   9773   9771   9785   9790     1  0.0000000  0.6508444  3
   9773   9771   9793   9777     1  0.0000000  1.6038667  3
   9774   9772   9775   9776     1  0.0000000  0.6508444  3
   9774   9772   9775   9783     1  0.0000000  1.0460000  1
   9774   9772   9775   9783     1  0.0000000  0.0000000  3
   9774   9772   9775   9779     1  0.0000000  0.6508444  3
   9774   9772   9784   9787     1  0.0000000  0.6973333  3
   9774   9772   9771   9785     1  0.0000000  0.6508444  3
   9774   9772   9771   9793     1  0.0000000  1.0460000  1
   9774   9772   9771   9793     1  0.0000000  0.0000000  3
   9775   9776   9777   9780     1  0.0000000  0.6508444  3
   9775   9776   9782   9788     1  0.0000000  1.0460000  1
   9775   9776   9782   9788     1  0.0000000  0.6694400  3
   9775   9772   9784   9787     1  0.0000000  1.0460000  1
   9775   9772   9784   9787     1  0.0000000  0.6694400  3
   9776   9775   9783   9786     1  0.0000000  1.0460000  1
   9776   9775   9783   9786     1  0.0000000  0.6694400  3
   9777   9776   9782   9788     1  0.0000000  1.0460000  1
   9777   9776   9782   9788     1  0.0000000  0.6694400  3
   9777   9776   9775   9779     1  0.0000000  0.6508444  3
   9778   9776   9777   9781     1  0.0000000  1.0460000  1
   9778   9776   9777   9781     1  0.0000000  0.0000000  3
   9778   9776   9777   9793     1  0.0000000  1.0460000  1
   9778   9776   9777   9793     1  0.0000000  0.0000000  3
   9778   9776   9777   9780     1  0.0000000  0.6508444  3
   9778   9776   9782   9788     1  0.0000000  0.6973333  3
   9778   9776   9775   9783     1  0.0000000  1.0460000  1
   9778   9776   9775   9783     1  0.0000000  0.0000000  3
   9778   9776   9775   9779     1  0.0000000  0.6508444  3
   9779   9775   9776   9782     1  0.0000000  1.0460000  1
   9779   9775   9776   9782     1  0.0000000  0.0000000  3
   9779   9775   9783   9786     1  0.0000000  0.6973333  3
   9779   9775   9772   9784     1  0.0000000  1.0460000  1
   9779   9775   9772   9784     1  0.0000000  0.0000000  3
   9780   9777   9776   9782     1  0.0000000  0.6508444  3
   9789   9785   9791   9792     1  0.0000000  0.6973333  3
   9789   9785   9771   9793     1  0.0000000  1.0460000  1
   9789   9785   9771   9793     1  0.0000000  0.0000000  3
   9790   9785   9791   9792     1  0.0000000  0.6973333  3
   9790   9785   9771   9793     1  0.0000000  1.0460000  1
   9790   9785   9771   9793     1  0.0000000  0.0000000  3
   9794   9795   9798   9802     1  0.0000000  0.6508444  3
   9794   9795   9807   9810     1  0.0000000  1.0460000  1
   9794   9795   9807   9810     1  0.0000000  0.6694400  3
   9794   9808   9814   9815     1  0.0000000  1.0460000  1
   9794   9808   9814   9815     1  0.0000000  0.6694400  3
   9794   9816   9800   9803     1  0.0000000  1.6038667  3
   9795   9794   9808   9812     1  0.0000000  0.6508444  3
   9795   9794   9808   9813     1  0.0000000  0.6508444  3
   9795   9798   9799   9801     1  0.0000000  0.6508444  3
   9795   9798   9806   9809     1  0.0000000  1.0460000  1
   9795   9798   9806   9809     1  0.0000000  0.6694400  3
   9796   9794   9795   9798     1  0.0000000  0.6508444  3
   9796   9794   9795   9807     1  0.0000000  1.0460000  1
   9796   9794   9795   9807     1  0.0000000  0.0000000  3
   9796   9794   9795   9797     1  0.0000000  0.6508444  3
   9796   9794   9808   9814     1  0.0000000  1.0460000  1
   9796   9794   9808   9814     1  0.0000000  0.0000000  3
   9796   9794   9808   9812     1  0.0000000  0.6508444  3
   9796   9794   9808   9813     1  0.0000000  0.6508444  3
   9796   9794   9816   9800     1  0.0000000  1.6038667  3
   9797   9795   9794   9808     1  0.0000000  0.6508444  3
   9797   9795   9794   9816     1  0.0000000  1.0460000  1
   9797   9795   9794   9816     1  0.0000000  0.0000000  3
   9797   9795   9798   9799     1  0.0000000  0.6508444  3
   9797   9795   9798   9806     1  0.0000000  1.0460000  1
   9797   9795   9798   9806     1  0.0000000  0.0000000  3
   9797   9795   9798   9802     1  0.0000000  0.6508444  3
   9797   9795   9807   9810     1  0.0000000  0.6973333  3
   9798   9795   9807   9810     1  0.0000000  1.0460000  1
   9798   9795   9807   9810     1  0.0000000  0.6694400  3
   9798   9799   9800   9803     1  0.0000000  0.6508444  3
   9798   9799   9805   9811     1  0.0000000  1.0460000  1
   9798   9799   9805   9811     1  0.0000000  0.6694400  3
   9799   9798   9806   9809     1  0.0000000  1.0460000  1
   9799   9798   9806   9809     1  0.0000000  0.6694400  3
   9800   9799   9798   9802     1  0.0000000  0.6508444  3
   9800   9799   9805   9811     1  0.0000000  1.0460000  1
   9800   9799   9805   9811     1  0.0000000  0.6694400  3
   9801   9799   9798   9806     1  0.0000000  1.0460000  1
   9801   9799   9798   9806     1  0.0000000  0.0000000  3
   9801   9799   9798   9802     1  0.0000000  0.6508444  3
   9801   9799   9800   9804     1  0.0000000  1.0460000  1
   9801   9799   9800   9804     1  0.0000000  0.0000000  3
   9801   9799   9800   9816     1  0.0000000  1.0460000  1
   9801   9799   9800   9816     1  0.0000000  0.0000000  3
   9801   9799   9800   9803     1  0.0000000  0.6508444  3
   9801   9799   9805   9811     1  0.0000000  0.6973333  3
   9802   9798   9795   9807     1  0.0000000  1.0460000  1
   9802   9798   9795   9807     1  0.0000000  0.0000000  3
   9802   9798   9799   9805     1  0.0000000  1.0460000  1
   9802   9798   9799   9805     1  0.0000000  0.0000000  3
   9802   9798   9806   9809     1  0.0000000  0.6973333  3
   9803   9800   9799   9805     1  0.0000000  0.6508444  3
   9812   9808   9794   9816     1  0.0000000  1.0460000  1
   9812   9808   9794   9816     1  0.0000000  0.0000000  3
   9812   9808   9814   9815     1  0.0000000  0.6973333  3
   9813   9808   9794   9816     1  0.0000000  1.0460000  1
   9813   9808   9794   9816     1  0.0000000  0.0000000  3
   9813   9808   9814   9815     1  0.0000000  0.6973333  3
   9817   9818   9821   9825     1  0.0000000  0.6508444  3
   9817   9818   9830   9833     1  0.0000000  1.0460000  1
   9817   9818   9830   9833     1  0.0000000  0.6694400  3
   9817   9831   9837   9838     1  0.0000000  1.0460000  1
   9817   9831   9837   9838     1  0.0000000  0.6694400  3
   9817   9839   9823   9826     1  0.0000000  1.6038667  3
   9818   9821   9822   9824     1  0.0000000  0.6508444  3
   9818   9821   9829   9832     1  0.0000000  1.0460000  1
   9818   9821   9829   9832     1  0.0000000  0.6694400  3
   9818   9817   9831   9835     1  0.0000000  0.6508444  3
   9818   9817   9831   9836     1  0.0000000  0.6508444  3
   9819   9817   9818   9821     1  0.0000000  0.6508444  3
   9819   9817   9818   9830     1  0.0000000  1.0460000  1
   9819   9817   9818   9830     1  0.0000000  0.0000000  3
   9819   9817   9818   9820     1  0.0000000  0.6508444  3
   9819   9817   9831   9837     1  0.0000000  1.0460000  1
   9819   9817   9831   9837     1  0.0000000  0.0000000  3
   9819   9817   9831   9835     1  0.0000000  0.6508444  3
   9819   9817   9831   9836     1  0.0000000  0.6508444  3
   9819   9817   9839   9823     1  0.0000000  1.6038667  3
   9820   9818   9821   9822     1  0.0000000  0.6508444  3
   9820   9818   9821   9829     1  0.0000000  1.0460000  1
   9820   9818   9821   9829     1  0.0000000  0.0000000  3
   9820   9818   9821   9825     1  0.0000000  0.6508444  3
   9820   9818   9830   9833     1  0.0000000  0.6973333  3
   9820   9818   9817   9831     1  0.0000000  0.6508444  3
   9820   9818   9817   9839     1  0.0000000  1.0460000  1
   9820   9818   9817   9839     1  0.0000000  0.0000000  3
   9821   9822   9823   9826     1  0.0000000  0.6508444  3
   9821   9822   9828   9834     1  0.0000000  1.0460000  1
   9821   9822   9828   9834     1  0.0000000  0.6694400  3
   9821   9818   9830   9833     1  0.0000000  1.0460000  1
   9821   9818   9830   9833     1  0.0000000  0.6694400  3
   9822   9821   9829   9832     1  0.0000000  1.0460000  1
   9822   9821   9829   9832     1  0.0000000  0.6694400  3
   9823   9822   9828   9834     1  0.0000000  1.0460000  1
   9823   9822   9828   9834     1  0.0000000  0.6694400  3
   9823   9822   9821   9825     1  0.0000000  0.6508444  3
   9824   9822   9823   9827     1  0.0000000  1.0460000  1
   9824   9822   9823   9827     1  0.0000000  0.0000000  3
   9824   9822   9823   9839     1  0.0000000  1.0460000  1
   9824   9822   9823   9839     1  0.0000000  0.0000000  3
   9824   9822   9823   9826     1  0.0000000  0.6508444  3
   9824   9822   9828   9834     1  0.0000000  0.6973333  3
   9824   9822   9821   9829     1  0.0000000  1.0460000  1
   9824   9822   9821   9829     1  0.0000000  0.0000000  3
   9824   9822   9821   9825     1  0.0000000  0.6508444  3
   9825   9821   9822   9828     1  0.0000000  1.0460000  1
   9825   9821   9822   9828     1  0.0000000  0.0000000  3
   9825   9821   9829   9832     1  0.0000000  0.6973333  3
   9825   9821   9818   9830     1  0.0000000  1.0460000  1
   9825   9821   9818   9830     1  0.0000000  0.0000000  3
   9826   9823   9822   9828     1  0.0000000  0.6508444  3
   9835   9831   9837   9838     1  0.0000000  0.6973333  3
   9835   9831   9817   9839     1  0.0000000  1.0460000  1
   9835   9831   9817   9839     1  0.0000000  0.0000000  3
   9836   9831   9837   9838     1  0.0000000  0.6973333  3
   9836   9831   9817   9839     1  0.0000000  1.0460000  1
   9836   9831   9817   9839     1  0.0000000  0.0000000  3
   9840   9841   9844   9848     1  0.0000000  0.6508444  3
   9840   9841   9853   9856     1  0.0000000  1.0460000  1
   9840   9841   9853   9856     1  0.0000000  0.6694400  3
   9840   9854   9860   9861     1  0.0000000  1.0460000  1
   9840   9854   9860   9861     1  0.0000000  0.6694400  3
   9840   9862   9846   9849     1  0.0000000  1.6038667  3
   9841   9840   9854   9858     1  0.0000000  0.6508444  3
   9841   9840   9854   9859     1  0.0000000  0.6508444  3
   9841   9844   9845   9847     1  0.0000000  0.6508444  3
   9841   9844   9852   9855     1  0.0000000  1.0460000  1
   9841   9844   9852   9855     1  0.0000000  0.6694400  3
   9842   9840   9841   9844     1  0.0000000  0.6508444  3
   9842   9840   9841   9853     1  0.0000000  1.0460000  1
   9842   9840   9841   9853     1  0.0000000  0.0000000  3
   9842   9840   9841   9843     1  0.0000000  0.6508444  3
   9842   9840   9854   9860     1  0.0000000  1.0460000  1
   9842   9840   9854   9860     1  0.0000000  0.0000000  3
   9842   9840   9854   9858     1  0.0000000  0.6508444  3
   9842   9840   9854   9859     1  0.0000000  0.6508444  3
   9842   9840   9862   9846     1  0.0000000  1.6038667  3
   9843   9841   9840   9854     1  0.0000000  0.6508444  3
   9843   9841   9840   9862     1  0.0000000  1.0460000  1
   9843   9841   9840   9862     1  0.0000000  0.0000000  3
   9843   9841   9844   9845     1  0.0000000  0.6508444  3
   9843   9841   9844   9852     1  0.0000000  1.0460000  1
   9843   9841   9844   9852     1  0.0000000  0.0000000  3
   9843   9841   9844   9848     1  0.0000000  0.6508444  3
   9843   9841   9853   9856     1  0.0000000  0.6973333  3
   9844   9841   9853   9856     1  0.0000000  1.0460000  1
   9844   9841   9853   9856     1  0.0000000  0.6694400  3
   9844   9845   9846   9849     1  0.0000000  0.6508444  3
   9844   9845   9851   9857     1  0.0000000  1.0460000  1
   9844   9845   9851   9857     1  0.0000000  0.6694400  3
   9845   9844   9852   9855     1  0.0000000  1.0460000  1
   9845   9844   9852   9855     1  0.0000000  0.6694400  3
   9846   9845   9844   9848     1  0.0000000  0.6508444  3
   9846   9845   9851   9857     1  0.0000000  1.0460000  1
   9846   9845   9851   9857     1  0.0000000  0.6694400  3
   9847   9845   9844   9852     1  0.0000000  1.0460000  1
   9847   9845   9844   9852     1  0.0000000  0.0000000  3
   9847   9845   9844   9848     1  0.0000000  0.6508444  3
   9847   9845   9846   9850     1  0.0000000  1.0460000  1
   9847   9845   9846   9850     1  0.0000000  0.0000000  3
   9847   9845   9846   9862     1  0.0000000  1.0460000  1
   9847   9845   9846   9862     1  0.0000000  0.0000000  3
   9847   9845   9846   9849     1  0.0000000  0.6508444  3
   9847   9845   9851   9857     1  0.0000000  0.6973333  3
   9848   9844   9841   9853     1  0.0000000  1.0460000  1
   9848   9844   9841   9853     1  0.0000000  0.0000000  3
   9848   9844   9845   9851     1  0.0000000  1.0460000  1
   9848   9844   9845   9851     1  0.0000000  0.0000000  3
   9848   9844   9852   9855     1  0.0000000  0.6973333  3
   9849   9846   9845   9851     1  0.0000000  0.6508444  3
   9858   9854   9840   9862     1  0.0000000  1.0460000  1
   9858   9854   9840   9862     1  0.0000000  0.0000000  3
   9858   9854   9860   9861     1  0.0000000  0.6973333  3
   9859   9854   9840   9862     1  0.0000000  1.0460000  1
   9859   9854   9840   9862     1  0.0000000  0.0000000  3
   9859   9854   9860   9861     1  0.0000000  0.6973333  3
   9863   9864   9867   9871     1  0.0000000  0.6508444  3
   9863   9864   9876   9879     1  0.0000000  1.0460000  1
   9863   9864   9876   9879     1  0.0000000  0.6694400  3
   9863   9877   9883   9884     1  0.0000000  1.0460000  1
   9863   9877   9883   9884     1  0.0000000  0.6694400  3
   9863   9885   9869   9872     1  0.0000000  1.6038667  3
   9864   9867   9868   9870     1  0.0000000  0.6508444  3
   9864   9867   9875   9878     1  0.0000000  1.0460000  1
   9864   9867   9875   9878     1  0.0000000  0.6694400  3
   9864   9863   9877   9881     1  0.0000000  0.6508444  3
   9864   9863   9877   9882     1  0.0000000  0.6508444  3
   9865   9863   9864   9867     1  0.0000000  0.6508444  3
   9865   9863   9864   9876     1  0.0000000  1.0460000  1
   9865   9863   9864   9876     1  0.0000000  0.0000000  3
   9865   9863   9864   9866     1  0.0000000  0.6508444  3
   9865   9863   9877   9883     1  0.0000000  1.0460000  1
   9865   9863   9877   9883     1  0.0000000  0.0000000  3
   9865   9863   9877   9881     1  0.0000000  0.6508444  3
   9865   9863   9877   9882     1  0.0000000  0.6508444  3
   9865   9863   9885   9869     1  0.0000000  1.6038667  3
   9866   9864   9867   9868     1  0.0000000  0.6508444  3
   9866   9864   9867   9875     1  0.0000000  1.0460000  1
   9866   9864   9867   9875     1  0.0000000  0.0000000  3
   9866   9864   9867   9871     1  0.0000000  0.6508444  3
   9866   9864   9876   9879     1  0.0000000  0.6973333  3
   9866   9864   9863   9877     1  0.0000000  0.6508444  3
   9866   9864   9863   9885     1  0.0000000  1.0460000  1
   9866   9864   9863   9885     1  0.0000000  0.0000000  3
   9867   9868   9869   9872     1  0.0000000  0.6508444  3
   9867   9868   9874   9880     1  0.0000000  1.0460000  1
   9867   9868   9874   9880     1  0.0000000  0.6694400  3
   9867   9864   9876   9879     1  0.0000000  1.0460000  1
   9867   9864   9876   9879     1  0.0000000  0.6694400  3
   9868   9867   9875   9878     1  0.0000000  1.0460000  1
   9868   9867   9875   9878     1  0.0000000  0.6694400  3
   9869   9868   9874   9880     1  0.0000000  1.0460000  1
   9869   9868   9874   9880     1  0.0000000  0.6694400  3
   9869   9868   9867   9871     1  0.0000000  0.6508444  3
   9870   9868   9869   9873     1  0.0000000  1.0460000  1
   9870   9868   9869   9873     1  0.0000000  0.0000000  3
   9870   9868   9869   9885     1  0.0000000  1.0460000  1
   9870   9868   9869   9885     1  0.0000000  0.0000000  3
   9870   9868   9869   9872     1  0.0000000  0.6508444  3
   9870   9868   9874   9880     1  0.0000000  0.6973333  3
   9870   9868   9867   9875     1  0.0000000  1.0460000  1
   9870   9868   9867   9875     1  0.0000000  0.0000000  3
   9870   9868   9867   9871     1  0.0000000  0.6508444  3
   9871   9867   9868   9874     1  0.0000000  1.0460000  1
   9871   9867   9868   9874     1  0.0000000  0.0000000  3
   9871   9867   9875   9878     1  0.0000000  0.6973333  3
   9871   9867   9864   9876     1  0.0000000  1.0460000  1
   9871   9867   9864   9876     1  0.0000000  0.0000000  3
   9872   9869   9868   9874     1  0.0000000  0.6508444  3
   9881   9877   9883   9884     1  0.0000000  0.6973333  3
   9881   9877   9863   9885     1  0.0000000  1.0460000  1
   9881   9877   9863   9885     1  0.0000000  0.0000000  3
   9882   9877   9883   9884     1  0.0000000  0.6973333  3
   9882   9877   9863   9885     1  0.0000000  1.0460000  1
   9882   9877   9863   9885     1  0.0000000  0.0000000  3
   9886   9887   9890   9894     1  0.0000000  0.6508444  3
   9886   9887   9899   9902     1  0.0000000  1.0460000  1
   9886   9887   9899   9902     1  0.0000000  0.6694400  3
   9886   9900   9906   9907     1  0.0000000  1.0460000  1
   9886   9900   9906   9907     1  0.0000000  0.6694400  3
   9886   9908   9892   9895     1  0.0000000  1.6038667  3
   9887   9886   9900   9904     1  0.0000000  0.6508444  3
   9887   9886   9900   9905     1  0.0000000  0.6508444  3
   9887   9890   9891   9893     1  0.0000000  0.6508444  3
   9887   9890   9898   9901     1  0.0000000  1.0460000  1
   9887   9890   9898   9901     1  0.0000000  0.6694400  3
   9888   9886   9887   9890     1  0.0000000  0.6508444  3
   9888   9886   9887   9899     1  0.0000000  1.0460000  1
   9888   9886   9887   9899     1  0.0000000  0.0000000  3
   9888   9886   9887   9889     1  0.0000000  0.6508444  3
   9888   9886   9900   9906     1  0.0000000  1.0460000  1
   9888   9886   9900   9906     1  0.0000000  0.0000000  3
   9888   9886   9900   9904     1  0.0000000  0.6508444  3
   9888   9886   9900   9905     1  0.0000000  0.6508444  3
   9888   9886   9908   9892     1  0.0000000  1.6038667  3
   9889   9887   9886   9900     1  0.0000000  0.6508444  3
   9889   9887   9886   9908     1  0.0000000  1.0460000  1
   9889   9887   9886   9908     1  0.0000000  0.0000000  3
   9889   9887   9890   9891     1  0.0000000  0.6508444  3
   9889   9887   9890   9898     1  0.0000000  1.0460000  1
   9889   9887   9890   9898     1  0.0000000  0.0000000  3
   9889   9887   9890   9894     1  0.0000000  0.6508444  3
   9889   9887   9899   9902     1  0.0000000  0.6973333  3
   9890   9887   9899   9902     1  0.0000000  1.0460000  1
   9890   9887   9899   9902     1  0.0000000  0.6694400  3
   9890   9891   9892   9895     1  0.0000000  0.6508444  3
   9890   9891   9897   9903     1  0.0000000  1.0460000  1
   9890   9891   9897   9903     1  0.0000000  0.6694400  3
   9891   9890   9898   9901     1  0.0000000  1.0460000  1
   9891   9890   9898   9901     1  0.0000000  0.6694400  3
   9892   9891   9890   9894     1  0.0000000  0.6508444  3
   9892   9891   9897   9903     1  0.0000000  1.0460000  1
   9892   9891   9897   9903     1  0.0000000  0.6694400  3
   9893   9891   9890   9898     1  0.0000000  1.0460000  1
   9893   9891   9890   9898     1  0.0000000  0.0000000  3
   9893   9891   9890   9894     1  0.0000000  0.6508444  3
   9893   9891   9892   9896     1  0.0000000  1.0460000  1
   9893   9891   9892   9896     1  0.0000000  0.0000000  3
   9893   9891   9892   9908     1  0.0000000  1.0460000  1
   9893   9891   9892   9908     1  0.0000000  0.0000000  3
   9893   9891   9892   9895     1  0.0000000  0.6508444  3
   9893   9891   9897   9903     1  0.0000000  0.6973333  3
   9894   9890   9887   9899     1  0.0000000  1.0460000  1
   9894   9890   9887   9899     1  0.0000000  0.0000000  3
   9894   9890   9891   9897     1  0.0000000  1.0460000  1
   9894   9890   9891   9897     1  0.0000000  0.0000000  3
   9894   9890   9898   9901     1  0.0000000  0.6973333  3
   9895   9892   9891   9897     1  0.0000000  0.6508444  3
   9904   9900   9886   9908     1  0.0000000  1.0460000  1
   9904   9900   9886   9908     1  0.0000000  0.0000000  3
   9904   9900   9906   9907     1  0.0000000  0.6973333  3
   9905   9900   9886   9908     1  0.0000000  1.0460000  1
   9905   9900   9886   9908     1  0.0000000  0.0000000  3
   9905   9900   9906   9907     1  0.0000000  0.6973333  3
   9909   9910   9913   9917     1  0.0000000  0.6508444  3
   9909   9910   9922   9925     1  0.0000000  1.0460000  1
   9909   9910   9922   9925     1  0.0000000  0.6694400  3
   9909   9923   9929   9930     1  0.0000000  1.0460000  1
   9909   9923   9929   9930     1  0.0000000  0.6694400  3
   9909   9931   9915   9918     1  0.0000000  1.6038667  3
   9910   9913   9914   9916     1  0.0000000  0.6508444  3
   9910   9913   9921   9924     1  0.0000000  1.0460000  1
   9910   9913   9921   9924     1  0.0000000  0.6694400  3
   9910   9909   9923   9927     1  0.0000000  0.6508444  3
   9910   9909   9923   9928     1  0.0000000  0.6508444  3
   9911   9909   9910   9913     1  0.0000000  0.6508444  3
   9911   9909   9910   9922     1  0.0000000  1.0460000  1
   9911   9909   9910   9922     1  0.0000000  0.0000000  3
   9911   9909   9910   9912     1  0.0000000  0.6508444  3
   9911   9909   9923   9929     1  0.0000000  1.0460000  1
   9911   9909   9923   9929     1  0.0000000  0.0000000  3
   9911   9909   9923   9927     1  0.0000000  0.6508444  3
   9911   9909   9923   9928     1  0.0000000  0.6508444  3
   9911   9909   9931   9915     1  0.0000000  1.6038667  3
   9912   9910   9913   9914     1  0.0000000  0.6508444  3
   9912   9910   9913   9921     1  0.0000000  1.0460000  1
   9912   9910   9913   9921     1  0.0000000  0.0000000  3
   9912   9910   9913   9917     1  0.0000000  0.6508444  3
   9912   9910   9922   9925     1  0.0000000  0.6973333  3
   9912   9910   9909   9923     1  0.0000000  0.6508444  3
   9912   9910   9909   9931     1  0.0000000  1.0460000  1
   9912   9910   9909   9931     1  0.0000000  0.0000000  3
   9913   9914   9915   9918     1  0.0000000  0.6508444  3
   9913   9914   9920   9926     1  0.0000000  1.0460000  1
   9913   9914   9920   9926     1  0.0000000  0.6694400  3
   9913   9910   9922   9925     1  0.0000000  1.0460000  1
   9913   9910   9922   9925     1  0.0000000  0.6694400  3
   9914   9913   9921   9924     1  0.0000000  1.0460000  1
   9914   9913   9921   9924     1  0.0000000  0.6694400  3
   9915   9914   9920   9926     1  0.0000000  1.0460000  1
   9915   9914   9920   9926     1  0.0000000  0.6694400  3
   9915   9914   9913   9917     1  0.0000000  0.6508444  3
   9916   9914   9915   9919     1  0.0000000  1.0460000  1
   9916   9914   9915   9919     1  0.0000000  0.0000000  3
   9916   9914   9915   9931     1  0.0000000  1.0460000  1
   9916   9914   9915   9931     1  0.0000000  0.0000000  3
   9916   9914   9915   9918     1  0.0000000  0.6508444  3
   9916   9914   9920   9926     1  0.0000000  0.6973333  3
   9916   9914   9913   9921     1  0.0000000  1.0460000  1
   9916   9914   9913   9921     1  0.0000000  0.0000000  3
   9916   9914   9913   9917     1  0.0000000  0.6508444  3
   9917   9913   9914   9920     1  0.0000000  1.0460000  1
   9917   9913   9914   9920     1  0.0000000  0.0000000  3
   9917   9913   9921   9924     1  0.0000000  0.6973333  3
   9917   9913   9910   9922     1  0.0000000  1.0460000  1
   9917   9913   9910   9922     1  0.0000000  0.0000000  3
   9918   9915   9914   9920     1  0.0000000  0.6508444  3
   9927   9923   9929   9930     1  0.0000000  0.6973333  3
   9927   9923   9909   9931     1  0.0000000  1.0460000  1
   9927   9923   9909   9931     1  0.0000000  0.0000000  3
   9928   9923   9929   9930     1  0.0000000  0.6973333  3
   9928   9923   9909   9931     1  0.0000000  1.0460000  1
   9928   9923   9909   9931     1  0.0000000  0.0000000  3
   9932   9933   9936   9940     1  0.0000000  0.6508444  3
   9932   9933   9945   9948     1  0.0000000  1.0460000  1
   9932   9933   9945   9948     1  0.0000000  0.6694400  3
   9932   9946   9952   9953     1  0.0000000  1.0460000  1
   9932   9946   9952   9953     1  0.0000000  0.6694400  3
   9932   9954   9938   9941     1  0.0000000  1.6038667  3
   9933   9932   9946   9950     1  0.0000000  0.6508444  3
   9933   9932   9946   9951     1  0.0000000  0.6508444  3
   9933   9936   9937   9939     1  0.0000000  0.6508444  3
   9933   9936   9944   9947     1  0.0000000  1.0460000  1
   9933   9936   9944   9947     1  0.0000000  0.6694400  3
   9934   9932   9933   9936     1  0.0000000  0.6508444  3
   9934   9932   9933   9945     1  0.0000000  1.0460000  1
   9934   9932   9933   9945     1  0.0000000  0.0000000  3
   9934   9932   9933   9935     1  0.0000000  0.6508444  3
   9934   9932   9946   9952     1  0.0000000  1.0460000  1
   9934   9932   9946   9952     1  0.0000000  0.0000000  3
   9934   9932   9946   9950     1  0.0000000  0.6508444  3
   9934   9932   9946   9951     1  0.0000000  0.6508444  3
   9934   9932   9954   9938     1  0.0000000  1.6038667  3
   9935   9933   9932   9946     1  0.0000000  0.6508444  3
   9935   9933   9932   9954     1  0.0000000  1.0460000  1
   9935   9933   9932   9954     1  0.0000000  0.0000000  3
   9935   9933   9936   9937     1  0.0000000  0.6508444  3
   9935   9933   9936   9944     1  0.0000000  1.0460000  1
   9935   9933   9936   9944     1  0.0000000  0.0000000  3
   9935   9933   9936   9940     1  0.0000000  0.6508444  3
   9935   9933   9945   9948     1  0.0000000  0.6973333  3
   9936   9933   9945   9948     1  0.0000000  1.0460000  1
   9936   9933   9945   9948     1  0.0000000  0.6694400  3
   9936   9937   9938   9941     1  0.0000000  0.6508444  3
   9936   9937   9943   9949     1  0.0000000  1.0460000  1
   9936   9937   9943   9949     1  0.0000000  0.6694400  3
   9937   9936   9944   9947     1  0.0000000  1.0460000  1
   9937   9936   9944   9947     1  0.0000000  0.6694400  3
   9938   9937   9936   9940     1  0.0000000  0.6508444  3
   9938   9937   9943   9949     1  0.0000000  1.0460000  1
   9938   9937   9943   9949     1  0.0000000  0.6694400  3
   9939   9937   9936   9944     1  0.0000000  1.0460000  1
   9939   9937   9936   9944     1  0.0000000  0.0000000  3
   9939   9937   9936   9940     1  0.0000000  0.6508444  3
   9939   9937   9938   9942     1  0.0000000  1.0460000  1
   9939   9937   9938   9942     1  0.0000000  0.0000000  3
   9939   9937   9938   9954     1  0.0000000  1.0460000  1
   9939   9937   9938   9954     1  0.0000000  0.0000000  3
   9939   9937   9938   9941     1  0.0000000  0.6508444  3
   9939   9937   9943   9949     1  0.0000000  0.6973333  3
   9940   9936   9933   9945     1  0.0000000  1.0460000  1
   9940   9936   9933   9945     1  0.0000000  0.0000000  3
   9940   9936   9937   9943     1  0.0000000  1.0460000  1
   9940   9936   9937   9943     1  0.0000000  0.0000000  3
   9940   9936   9944   9947     1  0.0000000  0.6973333  3
   9941   9938   9937   9943     1  0.0000000  0.6508444  3
   9950   9946   9932   9954     1  0.0000000  1.0460000  1
   9950   9946   9932   9954     1  0.0000000  0.0000000  3
   9950   9946   9952   9953     1  0.0000000  0.6973333  3
   9951   9946   9932   9954     1  0.0000000  1.0460000  1
   9951   9946   9932   9954     1  0.0000000  0.0000000  3
   9951   9946   9952   9953     1  0.0000000  0.6973333  3
   9955   9956   9959   9963     1  0.0000000  0.6508444  3
   9955   9956   9968   9971     1  0.0000000  1.0460000  1
   9955   9956   9968   9971     1  0.0000000  0.6694400  3
   9955   9969   9975   9976     1  0.0000000  1.0460000  1
   9955   9969   9975   9976     1  0.0000000  0.6694400  3
   9955   9977   9961   9964     1  0.0000000  1.6038667  3
   9956   9959   9960   9962     1  0.0000000  0.6508444  3
   9956   9959   9967   9970     1  0.0000000  1.0460000  1
   9956   9959   9967   9970     1  0.0000000  0.6694400  3
   9956   9955   9969   9973     1  0.0000000  0.6508444  3
   9956   9955   9969   9974     1  0.0000000  0.6508444  3
   9957   9955   9956   9959     1  0.0000000  0.6508444  3
   9957   9955   9956   9968     1  0.0000000  1.0460000  1
   9957   9955   9956   9968     1  0.0000000  0.0000000  3
   9957   9955   9956   9958     1  0.0000000  0.6508444  3
   9957   9955   9969   9975     1  0.0000000  1.0460000  1
   9957   9955   9969   9975     1  0.0000000  0.0000000  3
   9957   9955   9969   9973     1  0.0000000  0.6508444  3
   9957   9955   9969   9974     1  0.0000000  0.6508444  3
   9957   9955   9977   9961     1  0.0000000  1.6038667  3
   9958   9956   9959   9960     1  0.0000000  0.6508444  3
   9958   9956   9959   9967     1  0.0000000  1.0460000  1
   9958   9956   9959   9967     1  0.0000000  0.0000000  3
   9958   9956   9959   9963     1  0.0000000  0.6508444  3
   9958   9956   9968   9971     1  0.0000000  0.6973333  3
   9958   9956   9955   9969     1  0.0000000  0.6508444  3
   9958   9956   9955   9977     1  0.0000000  1.0460000  1
   9958   9956   9955   9977     1  0.0000000  0.0000000  3
   9959   9960   9961   9964     1  0.0000000  0.6508444  3
   9959   9960   9966   9972     1  0.0000000  1.0460000  1
   9959   9960   9966   9972     1  0.0000000  0.6694400  3
   9959   9956   9968   9971     1  0.0000000  1.0460000  1
   9959   9956   9968   9971     1  0.0000000  0.6694400  3
   9960   9959   9967   9970     1  0.0000000  1.0460000  1
   9960   9959   9967   9970     1  0.0000000  0.6694400  3
   9961   9960   9966   9972     1  0.0000000  1.0460000  1
   9961   9960   9966   9972     1  0.0000000  0.6694400  3
   9961   9960   9959   9963     1  0.0000000  0.6508444  3
   9962   9960   9961   9965     1  0.0000000  1.0460000  1
   9962   9960   9961   9965     1  0.0000000  0.0000000  3
   9962   9960   9961   9977     1  0.0000000  1.0460000  1
   9962   9960   9961   9977     1  0.0000000  0.0000000  3
   9962   9960   9961   9964     1  0.0000000  0.6508444  3
   9962   9960   9966   9972     1  0.0000000  0.6973333  3
   9962   9960   9959   9967     1  0.0000000  1.0460000  1
   9962   9960   9959   9967     1  0.0000000  0.0000000  3
   9962   9960   9959   9963     1  0.0000000  0.6508444  3
   9963   9959   9960   9966     1  0.0000000  1.0460000  1
   9963   9959   9960   9966     1  0.0000000  0.0000000  3
   9963   9959   9967   9970     1  0.0000000  0.6973333  3
   9963   9959   9956   9968     1  0.0000000  1.0460000  1
   9963   9959   9956   9968     1  0.0000000  0.0000000  3
   9964   9961   9960   9966     1  0.0000000  0.6508444  3
   9973   9969   9975   9976     1  0.0000000  0.6973333  3
   9973   9969   9955   9977     1  0.0000000  1.0460000  1
   9973   9969   9955   9977     1  0.0000000  0.0000000  3
   9974   9969   9975   9976     1  0.0000000  0.6973333  3
   9974   9969   9955   9977     1  0.0000000  1.0460000  1
   9974   9969   9955   9977     1  0.0000000  0.0000000  3
   9978   9979   9982   9986     1  0.0000000  0.6508444  3
   9978   9979   9991   9994     1  0.0000000  1.0460000  1
   9978   9979   9991   9994     1  0.0000000  0.6694400  3
   9978   9992   9998   9999     1  0.0000000  1.0460000  1
   9978   9992   9998   9999     1  0.0000000  0.6694400  3
   9978  10000   9984   9987     1  0.0000000  1.6038667  3
   9979   9978   9992   9996     1  0.0000000  0.6508444  3
   9979   9978   9992   9997     1  0.0000000  0.6508444  3
   9979   9982   9983   9985     1  0.0000000  0.6508444  3
   9979   9982   9990   9993     1  0.0000000  1.0460000  1
   9979   9982   9990   9993     1  0.0000000  0.6694400  3
   9980   9978   9979   9982     1  0.0000000  0.6508444  3
   9980   9978   9979   9991     1  0.0000000  1.0460000  1
   9980   9978   9979   9991     1  0.0000000  0.0000000  3
   9980   9978   9979   9981     1  0.0000000  0.6508444  3
   9980   9978   9992   9998     1  0.0000000  1.0460000  1
   9980   9978   9992   9998     1  0.0000000  0.0000000  3
   9980   9978   9992   9996     1  0.0000000  0.6508444  3
   9980   9978   9992   9997     1  0.0000000  0.6508444  3
   9980   9978  10000   9984     1  0.0000000  1.6038667  3
   9981   9979   9978   9992     1  0.0000000  0.6508444  3
   9981   9979   9978  10000     1  0.0000000  1.0460000  1
   9981   9979   9978  10000     1  0.0000000  0.0000000  3
   9981   9979   9982   9983     1  0.0000000  0.6508444  3
   9981   9979   9982   9990     1  0.0000000  1.0460000  1
   9981   9979   9982   9990     1  0.0000000  0.0000000  3
   9981   9979   9982   9986     1  0.0000000  0.6508444  3
   9981   9979   9991   9994     1  0.0000000  0.6973333  3
   9982   9979   9991   9994     1  0.0000000  1.0460000  1
   9982   9979   9991   9994     1  0.0000000  0.6694400  3
   9982   9983   9984   9987     1  0.0000000  0.6508444  3
   9982   9983   9989   9995     1  0.0000000  1.0460000  1
   9982   9983   9989   9995     1  0.0000000  0.6694400  3
   9983   9982   9990   9993     1  0.0000000  1.0460000  1
   9983   9982   9990   9993     1  0.0000000  0.6694400  3
   9984   9983   9982   9986     1  0.0000000  0.6508444  3
   9984   9983   9989   9995     1  0.0000000  1.0460000  1
   9984   9983   9989   9995     1  0.0000000  0.6694400  3
   9985   9983   9982   9990     1  0.0000000  1.0460000  1
   9985   9983   9982   9990     1  0.0000000  0.0000000  3
   9985   9983   9982   9986     1  0.0000000  0.6508444  3
   9985   9983   9984   9988     1  0.0000000  1.0460000  1
   9985   9983   9984   9988     1  0.0000000  0.0000000  3
   9985   9983   9984  10000     1  0.0000000  1.0460000  1
   9985   9983   9984  10000     1  0.0000000  0.0000000  3
   9985   9983   9984   9987     1  0.0000000  0.6508444  3
   9985   9983   9989   9995     1  0.0000000  0.6973333  3
   9986   9982   9979   9991     1  0.0000000  1.0460000  1
   9986   9982   9979   9991     1  0.0000000  0.0000000  3
   9986   9982   9983   9989     1  0.0000000  1.0460000  1
   9986   9982   9983   9989     1  0.0000000  0.0000000  3
   9986   9982   9990   9993     1  0.0000000  0.6973333  3
   9987   9984   9983   9989     1  0.0000000  0.6508444  3
   9996   9992   9978  10000     1  0.0000000  1.0460000  1
   9996   9992   9978  10000     1  0.0000000  0.0000000  3
   9996   9992   9998   9999     1  0.0000000  0.6973333  3
   9997   9992   9978  10000     1  0.0000000  1.0460000  1
   9997   9992   9978  10000     1  0.0000000  0.0000000  3
   9997   9992   9998   9999     1  0.0000000  0.6973333  3
  10001  10002  10005  10009     1  0.0000000  0.6508444  3
  10001  10002  10014  10017     1  0.0000000  1.0460000  1
  10001  10002  10014  10017     1  0.0000000  0.6694400  3
  10001  10015  10021  10022     1  0.0000000  1.0460000  1
  10001  10015  10021  10022     1  0.0000000  0.6694400  3
  10001  10023  10007  10010     1  0.0000000  1.6038667  3
  10002  10005  10006  10008     1  0.0000000  0.6508444  3
  10002  10005  10013  10016     1  0.0000000  1.0460000  1
  10002  10005  10013  10016     1  0.0000000  0.6694400  3
  10002  10001  10015  10019     1  0.0000000  0.6508444  3
  10002  10001  10015  10020     1  0.0000000  0.6508444  3
  10003  10001  10002  10005     1  0.0000000  0.6508444  3
  10003  10001  10002  10014     1  0.0000000  1.0460000  1
  10003  10001  10002  10014     1  0.0000000  0.0000000  3
  10003  10001  10002  10004     1  0.0000000  0.6508444  3
  10003  10001  10015  10021     1  0.0000000  1.0460000  1
  10003  10001  10015  10021     1  0.0000000  0.0000000  3
  10003  10001  10015  10019     1  0.0000000  0.6508444  3
  10003  10001  10015  10020     1  0.0000000  0.6508444  3
  10003  10001  10023  10007     1  0.0000000  1.6038667  3
  10004  10002  10005  10006     1  0.0000000  0.6508444  3
  10004  10002  10005  10013     1  0.0000000  1.0460000  1
  10004  10002  10005  10013     1  0.0000000  0.0000000  3
  10004  10002  10005  10009     1  0.0000000  0.6508444  3
  10004  10002  10014  10017     1  0.0000000  0.6973333  3
  10004  10002  10001  10015     1  0.0000000  0.6508444  3
  10004  10002  10001  10023     1  0.0000000  1.0460000  1
  10004  10002  10001  10023     1  0.0000000  0.0000000  3
  10005  10006  10007  10010     1  0.0000000  0.6508444  3
  10005  10006  10012  10018     1  0.0000000  1.0460000  1
  10005  10006  10012  10018     1  0.0000000  0.6694400  3
  10005  10002  10014  10017     1  0.0000000  1.0460000  1
  10005  10002  10014  10017     1  0.0000000  0.6694400  3
  10006  10005  10013  10016     1  0.0000000  1.0460000  1
  10006  10005  10013  10016     1  0.0000000  0.6694400  3
  10007  10006  10012  10018     1  0.0000000  1.0460000  1
  10007  10006  10012  10018     1  0.0000000  0.6694400  3
  10007  10006  10005  10009     1  0.0000000  0.6508444  3
  10008  10006  10007  10011     1  0.0000000  1.0460000  1
  10008  10006  10007  10011     1  0.0000000  0.0000000  3
  10008  10006  10007  10023     1  0.0000000  1.0460000  1
  10008  10006  10007  10023     1  0.0000000  0.0000000  3
  10008  10006  10007  10010     1  0.0000000  0.6508444  3
  10008  10006  10012  10018     1  0.0000000  0.6973333  3
  10008  10006  10005  10013     1  0.0000000  1.0460000  1
  10008  10006  10005  10013     1  0.0000000  0.0000000  3
  10008  10006  10005  10009     1  0.0000000  0.6508444  3
  10009  10005  10006  10012     1  0.0000000  1.0460000  1
  10009  10005  10006  10012     1  0.0000000  0.0000000  3
  10009  10005  10013  10016     1  0.0000000  0.6973333  3
  10009  10005  10002  10014     1  0.0000000  1.0460000  1
  10009  10005  10002  10014     1  0.0000000  0.0000000  3
  10010  10007  10006  10012     1  0.0000000  0.6508444  3
  10019  10015  10021  10022     1  0.0000000  0.6973333  3
  10019  10015  10001  10023     1  0.0000000  1.0460000  1
  10019  10015  10001  10023     1  0.0000000  0.0000000  3
  10020  10015  10021  10022     1  0.0000000  0.6973333  3
  10020  10015  10001  10023     1  0.0000000  1.0460000  1
  10020  10015  10001  10023     1  0.0000000  0.0000000  3
  10024  10025  10028  10032     1  0.0000000  0.6508444  3
  10024  10025  10037  10040     1  0.0000000  1.0460000  1
  10024  10025  10037  10040     1  0.0000000  0.6694400  3
  10024  10038  10044  10045     1  0.0000000  1.0460000  1
  10024  10038  10044  10045     1  0.0000000  0.6694400  3
  10024  10046  10030  10033     1  0.0000000  1.6038667  3
  10025  10024  10038  10042     1  0.0000000  0.6508444  3
  10025  10024  10038  10043     1  0.0000000  0.6508444  3
  10025  10028  10029  10031     1  0.0000000  0.6508444  3
  10025  10028  10036  10039     1  0.0000000  1.0460000  1
  10025  10028  10036  10039     1  0.0000000  0.6694400  3
  10026  10024  10025  10028     1  0.0000000  0.6508444  3
  10026  10024  10025  10037     1  0.0000000  1.0460000  1
  10026  10024  10025  10037     1  0.0000000  0.0000000  3
  10026  10024  10025  10027     1  0.0000000  0.6508444  3
  10026  10024  10038  10044     1  0.0000000  1.0460000  1
  10026  10024  10038  10044     1  0.0000000  0.0000000  3
  10026  10024  10038  10042     1  0.0000000  0.6508444  3
  10026  10024  10038  10043     1  0.0000000  0.6508444  3
  10026  10024  10046  10030     1  0.0000000  1.6038667  3
  10027  10025  10024  10038     1  0.0000000  0.6508444  3
  10027  10025  10024  10046     1  0.0000000  1.0460000  1
  10027  10025  10024  10046     1  0.0000000  0.0000000  3
  10027  10025  10028  10029     1  0.0000000  0.6508444  3
  10027  10025  10028  10036     1  0.0000000  1.0460000  1
  10027  10025  10028  10036     1  0.0000000  0.0000000  3
  10027  10025  10028  10032     1  0.0000000  0.6508444  3
  10027  10025  10037  10040     1  0.0000000  0.6973333  3
  10028  10025  10037  10040     1  0.0000000  1.0460000  1
  10028  10025  10037  10040     1  0.0000000  0.6694400  3
  10028  10029  10030  10033     1  0.0000000  0.6508444  3
  10028  10029  10035  10041     1  0.0000000  1.0460000  1
  10028  10029  10035  10041     1  0.0000000  0.6694400  3
  10029  10028  10036  10039     1  0.0000000  1.0460000  1
  10029  10028  10036  10039     1  0.0000000  0.6694400  3
  10030  10029  10028  10032     1  0.0000000  0.6508444  3
  10030  10029  10035  10041     1  0.0000000  1.0460000  1
  10030  10029  10035  10041     1  0.0000000  0.6694400  3
  10031  10029  10028  10036     1  0.0000000  1.0460000  1
  10031  10029  10028  10036     1  0.0000000  0.0000000  3
  10031  10029  10028  10032     1  0.0000000  0.6508444  3
  10031  10029  10030  10034     1  0.0000000  1.0460000  1
  10031  10029  10030  10034     1  0.0000000  0.0000000  3
  10031  10029  10030  10046     1  0.0000000  1.0460000  1
  10031  10029  10030  10046     1  0.0000000  0.0000000  3
  10031  10029  10030  10033     1  0.0000000  0.6508444  3
  10031  10029  10035  10041     1  0.0000000  0.6973333  3
  10032  10028  10025  10037     1  0.0000000  1.0460000  1
  10032  10028  10025  10037     1  0.0000000  0.0000000  3
  10032  10028  10029  10035     1  0.0000000  1.0460000  1
  10032  10028  10029  10035     1  0.0000000  0.0000000  3
  10032  10028  10036  10039     1  0.0000000  0.6973333  3
  10033  10030  10029  10035     1  0.0000000  0.6508444  3
  10042  10038  10024  10046     1  0.0000000  1.0460000  1
  10042  10038  10024  10046     1  0.0000000  0.0000000  3
  10042  10038  10044  10045     1  0.0000000  0.6973333  3
  10043  10038  10024  10046     1  0.0000000  1.0460000  1
  10043  10038  10024  10046     1  0.0000000  0.0000000  3
  10043  10038  10044  10045     1  0.0000000  0.6973333  3
  10047  10048  10051  10055     1  0.0000000  0.6508444  3
  10047  10048  10060  10063     1  0.0000000  1.0460000  1
  10047  10048  10060  10063     1  0.0000000  0.6694400  3
  10047  10061  10067  10068     1  0.0000000  1.0460000  1
  10047  10061  10067  10068     1  0.0000000  0.6694400  3
  10047  10069  10053  10056     1  0.0000000  1.6038667  3
  10048  10051  10052  10054     1  0.0000000  0.6508444  3
  10048  10051  10059  10062     1  0.0000000  1.0460000  1
  10048  10051  10059  10062     1  0.0000000  0.6694400  3
  10048  10047  10061  10065     1  0.0000000  0.6508444  3
  10048  10047  10061  10066     1  0.0000000  0.6508444  3
  10049  10047  10048  10051     1  0.0000000  0.6508444  3
  10049  10047  10048  10060     1  0.0000000  1.0460000  1
  10049  10047  10048  10060     1  0.0000000  0.0000000  3
  10049  10047  10048  10050     1  0.0000000  0.6508444  3
  10049  10047  10061  10067     1  0.0000000  1.0460000  1
  10049  10047  10061  10067     1  0.0000000  0.0000000  3
  10049  10047  10061  10065     1  0.0000000  0.6508444  3
  10049  10047  10061  10066     1  0.0000000  0.6508444  3
  10049  10047  10069  10053     1  0.0000000  1.6038667  3
  10050  10048  10051  10052     1  0.0000000  0.6508444  3
  10050  10048  10051  10059     1  0.0000000  1.0460000  1
  10050  10048  10051  10059     1  0.0000000  0.0000000  3
  10050  10048  10051  10055     1  0.0000000  0.6508444  3
  10050  10048  10060  10063     1  0.0000000  0.6973333  3
  10050  10048  10047  10061     1  0.0000000  0.6508444  3
  10050  10048  10047  10069     1  0.0000000  1.0460000  1
  10050  10048  10047  10069     1  0.0000000  0.0000000  3
  10051  10052  10053  10056     1  0.0000000  0.6508444  3
  10051  10052  10058  10064     1  0.0000000  1.0460000  1
  10051  10052  10058  10064     1  0.0000000  0.6694400  3
  10051  10048  10060  10063     1  0.0000000  1.0460000  1
  10051  10048  10060  10063     1  0.0000000  0.6694400  3
  10052  10051  10059  10062     1  0.0000000  1.0460000  1
  10052  10051  10059  10062     1  0.0000000  0.6694400  3
  10053  10052  10058  10064     1  0.0000000  1.0460000  1
  10053  10052  10058  10064     1  0.0000000  0.6694400  3
  10053  10052  10051  10055     1  0.0000000  0.6508444  3
  10054  10052  10053  10057     1  0.0000000  1.0460000  1
  10054  10052  10053  10057     1  0.0000000  0.0000000  3
  10054  10052  10053  10069     1  0.0000000  1.0460000  1
  10054  10052  10053  10069     1  0.0000000  0.0000000  3
  10054  10052  10053  10056     1  0.0000000  0.6508444  3
  10054  10052  10058  10064     1  0.0000000  0.6973333  3
  10054  10052  10051  10059     1  0.0000000  1.0460000  1
  10054  10052  10051  10059     1  0.0000000  0.0000000  3
  10054  10052  10051  10055     1  0.0000000  0.6508444  3
  10055  10051  10052  10058     1  0.0000000  1.0460000  1
  10055  10051  10052  10058     1  0.0000000  0.0000000  3
  10055  10051  10059  10062     1  0.0000000  0.6973333  3
  10055  10051  10048  10060     1  0.0000000  1.0460000  1
  10055  10051  10048  10060     1  0.0000000  0.0000000  3
  10056  10053  10052  10058     1  0.0000000  0.6508444  3
  10065  10061  10067  10068     1  0.0000000  0.6973333  3
  10065  10061  10047  10069     1  0.0000000  1.0460000  1
  10065  10061  10047  10069     1  0.0000000  0.0000000  3
  10066  10061  10067  10068     1  0.0000000  0.6973333  3
  10066  10061  10047  10069     1  0.0000000  1.0460000  1
  10066  10061  10047  10069     1  0.0000000  0.0000000  3
  10070  10071  10074  10078     1  0.0000000  0.6508444  3
  10070  10071  10083  10086     1  0.0000000  1.0460000  1
  10070  10071  10083  10086     1  0.0000000  0.6694400  3
  10070  10084  10090  10091     1  0.0000000  1.0460000  1
  10070  10084  10090  10091     1  0.0000000  0.6694400  3
  10070  10092  10076  10079     1  0.0000000  1.6038667  3
  10071  10070  10084  10088     1  0.0000000  0.6508444  3
  10071  10070  10084  10089     1  0.0000000  0.6508444  3
  10071  10074  10075  10077     1  0.0000000  0.6508444  3
  10071  10074  10082  10085     1  0.0000000  1.0460000  1
  10071  10074  10082  10085     1  0.0000000  0.6694400  3
  10072  10070  10071  10074     1  0.0000000  0.6508444  3
  10072  10070  10071  10083     1  0.0000000  1.0460000  1
  10072  10070  10071  10083     1  0.0000000  0.0000000  3
  10072  10070  10071  10073     1  0.0000000  0.6508444  3
  10072  10070  10084  10090     1  0.0000000  1.0460000  1
  10072  10070  10084  10090     1  0.0000000  0.0000000  3
  10072  10070  10084  10088     1  0.0000000  0.6508444  3
  10072  10070  10084  10089     1  0.0000000  0.6508444  3
  10072  10070  10092  10076     1  0.0000000  1.6038667  3
  10073  10071  10070  10084     1  0.0000000  0.6508444  3
  10073  10071  10070  10092     1  0.0000000  1.0460000  1
  10073  10071  10070  10092     1  0.0000000  0.0000000  3
  10073  10071  10074  10075     1  0.0000000  0.6508444  3
  10073  10071  10074  10082     1  0.0000000  1.0460000  1
  10073  10071  10074  10082     1  0.0000000  0.0000000  3
  10073  10071  10074  10078     1  0.0000000  0.6508444  3
  10073  10071  10083  10086     1  0.0000000  0.6973333  3
  10074  10071  10083  10086     1  0.0000000  1.0460000  1
  10074  10071  10083  10086     1  0.0000000  0.6694400  3
  10074  10075  10076  10079     1  0.0000000  0.6508444  3
  10074  10075  10081  10087     1  0.0000000  1.0460000  1
  10074  10075  10081  10087     1  0.0000000  0.6694400  3
  10075  10074  10082  10085     1  0.0000000  1.0460000  1
  10075  10074  10082  10085     1  0.0000000  0.6694400  3
  10076  10075  10074  10078     1  0.0000000  0.6508444  3
  10076  10075  10081  10087     1  0.0000000  1.0460000  1
  10076  10075  10081  10087     1  0.0000000  0.6694400  3
  10077  10075  10074  10082     1  0.0000000  1.0460000  1
  10077  10075  10074  10082     1  0.0000000  0.0000000  3
  10077  10075  10074  10078     1  0.0000000  0.6508444  3
  10077  10075  10076  10080     1  0.0000000  1.0460000  1
  10077  10075  10076  10080     1  0.0000000  0.0000000  3
  10077  10075  10076  10092     1  0.0000000  1.0460000  1
  10077  10075  10076  10092     1  0.0000000  0.0000000  3
  10077  10075  10076  10079     1  0.0000000  0.6508444  3
  10077  10075  10081  10087     1  0.0000000  0.6973333  3
  10078  10074  10071  10083     1  0.0000000  1.0460000  1
  10078  10074  10071  10083     1  0.0000000  0.0000000  3
  10078  10074  10075  10081     1  0.0000000  1.0460000  1
  10078  10074  10075  10081     1  0.0000000  0.0000000  3
  10078  10074  10082  10085     1  0.0000000  0.6973333  3
  10079  10076  10075  10081     1  0.0000000  0.6508444  3
  10088  10084  10070  10092     1  0.0000000  1.0460000  1
  10088  10084  10070  10092     1  0.0000000  0.0000000  3
  10088  10084  10090  10091     1  0.0000000  0.6973333  3
  10089  10084  10070  10092     1  0.0000000  1.0460000  1
  10089  10084  10070  10092     1  0.0000000  0.0000000  3
  10089  10084  10090  10091     1  0.0000000  0.6973333  3
  10093  10094  10097  10101     1  0.0000000  0.6508444  3
  10093  10094  10106  10109     1  0.0000000  1.0460000  1
  10093  10094  10106  10109     1  0.0000000  0.6694400  3
  10093  10107  10113  10114     1  0.0000000  1.0460000  1
  10093  10107  10113  10114     1  0.0000000  0.6694400  3
  10093  10115  10099  10102     1  0.0000000  1.6038667  3
  10094  10097  10098  10100     1  0.0000000  0.6508444  3
  10094  10097  10105  10108     1  0.0000000  1.0460000  1
  10094  10097  10105  10108     1  0.0000000  0.6694400  3
  10094  10093  10107  10111     1  0.0000000  0.6508444  3
  10094  10093  10107  10112     1  0.0000000  0.6508444  3
  10095  10093  10094  10097     1  0.0000000  0.6508444  3
  10095  10093  10094  10106     1  0.0000000  1.0460000  1
  10095  10093  10094  10106     1  0.0000000  0.0000000  3
  10095  10093  10094  10096     1  0.0000000  0.6508444  3
  10095  10093  10107  10113     1  0.0000000  1.0460000  1
  10095  10093  10107  10113     1  0.0000000  0.0000000  3
  10095  10093  10107  10111     1  0.0000000  0.6508444  3
  10095  10093  10107  10112     1  0.0000000  0.6508444  3
  10095  10093  10115  10099     1  0.0000000  1.6038667  3
  10096  10094  10097  10098     1  0.0000000  0.6508444  3
  10096  10094  10097  10105     1  0.0000000  1.0460000  1
  10096  10094  10097  10105     1  0.0000000  0.0000000  3
  10096  10094  10097  10101     1  0.0000000  0.6508444  3
  10096  10094  10106  10109     1  0.0000000  0.6973333  3
  10096  10094  10093  10107     1  0.0000000  0.6508444  3
  10096  10094  10093  10115     1  0.0000000  1.0460000  1
  10096  10094  10093  10115     1  0.0000000  0.0000000  3
  10097  10098  10099  10102     1  0.0000000  0.6508444  3
  10097  10098  10104  10110     1  0.0000000  1.0460000  1
  10097  10098  10104  10110     1  0.0000000  0.6694400  3
  10097  10094  10106  10109     1  0.0000000  1.0460000  1
  10097  10094  10106  10109     1  0.0000000  0.6694400  3
  10098  10097  10105  10108     1  0.0000000  1.0460000  1
  10098  10097  10105  10108     1  0.0000000  0.6694400  3
  10099  10098  10104  10110     1  0.0000000  1.0460000  1
  10099  10098  10104  10110     1  0.0000000  0.6694400  3
  10099  10098  10097  10101     1  0.0000000  0.6508444  3
  10100  10098  10099  10103     1  0.0000000  1.0460000  1
  10100  10098  10099  10103     1  0.0000000  0.0000000  3
  10100  10098  10099  10115     1  0.0000000  1.0460000  1
  10100  10098  10099  10115     1  0.0000000  0.0000000  3
  10100  10098  10099  10102     1  0.0000000  0.6508444  3
  10100  10098  10104  10110     1  0.0000000  0.6973333  3
  10100  10098  10097  10105     1  0.0000000  1.0460000  1
  10100  10098  10097  10105     1  0.0000000  0.0000000  3
  10100  10098  10097  10101     1  0.0000000  0.6508444  3
  10101  10097  10098  10104     1  0.0000000  1.0460000  1
  10101  10097  10098  10104     1  0.0000000  0.0000000  3
  10101  10097  10105  10108     1  0.0000000  0.6973333  3
  10101  10097  10094  10106     1  0.0000000  1.0460000  1
  10101  10097  10094  10106     1  0.0000000  0.0000000  3
  10102  10099  10098  10104     1  0.0000000  0.6508444  3
  10111  10107  10113  10114     1  0.0000000  0.6973333  3
  10111  10107  10093  10115     1  0.0000000  1.0460000  1
  10111  10107  10093  10115     1  0.0000000  0.0000000  3
  10112  10107  10113  10114     1  0.0000000  0.6973333  3
  10112  10107  10093  10115     1  0.0000000  1.0460000  1
  10112  10107  10093  10115     1  0.0000000  0.0000000  3

;[ system ]
;; Name
;Generic title
;
;[ molecules ]
;; Compound       #mols
;system1              1
