;
;   File g3dpocore_petim.itp  was generated
;   By user: sairam (1000)
;   On host: sairam
;   At date: Wed. January  3 10:07:42 2025
;
;   This is a standalone topology file
;
;   Created by:
;   ParmEd:       amb2gro_top_gro.py, VERSION 3.4.1
;   Executable:   amb2gro_top_gro.py
;   Library dir:  /usr/local/gromacs/share/gromacs/top
;   Command line:
;     ./amb2gro_top_gro.py -p g3dpocore_petim.prmtop -c g3dpocore_petim.inpcrd -t g3dpocore_petim.itp -g g3dpocore_petim.gro -b g3dpocore_petim.pdb
;

;[ defaults ]
;; nbfunc        comb-rule       gen-pairs       fudgeLJ fudgeQQ
;1               2               yes             0.5          0.83333333  
;
;[ atomtypes ]
;; name    at.num    mass    charge ptype  sigma      epsilon
;os             8  16.000000  0.00000000  A     0.30000123        0.71128
;c3             6  12.010000  0.00000000  A     0.33996695      0.4577296
;h1             1   1.008000  0.00000000  A      0.2471353      0.0656888
;hc             1   1.008000  0.00000000  A     0.26495328      0.0656888
;hx             1   1.008000  0.00000000  A     0.19599772      0.0656888
;n4             7  14.010000  0.00000000  A     0.32499985        0.71128
;hn             1   1.008000  0.00000000  A     0.10690785      0.0656888


[ moleculetype ]
; Name            nrexcl
g3dpocore_petim          3

[ atoms ]
;   nr       type  resnr residue  atom   cgnr    charge       mass  typeB    chargeB      massB
; residue    1 aaa rtp aaa q 2.0
    1         os      1    aaa     O1      1 -0.58111400  16.000000   ; qtot -0.581114
    2         c3      1    aaa     C1      2 0.17711200  12.010000   ; qtot -0.404002
    3         h1      1    aaa     H1      3 0.04565000   1.008000   ; qtot -0.358352
    4         h1      1    aaa     H2      4 0.04565000   1.008000   ; qtot -0.312702
    5         c3      1    aaa     C2      5 0.17711200  12.010000   ; qtot -0.135590
    6         h1      1    aaa     H3      6 0.04565000   1.008000   ; qtot -0.089940
    7         h1      1    aaa     H4      7 0.04565000   1.008000   ; qtot -0.044290
    8         c3      1    aaa     C3      8 0.15102100  12.010000   ; qtot 0.106731
    9         hc      1    aaa     H5      9 0.02538500   1.008000   ; qtot 0.132116
   10         hc      1    aaa     H6     10 0.02538500   1.008000   ; qtot 0.157501
   11         c3      1    aaa     C4     11 0.15102100  12.010000   ; qtot 0.308522
   12         hc      1    aaa     H7     12 0.02538500   1.008000   ; qtot 0.333907
   13         hc      1    aaa     H8     13 0.02538500   1.008000   ; qtot 0.359292
   14         c3      1    aaa     C5     14 -0.29474300  12.010000   ; qtot 0.064549
   15         hx      1    aaa     H9     15 0.12534200   1.008000   ; qtot 0.189891
   16         hx      1    aaa    H10     16 0.12534200   1.008000   ; qtot 0.315233
   17         c3      1    aaa     C6     17 -0.29474300  12.010000   ; qtot 0.020490
   18         hx      1    aaa    H11     18 0.12534200   1.008000   ; qtot 0.145832
   19         hx      1    aaa    H12     19 0.12534200   1.008000   ; qtot 0.271174
   20         n4      1    aaa     N1     20 -0.11447800  14.010000   ; qtot 0.156696
   21         n4      1    aaa     N2     21 -0.11447800  14.010000   ; qtot 0.042218
   22         c3      1    aaa     C7     22 -0.03432800  12.010000   ; qtot 0.007890
   23         hx      1    aaa    H13     23 0.10515400   1.008000   ; qtot 0.113044
   24         hx      1    aaa    H14     24 0.10515400   1.008000   ; qtot 0.218198
   25         c3      1    aaa     C8     25 -0.03432800  12.010000   ; qtot 0.183870
   26         hx      1    aaa    H15     26 0.10515400   1.008000   ; qtot 0.289024
   27         hx      1    aaa    H16     27 0.10515400   1.008000   ; qtot 0.394178
   28         c3      1    aaa     C9     28 -0.03432800  12.010000   ; qtot 0.359850
   29         hx      1    aaa    H17     29 0.10515400   1.008000   ; qtot 0.465004
   30         hx      1    aaa    H18     30 0.10515400   1.008000   ; qtot 0.570158
   31         c3      1    aaa    C10     31 -0.03432800  12.010000   ; qtot 0.535830
   32         hx      1    aaa    H19     32 0.10515400   1.008000   ; qtot 0.640984
   33         hx      1    aaa    H20     33 0.10515400   1.008000   ; qtot 0.746138
   34         c3      1    aaa    C11     34 -0.06183200  12.010000   ; qtot 0.684306
   35         hc      1    aaa    H21     35 0.08865200   1.008000   ; qtot 0.772958
   36         hc      1    aaa    H22     36 0.08865200   1.008000   ; qtot 0.861610
   37         c3      1    aaa    C12     37 -0.06183200  12.010000   ; qtot 0.799778
   38         hc      1    aaa    H23     38 0.08865200   1.008000   ; qtot 0.888430
   39         hc      1    aaa    H24     39 0.08865200   1.008000   ; qtot 0.977082
   40         c3      1    aaa    C13     40 -0.06183200  12.010000   ; qtot 0.915250
   41         hc      1    aaa    H25     41 0.08865200   1.008000   ; qtot 1.003902
   42         hc      1    aaa    H26     42 0.08865200   1.008000   ; qtot 1.092554
   43         c3      1    aaa    C14     43 -0.06183200  12.010000   ; qtot 1.030722
   44         hc      1    aaa    H27     44 0.08865200   1.008000   ; qtot 1.119374
   45         hc      1    aaa    H28     45 0.08865200   1.008000   ; qtot 1.208026
   46         c3      1    aaa    C15     46 -0.22217300  12.010000   ; qtot 0.985853
   47         hc      1    aaa    H29     47 0.16441900   1.008000   ; qtot 1.150272
   48         hc      1    aaa    H30     48 0.16441900   1.008000   ; qtot 1.314691
   49         c3      1    aaa    C16     49 -0.22217300  12.010000   ; qtot 1.092518
   50         hc      1    aaa    H31     50 0.16441900   1.008000   ; qtot 1.256937
   51         hc      1    aaa    H32     51 0.16441900   1.008000   ; qtot 1.421356
   52         c3      1    aaa    C17     52 -0.22217300  12.010000   ; qtot 1.199183
   53         hc      1    aaa    H33     53 0.16441900   1.008000   ; qtot 1.363602
   54         hc      1    aaa    H34     54 0.16441900   1.008000   ; qtot 1.528021
   55         c3      1    aaa    C18     55 -0.22217300  12.010000   ; qtot 1.305848
   56         hc      1    aaa    H35     56 0.16441900   1.008000   ; qtot 1.470267
   57         hc      1    aaa    H36     57 0.16441900   1.008000   ; qtot 1.634686
   58         hn      1    aaa    H38     58 0.18266300   1.008000   ; qtot 1.817349
   59         hn      1    aaa    H37     59 0.18266300   1.008000   ; qtot 2.000012
; residue    2 bbb rtp bbb q 1.0
   60         n4      2    bbb     N1     60 0.03726400  14.010000   ; qtot 2.037276
   61         c3      2    bbb     C1     61 -0.07020100  12.010000   ; qtot 1.967075
   62         hx      2    bbb     H1     62 0.12219000   1.008000   ; qtot 2.089265
   63         hx      2    bbb     H2     63 0.12219000   1.008000   ; qtot 2.211455
   64         c3      2    bbb     C2     64 -0.07020100  12.010000   ; qtot 2.141254
   65         hx      2    bbb     H3     65 0.12219000   1.008000   ; qtot 2.263444
   66         hx      2    bbb     H4     66 0.12219000   1.008000   ; qtot 2.385634
   67         c3      2    bbb     C3     67 -0.39007700  12.010000   ; qtot 1.995557
   68         hx      2    bbb     H5     68 0.14940300   1.008000   ; qtot 2.144960
   69         hx      2    bbb     H6     69 0.14940300   1.008000   ; qtot 2.294363
   70         c3      2    bbb     C4     70 0.18057300  12.010000   ; qtot 2.474936
   71         hc      2    bbb     H7     71 0.01788900   1.008000   ; qtot 2.492825
   72         hc      2    bbb     H8     72 0.01788900   1.008000   ; qtot 2.510714
   73         c3      2    bbb     C5     73 -0.11337700  12.010000   ; qtot 2.397337
   74         hc      2    bbb     H9     74 0.09515400   1.008000   ; qtot 2.492491
   75         hc      2    bbb    H10     75 0.09515400   1.008000   ; qtot 2.587645
   76         c3      2    bbb     C6     76 -0.11337700  12.010000   ; qtot 2.474268
   77         hc      2    bbb    H11     77 0.09515400   1.008000   ; qtot 2.569422
   78         hc      2    bbb    H12     78 0.09515400   1.008000   ; qtot 2.664576
   79         c3      2    bbb     C7     79 0.21842400  12.010000   ; qtot 2.883000
   80         h1      2    bbb    H13     80 0.04500300   1.008000   ; qtot 2.928003
   81         h1      2    bbb    H14     81 0.04500300   1.008000   ; qtot 2.973006
   82         c3      2    bbb     C8     82 -0.06455200  12.010000   ; qtot 2.908454
   83         h1      2    bbb    H15     83 0.13554100   1.008000   ; qtot 3.043995
   84         h1      2    bbb    H16     84 0.13554100   1.008000   ; qtot 3.179536
   85         c3      2    bbb     C9     85 -0.06455200  12.010000   ; qtot 3.114984
   86         h1      2    bbb    H17     86 0.13554100   1.008000   ; qtot 3.250525
   87         h1      2    bbb    H18     87 0.13554100   1.008000   ; qtot 3.386066
   88         os      2    bbb     O1     88 -0.62587700  16.000000   ; qtot 2.760189
   89         hn      2    bbb    H19     89 0.23982500   1.008000   ; qtot 3.000014
; residue    3 bbb rtp bbb q 1.0
   90         n4      3    bbb     N1     90 0.03726400  14.010000   ; qtot 3.037278
   91         c3      3    bbb     C1     91 -0.07020100  12.010000   ; qtot 2.967077
   92         hx      3    bbb     H1     92 0.12219000   1.008000   ; qtot 3.089267
   93         hx      3    bbb     H2     93 0.12219000   1.008000   ; qtot 3.211457
   94         c3      3    bbb     C2     94 -0.07020100  12.010000   ; qtot 3.141256
   95         hx      3    bbb     H3     95 0.12219000   1.008000   ; qtot 3.263446
   96         hx      3    bbb     H4     96 0.12219000   1.008000   ; qtot 3.385636
   97         c3      3    bbb     C3     97 -0.39007700  12.010000   ; qtot 2.995559
   98         hx      3    bbb     H5     98 0.14940300   1.008000   ; qtot 3.144962
   99         hx      3    bbb     H6     99 0.14940300   1.008000   ; qtot 3.294365
  100         c3      3    bbb     C4    100 0.18057300  12.010000   ; qtot 3.474938
  101         hc      3    bbb     H7    101 0.01788900   1.008000   ; qtot 3.492827
  102         hc      3    bbb     H8    102 0.01788900   1.008000   ; qtot 3.510716
  103         c3      3    bbb     C5    103 -0.11337700  12.010000   ; qtot 3.397339
  104         hc      3    bbb     H9    104 0.09515400   1.008000   ; qtot 3.492493
  105         hc      3    bbb    H10    105 0.09515400   1.008000   ; qtot 3.587647
  106         c3      3    bbb     C6    106 -0.11337700  12.010000   ; qtot 3.474270
  107         hc      3    bbb    H11    107 0.09515400   1.008000   ; qtot 3.569424
  108         hc      3    bbb    H12    108 0.09515400   1.008000   ; qtot 3.664578
  109         c3      3    bbb     C7    109 0.21842400  12.010000   ; qtot 3.883002
  110         h1      3    bbb    H13    110 0.04500300   1.008000   ; qtot 3.928005
  111         h1      3    bbb    H14    111 0.04500300   1.008000   ; qtot 3.973008
  112         c3      3    bbb     C8    112 -0.06455200  12.010000   ; qtot 3.908456
  113         h1      3    bbb    H15    113 0.13554100   1.008000   ; qtot 4.043997
  114         h1      3    bbb    H16    114 0.13554100   1.008000   ; qtot 4.179538
  115         c3      3    bbb     C9    115 -0.06455200  12.010000   ; qtot 4.114986
  116         h1      3    bbb    H17    116 0.13554100   1.008000   ; qtot 4.250527
  117         h1      3    bbb    H18    117 0.13554100   1.008000   ; qtot 4.386068
  118         os      3    bbb     O1    118 -0.62587700  16.000000   ; qtot 3.760191
  119         hn      3    bbb    H19    119 0.23982500   1.008000   ; qtot 4.000016
; residue    4 bbb rtp bbb q 1.0
  120         n4      4    bbb     N1    120 0.03726400  14.010000   ; qtot 4.037280
  121         c3      4    bbb     C1    121 -0.07020100  12.010000   ; qtot 3.967079
  122         hx      4    bbb     H1    122 0.12219000   1.008000   ; qtot 4.089269
  123         hx      4    bbb     H2    123 0.12219000   1.008000   ; qtot 4.211459
  124         c3      4    bbb     C2    124 -0.07020100  12.010000   ; qtot 4.141258
  125         hx      4    bbb     H3    125 0.12219000   1.008000   ; qtot 4.263448
  126         hx      4    bbb     H4    126 0.12219000   1.008000   ; qtot 4.385638
  127         c3      4    bbb     C3    127 -0.39007700  12.010000   ; qtot 3.995561
  128         hx      4    bbb     H5    128 0.14940300   1.008000   ; qtot 4.144964
  129         hx      4    bbb     H6    129 0.14940300   1.008000   ; qtot 4.294367
  130         c3      4    bbb     C4    130 0.18057300  12.010000   ; qtot 4.474940
  131         hc      4    bbb     H7    131 0.01788900   1.008000   ; qtot 4.492829
  132         hc      4    bbb     H8    132 0.01788900   1.008000   ; qtot 4.510718
  133         c3      4    bbb     C5    133 -0.11337700  12.010000   ; qtot 4.397341
  134         hc      4    bbb     H9    134 0.09515400   1.008000   ; qtot 4.492495
  135         hc      4    bbb    H10    135 0.09515400   1.008000   ; qtot 4.587649
  136         c3      4    bbb     C6    136 -0.11337700  12.010000   ; qtot 4.474272
  137         hc      4    bbb    H11    137 0.09515400   1.008000   ; qtot 4.569426
  138         hc      4    bbb    H12    138 0.09515400   1.008000   ; qtot 4.664580
  139         c3      4    bbb     C7    139 0.21842400  12.010000   ; qtot 4.883004
  140         h1      4    bbb    H13    140 0.04500300   1.008000   ; qtot 4.928007
  141         h1      4    bbb    H14    141 0.04500300   1.008000   ; qtot 4.973010
  142         c3      4    bbb     C8    142 -0.06455200  12.010000   ; qtot 4.908458
  143         h1      4    bbb    H15    143 0.13554100   1.008000   ; qtot 5.043999
  144         h1      4    bbb    H16    144 0.13554100   1.008000   ; qtot 5.179540
  145         c3      4    bbb     C9    145 -0.06455200  12.010000   ; qtot 5.114988
  146         h1      4    bbb    H17    146 0.13554100   1.008000   ; qtot 5.250529
  147         h1      4    bbb    H18    147 0.13554100   1.008000   ; qtot 5.386070
  148         os      4    bbb     O1    148 -0.62587700  16.000000   ; qtot 4.760193
  149         hn      4    bbb    H19    149 0.23982500   1.008000   ; qtot 5.000018
; residue    5 bbb rtp bbb q 1.0
  150         n4      5    bbb     N1    150 0.03726400  14.010000   ; qtot 5.037282
  151         c3      5    bbb     C1    151 -0.07020100  12.010000   ; qtot 4.967081
  152         hx      5    bbb     H1    152 0.12219000   1.008000   ; qtot 5.089271
  153         hx      5    bbb     H2    153 0.12219000   1.008000   ; qtot 5.211461
  154         c3      5    bbb     C2    154 -0.07020100  12.010000   ; qtot 5.141260
  155         hx      5    bbb     H3    155 0.12219000   1.008000   ; qtot 5.263450
  156         hx      5    bbb     H4    156 0.12219000   1.008000   ; qtot 5.385640
  157         c3      5    bbb     C3    157 -0.39007700  12.010000   ; qtot 4.995563
  158         hx      5    bbb     H5    158 0.14940300   1.008000   ; qtot 5.144966
  159         hx      5    bbb     H6    159 0.14940300   1.008000   ; qtot 5.294369
  160         c3      5    bbb     C4    160 0.18057300  12.010000   ; qtot 5.474942
  161         hc      5    bbb     H7    161 0.01788900   1.008000   ; qtot 5.492831
  162         hc      5    bbb     H8    162 0.01788900   1.008000   ; qtot 5.510720
  163         c3      5    bbb     C5    163 -0.11337700  12.010000   ; qtot 5.397343
  164         hc      5    bbb     H9    164 0.09515400   1.008000   ; qtot 5.492497
  165         hc      5    bbb    H10    165 0.09515400   1.008000   ; qtot 5.587651
  166         c3      5    bbb     C6    166 -0.11337700  12.010000   ; qtot 5.474274
  167         hc      5    bbb    H11    167 0.09515400   1.008000   ; qtot 5.569428
  168         hc      5    bbb    H12    168 0.09515400   1.008000   ; qtot 5.664582
  169         c3      5    bbb     C7    169 0.21842400  12.010000   ; qtot 5.883006
  170         h1      5    bbb    H13    170 0.04500300   1.008000   ; qtot 5.928009
  171         h1      5    bbb    H14    171 0.04500300   1.008000   ; qtot 5.973012
  172         c3      5    bbb     C8    172 -0.06455200  12.010000   ; qtot 5.908460
  173         h1      5    bbb    H15    173 0.13554100   1.008000   ; qtot 6.044001
  174         h1      5    bbb    H16    174 0.13554100   1.008000   ; qtot 6.179542
  175         c3      5    bbb     C9    175 -0.06455200  12.010000   ; qtot 6.114990
  176         h1      5    bbb    H17    176 0.13554100   1.008000   ; qtot 6.250531
  177         h1      5    bbb    H18    177 0.13554100   1.008000   ; qtot 6.386072
  178         os      5    bbb     O1    178 -0.62587700  16.000000   ; qtot 5.760195
  179         hn      5    bbb    H19    179 0.23982500   1.008000   ; qtot 6.000020
; residue    6 bbb rtp bbb q 1.0
  180         n4      6    bbb     N1    180 0.03726400  14.010000   ; qtot 6.037284
  181         c3      6    bbb     C1    181 -0.07020100  12.010000   ; qtot 5.967083
  182         hx      6    bbb     H1    182 0.12219000   1.008000   ; qtot 6.089273
  183         hx      6    bbb     H2    183 0.12219000   1.008000   ; qtot 6.211463
  184         c3      6    bbb     C2    184 -0.07020100  12.010000   ; qtot 6.141262
  185         hx      6    bbb     H3    185 0.12219000   1.008000   ; qtot 6.263452
  186         hx      6    bbb     H4    186 0.12219000   1.008000   ; qtot 6.385642
  187         c3      6    bbb     C3    187 -0.39007700  12.010000   ; qtot 5.995565
  188         hx      6    bbb     H5    188 0.14940300   1.008000   ; qtot 6.144968
  189         hx      6    bbb     H6    189 0.14940300   1.008000   ; qtot 6.294371
  190         c3      6    bbb     C4    190 0.18057300  12.010000   ; qtot 6.474944
  191         hc      6    bbb     H7    191 0.01788900   1.008000   ; qtot 6.492833
  192         hc      6    bbb     H8    192 0.01788900   1.008000   ; qtot 6.510722
  193         c3      6    bbb     C5    193 -0.11337700  12.010000   ; qtot 6.397345
  194         hc      6    bbb     H9    194 0.09515400   1.008000   ; qtot 6.492499
  195         hc      6    bbb    H10    195 0.09515400   1.008000   ; qtot 6.587653
  196         c3      6    bbb     C6    196 -0.11337700  12.010000   ; qtot 6.474276
  197         hc      6    bbb    H11    197 0.09515400   1.008000   ; qtot 6.569430
  198         hc      6    bbb    H12    198 0.09515400   1.008000   ; qtot 6.664584
  199         c3      6    bbb     C7    199 0.21842400  12.010000   ; qtot 6.883008
  200         h1      6    bbb    H13    200 0.04500300   1.008000   ; qtot 6.928011
  201         h1      6    bbb    H14    201 0.04500300   1.008000   ; qtot 6.973014
  202         c3      6    bbb     C8    202 -0.06455200  12.010000   ; qtot 6.908462
  203         h1      6    bbb    H15    203 0.13554100   1.008000   ; qtot 7.044003
  204         h1      6    bbb    H16    204 0.13554100   1.008000   ; qtot 7.179544
  205         c3      6    bbb     C9    205 -0.06455200  12.010000   ; qtot 7.114992
  206         h1      6    bbb    H17    206 0.13554100   1.008000   ; qtot 7.250533
  207         h1      6    bbb    H18    207 0.13554100   1.008000   ; qtot 7.386074
  208         os      6    bbb     O1    208 -0.62587700  16.000000   ; qtot 6.760197
  209         hn      6    bbb    H19    209 0.23982500   1.008000   ; qtot 7.000022
; residue    7 bbb rtp bbb q 1.0
  210         n4      7    bbb     N1    210 0.03726400  14.010000   ; qtot 7.037286
  211         c3      7    bbb     C1    211 -0.07020100  12.010000   ; qtot 6.967085
  212         hx      7    bbb     H1    212 0.12219000   1.008000   ; qtot 7.089275
  213         hx      7    bbb     H2    213 0.12219000   1.008000   ; qtot 7.211465
  214         c3      7    bbb     C2    214 -0.07020100  12.010000   ; qtot 7.141264
  215         hx      7    bbb     H3    215 0.12219000   1.008000   ; qtot 7.263454
  216         hx      7    bbb     H4    216 0.12219000   1.008000   ; qtot 7.385644
  217         c3      7    bbb     C3    217 -0.39007700  12.010000   ; qtot 6.995567
  218         hx      7    bbb     H5    218 0.14940300   1.008000   ; qtot 7.144970
  219         hx      7    bbb     H6    219 0.14940300   1.008000   ; qtot 7.294373
  220         c3      7    bbb     C4    220 0.18057300  12.010000   ; qtot 7.474946
  221         hc      7    bbb     H7    221 0.01788900   1.008000   ; qtot 7.492835
  222         hc      7    bbb     H8    222 0.01788900   1.008000   ; qtot 7.510724
  223         c3      7    bbb     C5    223 -0.11337700  12.010000   ; qtot 7.397347
  224         hc      7    bbb     H9    224 0.09515400   1.008000   ; qtot 7.492501
  225         hc      7    bbb    H10    225 0.09515400   1.008000   ; qtot 7.587655
  226         c3      7    bbb     C6    226 -0.11337700  12.010000   ; qtot 7.474278
  227         hc      7    bbb    H11    227 0.09515400   1.008000   ; qtot 7.569432
  228         hc      7    bbb    H12    228 0.09515400   1.008000   ; qtot 7.664586
  229         c3      7    bbb     C7    229 0.21842400  12.010000   ; qtot 7.883010
  230         h1      7    bbb    H13    230 0.04500300   1.008000   ; qtot 7.928013
  231         h1      7    bbb    H14    231 0.04500300   1.008000   ; qtot 7.973016
  232         c3      7    bbb     C8    232 -0.06455200  12.010000   ; qtot 7.908464
  233         h1      7    bbb    H15    233 0.13554100   1.008000   ; qtot 8.044005
  234         h1      7    bbb    H16    234 0.13554100   1.008000   ; qtot 8.179546
  235         c3      7    bbb     C9    235 -0.06455200  12.010000   ; qtot 8.114994
  236         h1      7    bbb    H17    236 0.13554100   1.008000   ; qtot 8.250535
  237         h1      7    bbb    H18    237 0.13554100   1.008000   ; qtot 8.386076
  238         os      7    bbb     O1    238 -0.62587700  16.000000   ; qtot 7.760199
  239         hn      7    bbb    H19    239 0.23982500   1.008000   ; qtot 8.000024
; residue    8 bbb rtp bbb q 1.0
  240         n4      8    bbb     N1    240 0.03726400  14.010000   ; qtot 8.037288
  241         c3      8    bbb     C1    241 -0.07020100  12.010000   ; qtot 7.967087
  242         hx      8    bbb     H1    242 0.12219000   1.008000   ; qtot 8.089277
  243         hx      8    bbb     H2    243 0.12219000   1.008000   ; qtot 8.211467
  244         c3      8    bbb     C2    244 -0.07020100  12.010000   ; qtot 8.141266
  245         hx      8    bbb     H3    245 0.12219000   1.008000   ; qtot 8.263456
  246         hx      8    bbb     H4    246 0.12219000   1.008000   ; qtot 8.385646
  247         c3      8    bbb     C3    247 -0.39007700  12.010000   ; qtot 7.995569
  248         hx      8    bbb     H5    248 0.14940300   1.008000   ; qtot 8.144972
  249         hx      8    bbb     H6    249 0.14940300   1.008000   ; qtot 8.294375
  250         c3      8    bbb     C4    250 0.18057300  12.010000   ; qtot 8.474948
  251         hc      8    bbb     H7    251 0.01788900   1.008000   ; qtot 8.492837
  252         hc      8    bbb     H8    252 0.01788900   1.008000   ; qtot 8.510726
  253         c3      8    bbb     C5    253 -0.11337700  12.010000   ; qtot 8.397349
  254         hc      8    bbb     H9    254 0.09515400   1.008000   ; qtot 8.492503
  255         hc      8    bbb    H10    255 0.09515400   1.008000   ; qtot 8.587657
  256         c3      8    bbb     C6    256 -0.11337700  12.010000   ; qtot 8.474280
  257         hc      8    bbb    H11    257 0.09515400   1.008000   ; qtot 8.569434
  258         hc      8    bbb    H12    258 0.09515400   1.008000   ; qtot 8.664588
  259         c3      8    bbb     C7    259 0.21842400  12.010000   ; qtot 8.883012
  260         h1      8    bbb    H13    260 0.04500300   1.008000   ; qtot 8.928015
  261         h1      8    bbb    H14    261 0.04500300   1.008000   ; qtot 8.973018
  262         c3      8    bbb     C8    262 -0.06455200  12.010000   ; qtot 8.908466
  263         h1      8    bbb    H15    263 0.13554100   1.008000   ; qtot 9.044007
  264         h1      8    bbb    H16    264 0.13554100   1.008000   ; qtot 9.179548
  265         c3      8    bbb     C9    265 -0.06455200  12.010000   ; qtot 9.114996
  266         h1      8    bbb    H17    266 0.13554100   1.008000   ; qtot 9.250537
  267         h1      8    bbb    H18    267 0.13554100   1.008000   ; qtot 9.386078
  268         os      8    bbb     O1    268 -0.62587700  16.000000   ; qtot 8.760201
  269         hn      8    bbb    H19    269 0.23982500   1.008000   ; qtot 9.000026
; residue    9 bbb rtp bbb q 1.0
  270         n4      9    bbb     N1    270 0.03726400  14.010000   ; qtot 9.037290
  271         c3      9    bbb     C1    271 -0.07020100  12.010000   ; qtot 8.967089
  272         hx      9    bbb     H1    272 0.12219000   1.008000   ; qtot 9.089279
  273         hx      9    bbb     H2    273 0.12219000   1.008000   ; qtot 9.211469
  274         c3      9    bbb     C2    274 -0.07020100  12.010000   ; qtot 9.141268
  275         hx      9    bbb     H3    275 0.12219000   1.008000   ; qtot 9.263458
  276         hx      9    bbb     H4    276 0.12219000   1.008000   ; qtot 9.385648
  277         c3      9    bbb     C3    277 -0.39007700  12.010000   ; qtot 8.995571
  278         hx      9    bbb     H5    278 0.14940300   1.008000   ; qtot 9.144974
  279         hx      9    bbb     H6    279 0.14940300   1.008000   ; qtot 9.294377
  280         c3      9    bbb     C4    280 0.18057300  12.010000   ; qtot 9.474950
  281         hc      9    bbb     H7    281 0.01788900   1.008000   ; qtot 9.492839
  282         hc      9    bbb     H8    282 0.01788900   1.008000   ; qtot 9.510728
  283         c3      9    bbb     C5    283 -0.11337700  12.010000   ; qtot 9.397351
  284         hc      9    bbb     H9    284 0.09515400   1.008000   ; qtot 9.492505
  285         hc      9    bbb    H10    285 0.09515400   1.008000   ; qtot 9.587659
  286         c3      9    bbb     C6    286 -0.11337700  12.010000   ; qtot 9.474282
  287         hc      9    bbb    H11    287 0.09515400   1.008000   ; qtot 9.569436
  288         hc      9    bbb    H12    288 0.09515400   1.008000   ; qtot 9.664590
  289         c3      9    bbb     C7    289 0.21842400  12.010000   ; qtot 9.883014
  290         h1      9    bbb    H13    290 0.04500300   1.008000   ; qtot 9.928017
  291         h1      9    bbb    H14    291 0.04500300   1.008000   ; qtot 9.973020
  292         c3      9    bbb     C8    292 -0.06455200  12.010000   ; qtot 9.908468
  293         h1      9    bbb    H15    293 0.13554100   1.008000   ; qtot 10.044009
  294         h1      9    bbb    H16    294 0.13554100   1.008000   ; qtot 10.179550
  295         c3      9    bbb     C9    295 -0.06455200  12.010000   ; qtot 10.114998
  296         h1      9    bbb    H17    296 0.13554100   1.008000   ; qtot 10.250539
  297         h1      9    bbb    H18    297 0.13554100   1.008000   ; qtot 10.386080
  298         os      9    bbb     O1    298 -0.62587700  16.000000   ; qtot 9.760203
  299         hn      9    bbb    H19    299 0.23982500   1.008000   ; qtot 10.000028
; residue   10 bbb rtp bbb q 1.0
  300         n4     10    bbb     N1    300 0.03726400  14.010000   ; qtot 10.037292
  301         c3     10    bbb     C1    301 -0.07020100  12.010000   ; qtot 9.967091
  302         hx     10    bbb     H1    302 0.12219000   1.008000   ; qtot 10.089281
  303         hx     10    bbb     H2    303 0.12219000   1.008000   ; qtot 10.211471
  304         c3     10    bbb     C2    304 -0.07020100  12.010000   ; qtot 10.141270
  305         hx     10    bbb     H3    305 0.12219000   1.008000   ; qtot 10.263460
  306         hx     10    bbb     H4    306 0.12219000   1.008000   ; qtot 10.385650
  307         c3     10    bbb     C3    307 -0.39007700  12.010000   ; qtot 9.995573
  308         hx     10    bbb     H5    308 0.14940300   1.008000   ; qtot 10.144976
  309         hx     10    bbb     H6    309 0.14940300   1.008000   ; qtot 10.294379
  310         c3     10    bbb     C4    310 0.18057300  12.010000   ; qtot 10.474952
  311         hc     10    bbb     H7    311 0.01788900   1.008000   ; qtot 10.492841
  312         hc     10    bbb     H8    312 0.01788900   1.008000   ; qtot 10.510730
  313         c3     10    bbb     C5    313 -0.11337700  12.010000   ; qtot 10.397353
  314         hc     10    bbb     H9    314 0.09515400   1.008000   ; qtot 10.492507
  315         hc     10    bbb    H10    315 0.09515400   1.008000   ; qtot 10.587661
  316         c3     10    bbb     C6    316 -0.11337700  12.010000   ; qtot 10.474284
  317         hc     10    bbb    H11    317 0.09515400   1.008000   ; qtot 10.569438
  318         hc     10    bbb    H12    318 0.09515400   1.008000   ; qtot 10.664592
  319         c3     10    bbb     C7    319 0.21842400  12.010000   ; qtot 10.883016
  320         h1     10    bbb    H13    320 0.04500300   1.008000   ; qtot 10.928019
  321         h1     10    bbb    H14    321 0.04500300   1.008000   ; qtot 10.973022
  322         c3     10    bbb     C8    322 -0.06455200  12.010000   ; qtot 10.908470
  323         h1     10    bbb    H15    323 0.13554100   1.008000   ; qtot 11.044011
  324         h1     10    bbb    H16    324 0.13554100   1.008000   ; qtot 11.179552
  325         c3     10    bbb     C9    325 -0.06455200  12.010000   ; qtot 11.115000
  326         h1     10    bbb    H17    326 0.13554100   1.008000   ; qtot 11.250541
  327         h1     10    bbb    H18    327 0.13554100   1.008000   ; qtot 11.386082
  328         os     10    bbb     O1    328 -0.62587700  16.000000   ; qtot 10.760205
  329         hn     10    bbb    H19    329 0.23982500   1.008000   ; qtot 11.000030
; residue   11 bbb rtp bbb q 1.0
  330         n4     11    bbb     N1    330 0.03726400  14.010000   ; qtot 11.037294
  331         c3     11    bbb     C1    331 -0.07020100  12.010000   ; qtot 10.967093
  332         hx     11    bbb     H1    332 0.12219000   1.008000   ; qtot 11.089283
  333         hx     11    bbb     H2    333 0.12219000   1.008000   ; qtot 11.211473
  334         c3     11    bbb     C2    334 -0.07020100  12.010000   ; qtot 11.141272
  335         hx     11    bbb     H3    335 0.12219000   1.008000   ; qtot 11.263462
  336         hx     11    bbb     H4    336 0.12219000   1.008000   ; qtot 11.385652
  337         c3     11    bbb     C3    337 -0.39007700  12.010000   ; qtot 10.995575
  338         hx     11    bbb     H5    338 0.14940300   1.008000   ; qtot 11.144978
  339         hx     11    bbb     H6    339 0.14940300   1.008000   ; qtot 11.294381
  340         c3     11    bbb     C4    340 0.18057300  12.010000   ; qtot 11.474954
  341         hc     11    bbb     H7    341 0.01788900   1.008000   ; qtot 11.492843
  342         hc     11    bbb     H8    342 0.01788900   1.008000   ; qtot 11.510732
  343         c3     11    bbb     C5    343 -0.11337700  12.010000   ; qtot 11.397355
  344         hc     11    bbb     H9    344 0.09515400   1.008000   ; qtot 11.492509
  345         hc     11    bbb    H10    345 0.09515400   1.008000   ; qtot 11.587663
  346         c3     11    bbb     C6    346 -0.11337700  12.010000   ; qtot 11.474286
  347         hc     11    bbb    H11    347 0.09515400   1.008000   ; qtot 11.569440
  348         hc     11    bbb    H12    348 0.09515400   1.008000   ; qtot 11.664594
  349         c3     11    bbb     C7    349 0.21842400  12.010000   ; qtot 11.883018
  350         h1     11    bbb    H13    350 0.04500300   1.008000   ; qtot 11.928021
  351         h1     11    bbb    H14    351 0.04500300   1.008000   ; qtot 11.973024
  352         c3     11    bbb     C8    352 -0.06455200  12.010000   ; qtot 11.908472
  353         h1     11    bbb    H15    353 0.13554100   1.008000   ; qtot 12.044013
  354         h1     11    bbb    H16    354 0.13554100   1.008000   ; qtot 12.179554
  355         c3     11    bbb     C9    355 -0.06455200  12.010000   ; qtot 12.115002
  356         h1     11    bbb    H17    356 0.13554100   1.008000   ; qtot 12.250543
  357         h1     11    bbb    H18    357 0.13554100   1.008000   ; qtot 12.386084
  358         os     11    bbb     O1    358 -0.62587700  16.000000   ; qtot 11.760207
  359         hn     11    bbb    H19    359 0.23982500   1.008000   ; qtot 12.000032
; residue   12 bbb rtp bbb q 1.0
  360         n4     12    bbb     N1    360 0.03726400  14.010000   ; qtot 12.037296
  361         c3     12    bbb     C1    361 -0.07020100  12.010000   ; qtot 11.967095
  362         hx     12    bbb     H1    362 0.12219000   1.008000   ; qtot 12.089285
  363         hx     12    bbb     H2    363 0.12219000   1.008000   ; qtot 12.211475
  364         c3     12    bbb     C2    364 -0.07020100  12.010000   ; qtot 12.141274
  365         hx     12    bbb     H3    365 0.12219000   1.008000   ; qtot 12.263464
  366         hx     12    bbb     H4    366 0.12219000   1.008000   ; qtot 12.385654
  367         c3     12    bbb     C3    367 -0.39007700  12.010000   ; qtot 11.995577
  368         hx     12    bbb     H5    368 0.14940300   1.008000   ; qtot 12.144980
  369         hx     12    bbb     H6    369 0.14940300   1.008000   ; qtot 12.294383
  370         c3     12    bbb     C4    370 0.18057300  12.010000   ; qtot 12.474956
  371         hc     12    bbb     H7    371 0.01788900   1.008000   ; qtot 12.492845
  372         hc     12    bbb     H8    372 0.01788900   1.008000   ; qtot 12.510734
  373         c3     12    bbb     C5    373 -0.11337700  12.010000   ; qtot 12.397357
  374         hc     12    bbb     H9    374 0.09515400   1.008000   ; qtot 12.492511
  375         hc     12    bbb    H10    375 0.09515400   1.008000   ; qtot 12.587665
  376         c3     12    bbb     C6    376 -0.11337700  12.010000   ; qtot 12.474288
  377         hc     12    bbb    H11    377 0.09515400   1.008000   ; qtot 12.569442
  378         hc     12    bbb    H12    378 0.09515400   1.008000   ; qtot 12.664596
  379         c3     12    bbb     C7    379 0.21842400  12.010000   ; qtot 12.883020
  380         h1     12    bbb    H13    380 0.04500300   1.008000   ; qtot 12.928023
  381         h1     12    bbb    H14    381 0.04500300   1.008000   ; qtot 12.973026
  382         c3     12    bbb     C8    382 -0.06455200  12.010000   ; qtot 12.908474
  383         h1     12    bbb    H15    383 0.13554100   1.008000   ; qtot 13.044015
  384         h1     12    bbb    H16    384 0.13554100   1.008000   ; qtot 13.179556
  385         c3     12    bbb     C9    385 -0.06455200  12.010000   ; qtot 13.115004
  386         h1     12    bbb    H17    386 0.13554100   1.008000   ; qtot 13.250545
  387         h1     12    bbb    H18    387 0.13554100   1.008000   ; qtot 13.386086
  388         os     12    bbb     O1    388 -0.62587700  16.000000   ; qtot 12.760209
  389         hn     12    bbb    H19    389 0.23982500   1.008000   ; qtot 13.000034
; residue   13 bbb rtp bbb q 1.0
  390         n4     13    bbb     N1    390 0.03726400  14.010000   ; qtot 13.037298
  391         c3     13    bbb     C1    391 -0.07020100  12.010000   ; qtot 12.967097
  392         hx     13    bbb     H1    392 0.12219000   1.008000   ; qtot 13.089287
  393         hx     13    bbb     H2    393 0.12219000   1.008000   ; qtot 13.211477
  394         c3     13    bbb     C2    394 -0.07020100  12.010000   ; qtot 13.141276
  395         hx     13    bbb     H3    395 0.12219000   1.008000   ; qtot 13.263466
  396         hx     13    bbb     H4    396 0.12219000   1.008000   ; qtot 13.385656
  397         c3     13    bbb     C3    397 -0.39007700  12.010000   ; qtot 12.995579
  398         hx     13    bbb     H5    398 0.14940300   1.008000   ; qtot 13.144982
  399         hx     13    bbb     H6    399 0.14940300   1.008000   ; qtot 13.294385
  400         c3     13    bbb     C4    400 0.18057300  12.010000   ; qtot 13.474958
  401         hc     13    bbb     H7    401 0.01788900   1.008000   ; qtot 13.492847
  402         hc     13    bbb     H8    402 0.01788900   1.008000   ; qtot 13.510736
  403         c3     13    bbb     C5    403 -0.11337700  12.010000   ; qtot 13.397359
  404         hc     13    bbb     H9    404 0.09515400   1.008000   ; qtot 13.492513
  405         hc     13    bbb    H10    405 0.09515400   1.008000   ; qtot 13.587667
  406         c3     13    bbb     C6    406 -0.11337700  12.010000   ; qtot 13.474290
  407         hc     13    bbb    H11    407 0.09515400   1.008000   ; qtot 13.569444
  408         hc     13    bbb    H12    408 0.09515400   1.008000   ; qtot 13.664598
  409         c3     13    bbb     C7    409 0.21842400  12.010000   ; qtot 13.883022
  410         h1     13    bbb    H13    410 0.04500300   1.008000   ; qtot 13.928025
  411         h1     13    bbb    H14    411 0.04500300   1.008000   ; qtot 13.973028
  412         c3     13    bbb     C8    412 -0.06455200  12.010000   ; qtot 13.908476
  413         h1     13    bbb    H15    413 0.13554100   1.008000   ; qtot 14.044017
  414         h1     13    bbb    H16    414 0.13554100   1.008000   ; qtot 14.179558
  415         c3     13    bbb     C9    415 -0.06455200  12.010000   ; qtot 14.115006
  416         h1     13    bbb    H17    416 0.13554100   1.008000   ; qtot 14.250547
  417         h1     13    bbb    H18    417 0.13554100   1.008000   ; qtot 14.386088
  418         os     13    bbb     O1    418 -0.62587700  16.000000   ; qtot 13.760211
  419         hn     13    bbb    H19    419 0.23982500   1.008000   ; qtot 14.000036
; residue   14 ccc rtp ccc q 1.0
  420         c3     14    ccc     C1    420 0.17060900  12.010000   ; qtot 14.170645
  421         hx     14    ccc     H1    421 0.04213200   1.008000   ; qtot 14.212777
  422         hx     14    ccc     H2    422 0.04213200   1.008000   ; qtot 14.254909
  423         c3     14    ccc     C2    423 -0.04496700  12.010000   ; qtot 14.209942
  424         hc     14    ccc     H3    424 0.02647500   1.008000   ; qtot 14.236417
  425         hc     14    ccc     H4    425 0.02647500   1.008000   ; qtot 14.262892
  426         c3     14    ccc     C3    426 0.04732600  12.010000   ; qtot 14.310218
  427         h1     14    ccc     H5    427 0.07030200   1.008000   ; qtot 14.380520
  428         h1     14    ccc     H6    428 0.07030200   1.008000   ; qtot 14.450822
  429         n4     14    ccc     N1    429 -0.21077700  14.010000   ; qtot 14.240045
  430         hn     14    ccc     H7    430 0.28399900   1.008000   ; qtot 14.524044
  431         hn     14    ccc     H8    431 0.28399900   1.008000   ; qtot 14.808043
  432         os     14    ccc     O1    432 -0.09200600  16.000000   ; qtot 14.716037
  433         hn     14    ccc    H17    433 0.28399900   1.008000   ; qtot 15.000036
; residue   15 ccc rtp ccc q 1.0
  434         c3     15    ccc     C1    434 0.17060900  12.010000   ; qtot 15.170645
  435         hx     15    ccc     H1    435 0.04213200   1.008000   ; qtot 15.212777
  436         hx     15    ccc     H2    436 0.04213200   1.008000   ; qtot 15.254909
  437         c3     15    ccc     C2    437 -0.04496700  12.010000   ; qtot 15.209942
  438         hc     15    ccc     H3    438 0.02647500   1.008000   ; qtot 15.236417
  439         hc     15    ccc     H4    439 0.02647500   1.008000   ; qtot 15.262892
  440         c3     15    ccc     C3    440 0.04732600  12.010000   ; qtot 15.310218
  441         h1     15    ccc     H5    441 0.07030200   1.008000   ; qtot 15.380520
  442         h1     15    ccc     H6    442 0.07030200   1.008000   ; qtot 15.450822
  443         n4     15    ccc     N1    443 -0.21077700  14.010000   ; qtot 15.240045
  444         hn     15    ccc     H7    444 0.28399900   1.008000   ; qtot 15.524044
  445         hn     15    ccc     H8    445 0.28399900   1.008000   ; qtot 15.808043
  446         os     15    ccc     O1    446 -0.09200600  16.000000   ; qtot 15.716037
  447         hn     15    ccc    H17    447 0.28399900   1.008000   ; qtot 16.000036
; residue   16 ccc rtp ccc q 1.0
  448         c3     16    ccc     C1    448 0.17060900  12.010000   ; qtot 16.170645
  449         hx     16    ccc     H1    449 0.04213200   1.008000   ; qtot 16.212777
  450         hx     16    ccc     H2    450 0.04213200   1.008000   ; qtot 16.254909
  451         c3     16    ccc     C2    451 -0.04496700  12.010000   ; qtot 16.209942
  452         hc     16    ccc     H3    452 0.02647500   1.008000   ; qtot 16.236417
  453         hc     16    ccc     H4    453 0.02647500   1.008000   ; qtot 16.262892
  454         c3     16    ccc     C3    454 0.04732600  12.010000   ; qtot 16.310218
  455         h1     16    ccc     H5    455 0.07030200   1.008000   ; qtot 16.380520
  456         h1     16    ccc     H6    456 0.07030200   1.008000   ; qtot 16.450822
  457         n4     16    ccc     N1    457 -0.21077700  14.010000   ; qtot 16.240045
  458         hn     16    ccc     H7    458 0.28399900   1.008000   ; qtot 16.524044
  459         hn     16    ccc     H8    459 0.28399900   1.008000   ; qtot 16.808043
  460         os     16    ccc     O1    460 -0.09200600  16.000000   ; qtot 16.716037
  461         hn     16    ccc    H17    461 0.28399900   1.008000   ; qtot 17.000036
; residue   17 ccc rtp ccc q 1.0
  462         c3     17    ccc     C1    462 0.17060900  12.010000   ; qtot 17.170645
  463         hx     17    ccc     H1    463 0.04213200   1.008000   ; qtot 17.212777
  464         hx     17    ccc     H2    464 0.04213200   1.008000   ; qtot 17.254909
  465         c3     17    ccc     C2    465 -0.04496700  12.010000   ; qtot 17.209942
  466         hc     17    ccc     H3    466 0.02647500   1.008000   ; qtot 17.236417
  467         hc     17    ccc     H4    467 0.02647500   1.008000   ; qtot 17.262892
  468         c3     17    ccc     C3    468 0.04732600  12.010000   ; qtot 17.310218
  469         h1     17    ccc     H5    469 0.07030200   1.008000   ; qtot 17.380520
  470         h1     17    ccc     H6    470 0.07030200   1.008000   ; qtot 17.450822
  471         n4     17    ccc     N1    471 -0.21077700  14.010000   ; qtot 17.240045
  472         hn     17    ccc     H7    472 0.28399900   1.008000   ; qtot 17.524044
  473         hn     17    ccc     H8    473 0.28399900   1.008000   ; qtot 17.808043
  474         os     17    ccc     O1    474 -0.09200600  16.000000   ; qtot 17.716037
  475         hn     17    ccc    H17    475 0.28399900   1.008000   ; qtot 18.000036
; residue   18 ccc rtp ccc q 1.0
  476         c3     18    ccc     C1    476 0.17060900  12.010000   ; qtot 18.170645
  477         hx     18    ccc     H1    477 0.04213200   1.008000   ; qtot 18.212777
  478         hx     18    ccc     H2    478 0.04213200   1.008000   ; qtot 18.254909
  479         c3     18    ccc     C2    479 -0.04496700  12.010000   ; qtot 18.209942
  480         hc     18    ccc     H3    480 0.02647500   1.008000   ; qtot 18.236417
  481         hc     18    ccc     H4    481 0.02647500   1.008000   ; qtot 18.262892
  482         c3     18    ccc     C3    482 0.04732600  12.010000   ; qtot 18.310218
  483         h1     18    ccc     H5    483 0.07030200   1.008000   ; qtot 18.380520
  484         h1     18    ccc     H6    484 0.07030200   1.008000   ; qtot 18.450822
  485         n4     18    ccc     N1    485 -0.21077700  14.010000   ; qtot 18.240045
  486         hn     18    ccc     H7    486 0.28399900   1.008000   ; qtot 18.524044
  487         hn     18    ccc     H8    487 0.28399900   1.008000   ; qtot 18.808043
  488         os     18    ccc     O1    488 -0.09200600  16.000000   ; qtot 18.716037
  489         hn     18    ccc    H17    489 0.28399900   1.008000   ; qtot 19.000036
; residue   19 ccc rtp ccc q 1.0
  490         c3     19    ccc     C1    490 0.17060900  12.010000   ; qtot 19.170645
  491         hx     19    ccc     H1    491 0.04213200   1.008000   ; qtot 19.212777
  492         hx     19    ccc     H2    492 0.04213200   1.008000   ; qtot 19.254909
  493         c3     19    ccc     C2    493 -0.04496700  12.010000   ; qtot 19.209942
  494         hc     19    ccc     H3    494 0.02647500   1.008000   ; qtot 19.236417
  495         hc     19    ccc     H4    495 0.02647500   1.008000   ; qtot 19.262892
  496         c3     19    ccc     C3    496 0.04732600  12.010000   ; qtot 19.310218
  497         h1     19    ccc     H5    497 0.07030200   1.008000   ; qtot 19.380520
  498         h1     19    ccc     H6    498 0.07030200   1.008000   ; qtot 19.450822
  499         n4     19    ccc     N1    499 -0.21077700  14.010000   ; qtot 19.240045
  500         hn     19    ccc     H7    500 0.28399900   1.008000   ; qtot 19.524044
  501         hn     19    ccc     H8    501 0.28399900   1.008000   ; qtot 19.808043
  502         os     19    ccc     O1    502 -0.09200600  16.000000   ; qtot 19.716037
  503         hn     19    ccc    H17    503 0.28399900   1.008000   ; qtot 20.000036
; residue   20 ccc rtp ccc q 1.0
  504         c3     20    ccc     C1    504 0.17060900  12.010000   ; qtot 20.170645
  505         hx     20    ccc     H1    505 0.04213200   1.008000   ; qtot 20.212777
  506         hx     20    ccc     H2    506 0.04213200   1.008000   ; qtot 20.254909
  507         c3     20    ccc     C2    507 -0.04496700  12.010000   ; qtot 20.209942
  508         hc     20    ccc     H3    508 0.02647500   1.008000   ; qtot 20.236417
  509         hc     20    ccc     H4    509 0.02647500   1.008000   ; qtot 20.262892
  510         c3     20    ccc     C3    510 0.04732600  12.010000   ; qtot 20.310218
  511         h1     20    ccc     H5    511 0.07030200   1.008000   ; qtot 20.380520
  512         h1     20    ccc     H6    512 0.07030200   1.008000   ; qtot 20.450822
  513         n4     20    ccc     N1    513 -0.21077700  14.010000   ; qtot 20.240045
  514         hn     20    ccc     H7    514 0.28399900   1.008000   ; qtot 20.524044
  515         hn     20    ccc     H8    515 0.28399900   1.008000   ; qtot 20.808043
  516         os     20    ccc     O1    516 -0.09200600  16.000000   ; qtot 20.716037
  517         hn     20    ccc    H17    517 0.28399900   1.008000   ; qtot 21.000036
; residue   21 ccc rtp ccc q 1.0
  518         c3     21    ccc     C1    518 0.17060900  12.010000   ; qtot 21.170645
  519         hx     21    ccc     H1    519 0.04213200   1.008000   ; qtot 21.212777
  520         hx     21    ccc     H2    520 0.04213200   1.008000   ; qtot 21.254909
  521         c3     21    ccc     C2    521 -0.04496700  12.010000   ; qtot 21.209942
  522         hc     21    ccc     H3    522 0.02647500   1.008000   ; qtot 21.236417
  523         hc     21    ccc     H4    523 0.02647500   1.008000   ; qtot 21.262892
  524         c3     21    ccc     C3    524 0.04732600  12.010000   ; qtot 21.310218
  525         h1     21    ccc     H5    525 0.07030200   1.008000   ; qtot 21.380520
  526         h1     21    ccc     H6    526 0.07030200   1.008000   ; qtot 21.450822
  527         n4     21    ccc     N1    527 -0.21077700  14.010000   ; qtot 21.240045
  528         hn     21    ccc     H7    528 0.28399900   1.008000   ; qtot 21.524044
  529         hn     21    ccc     H8    529 0.28399900   1.008000   ; qtot 21.808043
  530         os     21    ccc     O1    530 -0.09200600  16.000000   ; qtot 21.716037
  531         hn     21    ccc    H17    531 0.28399900   1.008000   ; qtot 22.000036
; residue   22 ccc rtp ccc q 1.0
  532         c3     22    ccc     C1    532 0.17060900  12.010000   ; qtot 22.170645
  533         hx     22    ccc     H1    533 0.04213200   1.008000   ; qtot 22.212777
  534         hx     22    ccc     H2    534 0.04213200   1.008000   ; qtot 22.254909
  535         c3     22    ccc     C2    535 -0.04496700  12.010000   ; qtot 22.209942
  536         hc     22    ccc     H3    536 0.02647500   1.008000   ; qtot 22.236417
  537         hc     22    ccc     H4    537 0.02647500   1.008000   ; qtot 22.262892
  538         c3     22    ccc     C3    538 0.04732600  12.010000   ; qtot 22.310218
  539         h1     22    ccc     H5    539 0.07030200   1.008000   ; qtot 22.380520
  540         h1     22    ccc     H6    540 0.07030200   1.008000   ; qtot 22.450822
  541         n4     22    ccc     N1    541 -0.21077700  14.010000   ; qtot 22.240045
  542         hn     22    ccc     H7    542 0.28399900   1.008000   ; qtot 22.524044
  543         hn     22    ccc     H8    543 0.28399900   1.008000   ; qtot 22.808043
  544         os     22    ccc     O1    544 -0.09200600  16.000000   ; qtot 22.716037
  545         hn     22    ccc    H17    545 0.28399900   1.008000   ; qtot 23.000036
; residue   23 ccc rtp ccc q 1.0
  546         c3     23    ccc     C1    546 0.17060900  12.010000   ; qtot 23.170645
  547         hx     23    ccc     H1    547 0.04213200   1.008000   ; qtot 23.212777
  548         hx     23    ccc     H2    548 0.04213200   1.008000   ; qtot 23.254909
  549         c3     23    ccc     C2    549 -0.04496700  12.010000   ; qtot 23.209942
  550         hc     23    ccc     H3    550 0.02647500   1.008000   ; qtot 23.236417
  551         hc     23    ccc     H4    551 0.02647500   1.008000   ; qtot 23.262892
  552         c3     23    ccc     C3    552 0.04732600  12.010000   ; qtot 23.310218
  553         h1     23    ccc     H5    553 0.07030200   1.008000   ; qtot 23.380520
  554         h1     23    ccc     H6    554 0.07030200   1.008000   ; qtot 23.450822
  555         n4     23    ccc     N1    555 -0.21077700  14.010000   ; qtot 23.240045
  556         hn     23    ccc     H7    556 0.28399900   1.008000   ; qtot 23.524044
  557         hn     23    ccc     H8    557 0.28399900   1.008000   ; qtot 23.808043
  558         os     23    ccc     O1    558 -0.09200600  16.000000   ; qtot 23.716037
  559         hn     23    ccc    H17    559 0.28399900   1.008000   ; qtot 24.000036
; residue   24 ccc rtp ccc q 1.0
  560         c3     24    ccc     C1    560 0.17060900  12.010000   ; qtot 24.170645
  561         hx     24    ccc     H1    561 0.04213200   1.008000   ; qtot 24.212777
  562         hx     24    ccc     H2    562 0.04213200   1.008000   ; qtot 24.254909
  563         c3     24    ccc     C2    563 -0.04496700  12.010000   ; qtot 24.209942
  564         hc     24    ccc     H3    564 0.02647500   1.008000   ; qtot 24.236417
  565         hc     24    ccc     H4    565 0.02647500   1.008000   ; qtot 24.262892
  566         c3     24    ccc     C3    566 0.04732600  12.010000   ; qtot 24.310218
  567         h1     24    ccc     H5    567 0.07030200   1.008000   ; qtot 24.380520
  568         h1     24    ccc     H6    568 0.07030200   1.008000   ; qtot 24.450822
  569         n4     24    ccc     N1    569 -0.21077700  14.010000   ; qtot 24.240045
  570         hn     24    ccc     H7    570 0.28399900   1.008000   ; qtot 24.524044
  571         hn     24    ccc     H8    571 0.28399900   1.008000   ; qtot 24.808043
  572         os     24    ccc     O1    572 -0.09200600  16.000000   ; qtot 24.716037
  573         hn     24    ccc    H17    573 0.28399900   1.008000   ; qtot 25.000036
; residue   25 ccc rtp ccc q 1.0
  574         c3     25    ccc     C1    574 0.17060900  12.010000   ; qtot 25.170645
  575         hx     25    ccc     H1    575 0.04213200   1.008000   ; qtot 25.212777
  576         hx     25    ccc     H2    576 0.04213200   1.008000   ; qtot 25.254909
  577         c3     25    ccc     C2    577 -0.04496700  12.010000   ; qtot 25.209942
  578         hc     25    ccc     H3    578 0.02647500   1.008000   ; qtot 25.236417
  579         hc     25    ccc     H4    579 0.02647500   1.008000   ; qtot 25.262892
  580         c3     25    ccc     C3    580 0.04732600  12.010000   ; qtot 25.310218
  581         h1     25    ccc     H5    581 0.07030200   1.008000   ; qtot 25.380520
  582         h1     25    ccc     H6    582 0.07030200   1.008000   ; qtot 25.450822
  583         n4     25    ccc     N1    583 -0.21077700  14.010000   ; qtot 25.240045
  584         hn     25    ccc     H7    584 0.28399900   1.008000   ; qtot 25.524044
  585         hn     25    ccc     H8    585 0.28399900   1.008000   ; qtot 25.808043
  586         os     25    ccc     O1    586 -0.09200600  16.000000   ; qtot 25.716037
  587         hn     25    ccc    H17    587 0.28399900   1.008000   ; qtot 26.000036
; residue   26 ccc rtp ccc q 1.0
  588         c3     26    ccc     C1    588 0.17060900  12.010000   ; qtot 26.170645
  589         hx     26    ccc     H1    589 0.04213200   1.008000   ; qtot 26.212777
  590         hx     26    ccc     H2    590 0.04213200   1.008000   ; qtot 26.254909
  591         c3     26    ccc     C2    591 -0.04496700  12.010000   ; qtot 26.209942
  592         hc     26    ccc     H3    592 0.02647500   1.008000   ; qtot 26.236417
  593         hc     26    ccc     H4    593 0.02647500   1.008000   ; qtot 26.262892
  594         c3     26    ccc     C3    594 0.04732600  12.010000   ; qtot 26.310218
  595         h1     26    ccc     H5    595 0.07030200   1.008000   ; qtot 26.380520
  596         h1     26    ccc     H6    596 0.07030200   1.008000   ; qtot 26.450822
  597         n4     26    ccc     N1    597 -0.21077700  14.010000   ; qtot 26.240045
  598         hn     26    ccc     H7    598 0.28399900   1.008000   ; qtot 26.524044
  599         hn     26    ccc     H8    599 0.28399900   1.008000   ; qtot 26.808043
  600         os     26    ccc     O1    600 -0.09200600  16.000000   ; qtot 26.716037
  601         hn     26    ccc    H17    601 0.28399900   1.008000   ; qtot 27.000036
; residue   27 ccc rtp ccc q 1.0
  602         c3     27    ccc     C1    602 0.17060900  12.010000   ; qtot 27.170645
  603         hx     27    ccc     H1    603 0.04213200   1.008000   ; qtot 27.212777
  604         hx     27    ccc     H2    604 0.04213200   1.008000   ; qtot 27.254909
  605         c3     27    ccc     C2    605 -0.04496700  12.010000   ; qtot 27.209942
  606         hc     27    ccc     H3    606 0.02647500   1.008000   ; qtot 27.236417
  607         hc     27    ccc     H4    607 0.02647500   1.008000   ; qtot 27.262892
  608         c3     27    ccc     C3    608 0.04732600  12.010000   ; qtot 27.310218
  609         h1     27    ccc     H5    609 0.07030200   1.008000   ; qtot 27.380520
  610         h1     27    ccc     H6    610 0.07030200   1.008000   ; qtot 27.450822
  611         n4     27    ccc     N1    611 -0.21077700  14.010000   ; qtot 27.240045
  612         hn     27    ccc     H7    612 0.28399900   1.008000   ; qtot 27.524044
  613         hn     27    ccc     H8    613 0.28399900   1.008000   ; qtot 27.808043
  614         os     27    ccc     O1    614 -0.09200600  16.000000   ; qtot 27.716037
  615         hn     27    ccc    H17    615 0.28399900   1.008000   ; qtot 28.000036
; residue   28 ccc rtp ccc q 1.0
  616         c3     28    ccc     C1    616 0.17060900  12.010000   ; qtot 28.170645
  617         hx     28    ccc     H1    617 0.04213200   1.008000   ; qtot 28.212777
  618         hx     28    ccc     H2    618 0.04213200   1.008000   ; qtot 28.254909
  619         c3     28    ccc     C2    619 -0.04496700  12.010000   ; qtot 28.209942
  620         hc     28    ccc     H3    620 0.02647500   1.008000   ; qtot 28.236417
  621         hc     28    ccc     H4    621 0.02647500   1.008000   ; qtot 28.262892
  622         c3     28    ccc     C3    622 0.04732600  12.010000   ; qtot 28.310218
  623         h1     28    ccc     H5    623 0.07030200   1.008000   ; qtot 28.380520
  624         h1     28    ccc     H6    624 0.07030200   1.008000   ; qtot 28.450822
  625         n4     28    ccc     N1    625 -0.21077700  14.010000   ; qtot 28.240045
  626         hn     28    ccc     H7    626 0.28399900   1.008000   ; qtot 28.524044
  627         hn     28    ccc     H8    627 0.28399900   1.008000   ; qtot 28.808043
  628         os     28    ccc     O1    628 -0.09200600  16.000000   ; qtot 28.716037
  629         hn     28    ccc    H17    629 0.28399900   1.008000   ; qtot 29.000036
; residue   29 ccc rtp ccc q 1.0
  630         c3     29    ccc     C1    630 0.17060900  12.010000   ; qtot 29.170645
  631         hx     29    ccc     H1    631 0.04213200   1.008000   ; qtot 29.212777
  632         hx     29    ccc     H2    632 0.04213200   1.008000   ; qtot 29.254909
  633         c3     29    ccc     C2    633 -0.04496700  12.010000   ; qtot 29.209942
  634         hc     29    ccc     H3    634 0.02647500   1.008000   ; qtot 29.236417
  635         hc     29    ccc     H4    635 0.02647500   1.008000   ; qtot 29.262892
  636         c3     29    ccc     C3    636 0.04732600  12.010000   ; qtot 29.310218
  637         h1     29    ccc     H5    637 0.07030200   1.008000   ; qtot 29.380520
  638         h1     29    ccc     H6    638 0.07030200   1.008000   ; qtot 29.450822
  639         n4     29    ccc     N1    639 -0.21077700  14.010000   ; qtot 29.240045
  640         hn     29    ccc     H7    640 0.28399900   1.008000   ; qtot 29.524044
  641         hn     29    ccc     H8    641 0.28399900   1.008000   ; qtot 29.808043
  642         os     29    ccc     O1    642 -0.09200600  16.000000   ; qtot 29.716037
  643         hn     29    ccc    H17    643 0.28399900   1.008000   ; qtot 30.000036

[ bonds ]
;    ai     aj funct         c0         c1         c2         c3
      1      2     1   0.14316 258236.480000
      1      5     1   0.14316 258236.480000
      2      8     1   0.15375 251793.120000
      5     11     1   0.15375 251793.120000
      8     14     1   0.15375 251793.120000
     11     17     1   0.15375 251793.120000
     14     20     1   0.15110 237065.440000
     17     21     1   0.15110 237065.440000
     20     28     1   0.15110 237065.440000
     20     31     1   0.15110 237065.440000
     21     22     1   0.15110 237065.440000
     21     25     1   0.15110 237065.440000
     22     34     1   0.15375 251793.120000
     25     37     1   0.15375 251793.120000
     28     40     1   0.15375 251793.120000
     31     43     1   0.15375 251793.120000
     34     55     1   0.15375 251793.120000
     37     52     1   0.15375 251793.120000
     40     49     1   0.15375 251793.120000
     43     46     1   0.15375 251793.120000
     46     88     1   0.14316 258236.480000
     49    118     1   0.14316 258236.480000
     52    148     1   0.14316 258236.480000
     55    178     1   0.14316 258236.480000
     60     61     1   0.15110 237065.440000
     60     64     1   0.15110 237065.440000
     60     67     1   0.15110 237065.440000
     61     73     1   0.15375 251793.120000
     64     76     1   0.15375 251793.120000
     67     70     1   0.15375 251793.120000
     70     79     1   0.15375 251793.120000
     73     85     1   0.15375 251793.120000
     76     82     1   0.15375 251793.120000
     79     88     1   0.14316 258236.480000
     82    208     1   0.14316 258236.480000
     85    238     1   0.14316 258236.480000
     90     91     1   0.15110 237065.440000
     90     94     1   0.15110 237065.440000
     90     97     1   0.15110 237065.440000
     91    103     1   0.15375 251793.120000
     94    106     1   0.15375 251793.120000
     97    100     1   0.15375 251793.120000
    100    109     1   0.15375 251793.120000
    103    115     1   0.15375 251793.120000
    106    112     1   0.15375 251793.120000
    109    118     1   0.14316 258236.480000
    112    268     1   0.14316 258236.480000
    115    298     1   0.14316 258236.480000
    120    121     1   0.15110 237065.440000
    120    124     1   0.15110 237065.440000
    120    127     1   0.15110 237065.440000
    121    133     1   0.15375 251793.120000
    124    136     1   0.15375 251793.120000
    127    130     1   0.15375 251793.120000
    130    139     1   0.15375 251793.120000
    133    145     1   0.15375 251793.120000
    136    142     1   0.15375 251793.120000
    139    148     1   0.14316 258236.480000
    142    328     1   0.14316 258236.480000
    145    358     1   0.14316 258236.480000
    150    151     1   0.15110 237065.440000
    150    154     1   0.15110 237065.440000
    150    157     1   0.15110 237065.440000
    151    163     1   0.15375 251793.120000
    154    166     1   0.15375 251793.120000
    157    160     1   0.15375 251793.120000
    160    169     1   0.15375 251793.120000
    163    175     1   0.15375 251793.120000
    166    172     1   0.15375 251793.120000
    169    178     1   0.14316 258236.480000
    172    388     1   0.14316 258236.480000
    175    418     1   0.14316 258236.480000
    180    181     1   0.15110 237065.440000
    180    184     1   0.15110 237065.440000
    180    187     1   0.15110 237065.440000
    181    193     1   0.15375 251793.120000
    184    196     1   0.15375 251793.120000
    187    190     1   0.15375 251793.120000
    190    199     1   0.15375 251793.120000
    193    205     1   0.15375 251793.120000
    196    202     1   0.15375 251793.120000
    199    208     1   0.14316 258236.480000
    202    432     1   0.14316 258236.480000
    205    446     1   0.14316 258236.480000
    210    211     1   0.15110 237065.440000
    210    214     1   0.15110 237065.440000
    210    217     1   0.15110 237065.440000
    211    223     1   0.15375 251793.120000
    214    226     1   0.15375 251793.120000
    217    220     1   0.15375 251793.120000
    220    229     1   0.15375 251793.120000
    223    235     1   0.15375 251793.120000
    226    232     1   0.15375 251793.120000
    229    238     1   0.14316 258236.480000
    232    460     1   0.14316 258236.480000
    235    474     1   0.14316 258236.480000
    240    241     1   0.15110 237065.440000
    240    244     1   0.15110 237065.440000
    240    247     1   0.15110 237065.440000
    241    253     1   0.15375 251793.120000
    244    256     1   0.15375 251793.120000
    247    250     1   0.15375 251793.120000
    250    259     1   0.15375 251793.120000
    253    265     1   0.15375 251793.120000
    256    262     1   0.15375 251793.120000
    259    268     1   0.14316 258236.480000
    262    488     1   0.14316 258236.480000
    265    502     1   0.14316 258236.480000
    270    271     1   0.15110 237065.440000
    270    274     1   0.15110 237065.440000
    270    277     1   0.15110 237065.440000
    271    283     1   0.15375 251793.120000
    274    286     1   0.15375 251793.120000
    277    280     1   0.15375 251793.120000
    280    289     1   0.15375 251793.120000
    283    295     1   0.15375 251793.120000
    286    292     1   0.15375 251793.120000
    289    298     1   0.14316 258236.480000
    292    516     1   0.14316 258236.480000
    295    530     1   0.14316 258236.480000
    300    301     1   0.15110 237065.440000
    300    304     1   0.15110 237065.440000
    300    307     1   0.15110 237065.440000
    301    313     1   0.15375 251793.120000
    304    316     1   0.15375 251793.120000
    307    310     1   0.15375 251793.120000
    310    319     1   0.15375 251793.120000
    313    325     1   0.15375 251793.120000
    316    322     1   0.15375 251793.120000
    319    328     1   0.14316 258236.480000
    322    544     1   0.14316 258236.480000
    325    558     1   0.14316 258236.480000
    330    331     1   0.15110 237065.440000
    330    334     1   0.15110 237065.440000
    330    337     1   0.15110 237065.440000
    331    343     1   0.15375 251793.120000
    334    346     1   0.15375 251793.120000
    337    340     1   0.15375 251793.120000
    340    349     1   0.15375 251793.120000
    343    355     1   0.15375 251793.120000
    346    352     1   0.15375 251793.120000
    349    358     1   0.14316 258236.480000
    352    572     1   0.14316 258236.480000
    355    586     1   0.14316 258236.480000
    360    361     1   0.15110 237065.440000
    360    364     1   0.15110 237065.440000
    360    367     1   0.15110 237065.440000
    361    373     1   0.15375 251793.120000
    364    376     1   0.15375 251793.120000
    367    370     1   0.15375 251793.120000
    370    379     1   0.15375 251793.120000
    373    385     1   0.15375 251793.120000
    376    382     1   0.15375 251793.120000
    379    388     1   0.14316 258236.480000
    382    600     1   0.14316 258236.480000
    385    614     1   0.14316 258236.480000
    390    391     1   0.15110 237065.440000
    390    394     1   0.15110 237065.440000
    390    397     1   0.15110 237065.440000
    391    403     1   0.15375 251793.120000
    394    406     1   0.15375 251793.120000
    397    400     1   0.15375 251793.120000
    400    409     1   0.15375 251793.120000
    403    415     1   0.15375 251793.120000
    406    412     1   0.15375 251793.120000
    409    418     1   0.14316 258236.480000
    412    628     1   0.14316 258236.480000
    415    642     1   0.14316 258236.480000
    420    423     1   0.15375 251793.120000
    420    429     1   0.15110 237065.440000
    423    426     1   0.15375 251793.120000
    426    432     1   0.14316 258236.480000
    434    437     1   0.15375 251793.120000
    434    443     1   0.15110 237065.440000
    437    440     1   0.15375 251793.120000
    440    446     1   0.14316 258236.480000
    448    451     1   0.15375 251793.120000
    448    457     1   0.15110 237065.440000
    451    454     1   0.15375 251793.120000
    454    460     1   0.14316 258236.480000
    462    465     1   0.15375 251793.120000
    462    471     1   0.15110 237065.440000
    465    468     1   0.15375 251793.120000
    468    474     1   0.14316 258236.480000
    476    479     1   0.15375 251793.120000
    476    485     1   0.15110 237065.440000
    479    482     1   0.15375 251793.120000
    482    488     1   0.14316 258236.480000
    490    493     1   0.15375 251793.120000
    490    499     1   0.15110 237065.440000
    493    496     1   0.15375 251793.120000
    496    502     1   0.14316 258236.480000
    504    507     1   0.15375 251793.120000
    504    513     1   0.15110 237065.440000
    507    510     1   0.15375 251793.120000
    510    516     1   0.14316 258236.480000
    518    521     1   0.15375 251793.120000
    518    527     1   0.15110 237065.440000
    521    524     1   0.15375 251793.120000
    524    530     1   0.14316 258236.480000
    532    535     1   0.15375 251793.120000
    532    541     1   0.15110 237065.440000
    535    538     1   0.15375 251793.120000
    538    544     1   0.14316 258236.480000
    546    549     1   0.15375 251793.120000
    546    555     1   0.15110 237065.440000
    549    552     1   0.15375 251793.120000
    552    558     1   0.14316 258236.480000
    560    563     1   0.15375 251793.120000
    560    569     1   0.15110 237065.440000
    563    566     1   0.15375 251793.120000
    566    572     1   0.14316 258236.480000
    574    577     1   0.15375 251793.120000
    574    583     1   0.15110 237065.440000
    577    580     1   0.15375 251793.120000
    580    586     1   0.14316 258236.480000
    588    591     1   0.15375 251793.120000
    588    597     1   0.15110 237065.440000
    591    594     1   0.15375 251793.120000
    594    600     1   0.14316 258236.480000
    602    605     1   0.15375 251793.120000
    602    611     1   0.15110 237065.440000
    605    608     1   0.15375 251793.120000
    608    614     1   0.14316 258236.480000
    616    619     1   0.15375 251793.120000
    616    625     1   0.15110 237065.440000
    619    622     1   0.15375 251793.120000
    622    628     1   0.14316 258236.480000
    630    633     1   0.15375 251793.120000
    630    639     1   0.15110 237065.440000
    633    636     1   0.15375 251793.120000
    636    642     1   0.14316 258236.480000
      2      3     1   0.10969 276646.080000
      2      4     1   0.10969 276646.080000
      5      6     1   0.10969 276646.080000
      5      7     1   0.10969 276646.080000
      8      9     1   0.10969 276646.080000
      8     10     1   0.10969 276646.080000
     11     12     1   0.10969 276646.080000
     11     13     1   0.10969 276646.080000
     14     15     1   0.10910 283424.160000
     14     16     1   0.10910 283424.160000
     17     18     1   0.10910 283424.160000
     17     19     1   0.10910 283424.160000
     20     58     1   0.10304 312293.760000
     21     59     1   0.10304 312293.760000
     22     23     1   0.10910 283424.160000
     22     24     1   0.10910 283424.160000
     25     26     1   0.10910 283424.160000
     25     27     1   0.10910 283424.160000
     28     29     1   0.10910 283424.160000
     28     30     1   0.10910 283424.160000
     31     32     1   0.10910 283424.160000
     31     33     1   0.10910 283424.160000
     34     35     1   0.10969 276646.080000
     34     36     1   0.10969 276646.080000
     37     38     1   0.10969 276646.080000
     37     39     1   0.10969 276646.080000
     40     41     1   0.10969 276646.080000
     40     42     1   0.10969 276646.080000
     43     44     1   0.10969 276646.080000
     43     45     1   0.10969 276646.080000
     46     47     1   0.10969 276646.080000
     46     48     1   0.10969 276646.080000
     49     50     1   0.10969 276646.080000
     49     51     1   0.10969 276646.080000
     52     53     1   0.10969 276646.080000
     52     54     1   0.10969 276646.080000
     55     56     1   0.10969 276646.080000
     55     57     1   0.10969 276646.080000
     60     89     1   0.10304 312293.760000
     61     62     1   0.10910 283424.160000
     61     63     1   0.10910 283424.160000
     64     65     1   0.10910 283424.160000
     64     66     1   0.10910 283424.160000
     67     68     1   0.10910 283424.160000
     67     69     1   0.10910 283424.160000
     70     71     1   0.10969 276646.080000
     70     72     1   0.10969 276646.080000
     73     74     1   0.10969 276646.080000
     73     75     1   0.10969 276646.080000
     76     77     1   0.10969 276646.080000
     76     78     1   0.10969 276646.080000
     79     80     1   0.10969 276646.080000
     79     81     1   0.10969 276646.080000
     82     83     1   0.10969 276646.080000
     82     84     1   0.10969 276646.080000
     85     86     1   0.10969 276646.080000
     85     87     1   0.10969 276646.080000
     90    119     1   0.10304 312293.760000
     91     92     1   0.10910 283424.160000
     91     93     1   0.10910 283424.160000
     94     95     1   0.10910 283424.160000
     94     96     1   0.10910 283424.160000
     97     98     1   0.10910 283424.160000
     97     99     1   0.10910 283424.160000
    100    101     1   0.10969 276646.080000
    100    102     1   0.10969 276646.080000
    103    104     1   0.10969 276646.080000
    103    105     1   0.10969 276646.080000
    106    107     1   0.10969 276646.080000
    106    108     1   0.10969 276646.080000
    109    110     1   0.10969 276646.080000
    109    111     1   0.10969 276646.080000
    112    113     1   0.10969 276646.080000
    112    114     1   0.10969 276646.080000
    115    116     1   0.10969 276646.080000
    115    117     1   0.10969 276646.080000
    120    149     1   0.10304 312293.760000
    121    122     1   0.10910 283424.160000
    121    123     1   0.10910 283424.160000
    124    125     1   0.10910 283424.160000
    124    126     1   0.10910 283424.160000
    127    128     1   0.10910 283424.160000
    127    129     1   0.10910 283424.160000
    130    131     1   0.10969 276646.080000
    130    132     1   0.10969 276646.080000
    133    134     1   0.10969 276646.080000
    133    135     1   0.10969 276646.080000
    136    137     1   0.10969 276646.080000
    136    138     1   0.10969 276646.080000
    139    140     1   0.10969 276646.080000
    139    141     1   0.10969 276646.080000
    142    143     1   0.10969 276646.080000
    142    144     1   0.10969 276646.080000
    145    146     1   0.10969 276646.080000
    145    147     1   0.10969 276646.080000
    150    179     1   0.10304 312293.760000
    151    152     1   0.10910 283424.160000
    151    153     1   0.10910 283424.160000
    154    155     1   0.10910 283424.160000
    154    156     1   0.10910 283424.160000
    157    158     1   0.10910 283424.160000
    157    159     1   0.10910 283424.160000
    160    161     1   0.10969 276646.080000
    160    162     1   0.10969 276646.080000
    163    164     1   0.10969 276646.080000
    163    165     1   0.10969 276646.080000
    166    167     1   0.10969 276646.080000
    166    168     1   0.10969 276646.080000
    169    170     1   0.10969 276646.080000
    169    171     1   0.10969 276646.080000
    172    173     1   0.10969 276646.080000
    172    174     1   0.10969 276646.080000
    175    176     1   0.10969 276646.080000
    175    177     1   0.10969 276646.080000
    180    209     1   0.10304 312293.760000
    181    182     1   0.10910 283424.160000
    181    183     1   0.10910 283424.160000
    184    185     1   0.10910 283424.160000
    184    186     1   0.10910 283424.160000
    187    188     1   0.10910 283424.160000
    187    189     1   0.10910 283424.160000
    190    191     1   0.10969 276646.080000
    190    192     1   0.10969 276646.080000
    193    194     1   0.10969 276646.080000
    193    195     1   0.10969 276646.080000
    196    197     1   0.10969 276646.080000
    196    198     1   0.10969 276646.080000
    199    200     1   0.10969 276646.080000
    199    201     1   0.10969 276646.080000
    202    203     1   0.10969 276646.080000
    202    204     1   0.10969 276646.080000
    205    206     1   0.10969 276646.080000
    205    207     1   0.10969 276646.080000
    210    239     1   0.10304 312293.760000
    211    212     1   0.10910 283424.160000
    211    213     1   0.10910 283424.160000
    214    215     1   0.10910 283424.160000
    214    216     1   0.10910 283424.160000
    217    218     1   0.10910 283424.160000
    217    219     1   0.10910 283424.160000
    220    221     1   0.10969 276646.080000
    220    222     1   0.10969 276646.080000
    223    224     1   0.10969 276646.080000
    223    225     1   0.10969 276646.080000
    226    227     1   0.10969 276646.080000
    226    228     1   0.10969 276646.080000
    229    230     1   0.10969 276646.080000
    229    231     1   0.10969 276646.080000
    232    233     1   0.10969 276646.080000
    232    234     1   0.10969 276646.080000
    235    236     1   0.10969 276646.080000
    235    237     1   0.10969 276646.080000
    240    269     1   0.10304 312293.760000
    241    242     1   0.10910 283424.160000
    241    243     1   0.10910 283424.160000
    244    245     1   0.10910 283424.160000
    244    246     1   0.10910 283424.160000
    247    248     1   0.10910 283424.160000
    247    249     1   0.10910 283424.160000
    250    251     1   0.10969 276646.080000
    250    252     1   0.10969 276646.080000
    253    254     1   0.10969 276646.080000
    253    255     1   0.10969 276646.080000
    256    257     1   0.10969 276646.080000
    256    258     1   0.10969 276646.080000
    259    260     1   0.10969 276646.080000
    259    261     1   0.10969 276646.080000
    262    263     1   0.10969 276646.080000
    262    264     1   0.10969 276646.080000
    265    266     1   0.10969 276646.080000
    265    267     1   0.10969 276646.080000
    270    299     1   0.10304 312293.760000
    271    272     1   0.10910 283424.160000
    271    273     1   0.10910 283424.160000
    274    275     1   0.10910 283424.160000
    274    276     1   0.10910 283424.160000
    277    278     1   0.10910 283424.160000
    277    279     1   0.10910 283424.160000
    280    281     1   0.10969 276646.080000
    280    282     1   0.10969 276646.080000
    283    284     1   0.10969 276646.080000
    283    285     1   0.10969 276646.080000
    286    287     1   0.10969 276646.080000
    286    288     1   0.10969 276646.080000
    289    290     1   0.10969 276646.080000
    289    291     1   0.10969 276646.080000
    292    293     1   0.10969 276646.080000
    292    294     1   0.10969 276646.080000
    295    296     1   0.10969 276646.080000
    295    297     1   0.10969 276646.080000
    300    329     1   0.10304 312293.760000
    301    302     1   0.10910 283424.160000
    301    303     1   0.10910 283424.160000
    304    305     1   0.10910 283424.160000
    304    306     1   0.10910 283424.160000
    307    308     1   0.10910 283424.160000
    307    309     1   0.10910 283424.160000
    310    311     1   0.10969 276646.080000
    310    312     1   0.10969 276646.080000
    313    314     1   0.10969 276646.080000
    313    315     1   0.10969 276646.080000
    316    317     1   0.10969 276646.080000
    316    318     1   0.10969 276646.080000
    319    320     1   0.10969 276646.080000
    319    321     1   0.10969 276646.080000
    322    323     1   0.10969 276646.080000
    322    324     1   0.10969 276646.080000
    325    326     1   0.10969 276646.080000
    325    327     1   0.10969 276646.080000
    330    359     1   0.10304 312293.760000
    331    332     1   0.10910 283424.160000
    331    333     1   0.10910 283424.160000
    334    335     1   0.10910 283424.160000
    334    336     1   0.10910 283424.160000
    337    338     1   0.10910 283424.160000
    337    339     1   0.10910 283424.160000
    340    341     1   0.10969 276646.080000
    340    342     1   0.10969 276646.080000
    343    344     1   0.10969 276646.080000
    343    345     1   0.10969 276646.080000
    346    347     1   0.10969 276646.080000
    346    348     1   0.10969 276646.080000
    349    350     1   0.10969 276646.080000
    349    351     1   0.10969 276646.080000
    352    353     1   0.10969 276646.080000
    352    354     1   0.10969 276646.080000
    355    356     1   0.10969 276646.080000
    355    357     1   0.10969 276646.080000
    360    389     1   0.10304 312293.760000
    361    362     1   0.10910 283424.160000
    361    363     1   0.10910 283424.160000
    364    365     1   0.10910 283424.160000
    364    366     1   0.10910 283424.160000
    367    368     1   0.10910 283424.160000
    367    369     1   0.10910 283424.160000
    370    371     1   0.10969 276646.080000
    370    372     1   0.10969 276646.080000
    373    374     1   0.10969 276646.080000
    373    375     1   0.10969 276646.080000
    376    377     1   0.10969 276646.080000
    376    378     1   0.10969 276646.080000
    379    380     1   0.10969 276646.080000
    379    381     1   0.10969 276646.080000
    382    383     1   0.10969 276646.080000
    382    384     1   0.10969 276646.080000
    385    386     1   0.10969 276646.080000
    385    387     1   0.10969 276646.080000
    390    419     1   0.10304 312293.760000
    391    392     1   0.10910 283424.160000
    391    393     1   0.10910 283424.160000
    394    395     1   0.10910 283424.160000
    394    396     1   0.10910 283424.160000
    397    398     1   0.10910 283424.160000
    397    399     1   0.10910 283424.160000
    400    401     1   0.10969 276646.080000
    400    402     1   0.10969 276646.080000
    403    404     1   0.10969 276646.080000
    403    405     1   0.10969 276646.080000
    406    407     1   0.10969 276646.080000
    406    408     1   0.10969 276646.080000
    409    410     1   0.10969 276646.080000
    409    411     1   0.10969 276646.080000
    412    413     1   0.10969 276646.080000
    412    414     1   0.10969 276646.080000
    415    416     1   0.10969 276646.080000
    415    417     1   0.10969 276646.080000
    420    421     1   0.10910 283424.160000
    420    422     1   0.10910 283424.160000
    423    424     1   0.10969 276646.080000
    423    425     1   0.10969 276646.080000
    426    427     1   0.10969 276646.080000
    426    428     1   0.10969 276646.080000
    429    430     1   0.10304 312293.760000
    429    431     1   0.10304 312293.760000
    429    433     1   0.10304 312293.760000
    434    435     1   0.10910 283424.160000
    434    436     1   0.10910 283424.160000
    437    438     1   0.10969 276646.080000
    437    439     1   0.10969 276646.080000
    440    441     1   0.10969 276646.080000
    440    442     1   0.10969 276646.080000
    443    444     1   0.10304 312293.760000
    443    445     1   0.10304 312293.760000
    443    447     1   0.10304 312293.760000
    448    449     1   0.10910 283424.160000
    448    450     1   0.10910 283424.160000
    451    452     1   0.10969 276646.080000
    451    453     1   0.10969 276646.080000
    454    455     1   0.10969 276646.080000
    454    456     1   0.10969 276646.080000
    457    458     1   0.10304 312293.760000
    457    459     1   0.10304 312293.760000
    457    461     1   0.10304 312293.760000
    462    463     1   0.10910 283424.160000
    462    464     1   0.10910 283424.160000
    465    466     1   0.10969 276646.080000
    465    467     1   0.10969 276646.080000
    468    469     1   0.10969 276646.080000
    468    470     1   0.10969 276646.080000
    471    472     1   0.10304 312293.760000
    471    473     1   0.10304 312293.760000
    471    475     1   0.10304 312293.760000
    476    477     1   0.10910 283424.160000
    476    478     1   0.10910 283424.160000
    479    480     1   0.10969 276646.080000
    479    481     1   0.10969 276646.080000
    482    483     1   0.10969 276646.080000
    482    484     1   0.10969 276646.080000
    485    486     1   0.10304 312293.760000
    485    487     1   0.10304 312293.760000
    485    489     1   0.10304 312293.760000
    490    491     1   0.10910 283424.160000
    490    492     1   0.10910 283424.160000
    493    494     1   0.10969 276646.080000
    493    495     1   0.10969 276646.080000
    496    497     1   0.10969 276646.080000
    496    498     1   0.10969 276646.080000
    499    500     1   0.10304 312293.760000
    499    501     1   0.10304 312293.760000
    499    503     1   0.10304 312293.760000
    504    505     1   0.10910 283424.160000
    504    506     1   0.10910 283424.160000
    507    508     1   0.10969 276646.080000
    507    509     1   0.10969 276646.080000
    510    511     1   0.10969 276646.080000
    510    512     1   0.10969 276646.080000
    513    514     1   0.10304 312293.760000
    513    515     1   0.10304 312293.760000
    513    517     1   0.10304 312293.760000
    518    519     1   0.10910 283424.160000
    518    520     1   0.10910 283424.160000
    521    522     1   0.10969 276646.080000
    521    523     1   0.10969 276646.080000
    524    525     1   0.10969 276646.080000
    524    526     1   0.10969 276646.080000
    527    528     1   0.10304 312293.760000
    527    529     1   0.10304 312293.760000
    527    531     1   0.10304 312293.760000
    532    533     1   0.10910 283424.160000
    532    534     1   0.10910 283424.160000
    535    536     1   0.10969 276646.080000
    535    537     1   0.10969 276646.080000
    538    539     1   0.10969 276646.080000
    538    540     1   0.10969 276646.080000
    541    542     1   0.10304 312293.760000
    541    543     1   0.10304 312293.760000
    541    545     1   0.10304 312293.760000
    546    547     1   0.10910 283424.160000
    546    548     1   0.10910 283424.160000
    549    550     1   0.10969 276646.080000
    549    551     1   0.10969 276646.080000
    552    553     1   0.10969 276646.080000
    552    554     1   0.10969 276646.080000
    555    556     1   0.10304 312293.760000
    555    557     1   0.10304 312293.760000
    555    559     1   0.10304 312293.760000
    560    561     1   0.10910 283424.160000
    560    562     1   0.10910 283424.160000
    563    564     1   0.10969 276646.080000
    563    565     1   0.10969 276646.080000
    566    567     1   0.10969 276646.080000
    566    568     1   0.10969 276646.080000
    569    570     1   0.10304 312293.760000
    569    571     1   0.10304 312293.760000
    569    573     1   0.10304 312293.760000
    574    575     1   0.10910 283424.160000
    574    576     1   0.10910 283424.160000
    577    578     1   0.10969 276646.080000
    577    579     1   0.10969 276646.080000
    580    581     1   0.10969 276646.080000
    580    582     1   0.10969 276646.080000
    583    584     1   0.10304 312293.760000
    583    585     1   0.10304 312293.760000
    583    587     1   0.10304 312293.760000
    588    589     1   0.10910 283424.160000
    588    590     1   0.10910 283424.160000
    591    592     1   0.10969 276646.080000
    591    593     1   0.10969 276646.080000
    594    595     1   0.10969 276646.080000
    594    596     1   0.10969 276646.080000
    597    598     1   0.10304 312293.760000
    597    599     1   0.10304 312293.760000
    597    601     1   0.10304 312293.760000
    602    603     1   0.10910 283424.160000
    602    604     1   0.10910 283424.160000
    605    606     1   0.10969 276646.080000
    605    607     1   0.10969 276646.080000
    608    609     1   0.10969 276646.080000
    608    610     1   0.10969 276646.080000
    611    612     1   0.10304 312293.760000
    611    613     1   0.10304 312293.760000
    611    615     1   0.10304 312293.760000
    616    617     1   0.10910 283424.160000
    616    618     1   0.10910 283424.160000
    619    620     1   0.10969 276646.080000
    619    621     1   0.10969 276646.080000
    622    623     1   0.10969 276646.080000
    622    624     1   0.10969 276646.080000
    625    626     1   0.10304 312293.760000
    625    627     1   0.10304 312293.760000
    625    629     1   0.10304 312293.760000
    630    631     1   0.10910 283424.160000
    630    632     1   0.10910 283424.160000
    633    634     1   0.10969 276646.080000
    633    635     1   0.10969 276646.080000
    636    637     1   0.10969 276646.080000
    636    638     1   0.10969 276646.080000
    639    640     1   0.10304 312293.760000
    639    641     1   0.10304 312293.760000
    639    643     1   0.10304 312293.760000

[ pairs ]
;    ai     aj funct         c0         c1         c2         c3
      1     14     1
      1     17     1
      2     11     1
      2     20     1
      5      8     1
      5     21     1
      8     28     1
      8     31     1
     11     22     1
     11     25     1
     14     40     1
     14     43     1
     17     34     1
     17     37     1
     20     49     1
     20     46     1
     21     55     1
     21     52     1
     22     37     1
     22    178     1
     25     34     1
     25    148     1
     28     43     1
     28    118     1
     31     40     1
     31     88     1
     34    169     1
     37    139     1
     40    109     1
     43     79     1
     46     70     1
     49    100     1
     52    130     1
     55    160     1
     60     85     1
     60     82     1
     60     79     1
     61     76     1
     61     70     1
     61    238     1
     64     73     1
     64     70     1
     64    208     1
     67     73     1
     67     76     1
     67     88     1
     73    229     1
     76    199     1
     82    190     1
     85    220     1
     90    115     1
     90    112     1
     90    109     1
     91    106     1
     91    100     1
     91    298     1
     94    103     1
     94    100     1
     94    268     1
     97    103     1
     97    106     1
     97    118     1
    103    289     1
    106    259     1
    112    250     1
    115    280     1
    120    145     1
    120    142     1
    120    139     1
    121    136     1
    121    130     1
    121    358     1
    124    133     1
    124    130     1
    124    328     1
    127    133     1
    127    136     1
    127    148     1
    133    349     1
    136    319     1
    142    310     1
    145    340     1
    150    175     1
    150    172     1
    150    169     1
    151    166     1
    151    160     1
    151    418     1
    154    163     1
    154    160     1
    154    388     1
    157    163     1
    157    166     1
    157    178     1
    163    409     1
    166    379     1
    172    370     1
    175    400     1
    180    205     1
    180    202     1
    180    199     1
    181    196     1
    181    190     1
    181    446     1
    184    193     1
    184    190     1
    184    432     1
    187    193     1
    187    196     1
    187    208     1
    193    440     1
    196    426     1
    202    423     1
    205    437     1
    210    235     1
    210    232     1
    210    229     1
    211    226     1
    211    220     1
    211    474     1
    214    223     1
    214    220     1
    214    460     1
    217    223     1
    217    226     1
    217    238     1
    223    468     1
    226    454     1
    232    451     1
    235    465     1
    240    265     1
    240    262     1
    240    259     1
    241    256     1
    241    250     1
    241    502     1
    244    253     1
    244    250     1
    244    488     1
    247    253     1
    247    256     1
    247    268     1
    253    496     1
    256    482     1
    262    479     1
    265    493     1
    270    295     1
    270    292     1
    270    289     1
    271    286     1
    271    280     1
    271    530     1
    274    283     1
    274    280     1
    274    516     1
    277    283     1
    277    286     1
    277    298     1
    283    524     1
    286    510     1
    292    507     1
    295    521     1
    300    325     1
    300    322     1
    300    319     1
    301    316     1
    301    310     1
    301    558     1
    304    313     1
    304    310     1
    304    544     1
    307    313     1
    307    316     1
    307    328     1
    313    552     1
    316    538     1
    322    535     1
    325    549     1
    330    355     1
    330    352     1
    330    349     1
    331    346     1
    331    340     1
    331    586     1
    334    343     1
    334    340     1
    334    572     1
    337    343     1
    337    346     1
    337    358     1
    343    580     1
    346    566     1
    352    563     1
    355    577     1
    360    385     1
    360    382     1
    360    379     1
    361    376     1
    361    370     1
    361    614     1
    364    373     1
    364    370     1
    364    600     1
    367    373     1
    367    376     1
    367    388     1
    373    608     1
    376    594     1
    382    591     1
    385    605     1
    390    415     1
    390    412     1
    390    409     1
    391    406     1
    391    400     1
    391    642     1
    394    403     1
    394    400     1
    394    628     1
    397    403     1
    397    406     1
    397    418     1
    403    636     1
    406    622     1
    412    619     1
    415    633     1
    420    432     1
    426    429     1
    434    446     1
    440    443     1
    448    460     1
    454    457     1
    462    474     1
    468    471     1
    476    488     1
    482    485     1
    490    502     1
    496    499     1
    504    516     1
    510    513     1
    518    530     1
    524    527     1
    532    544     1
    538    541     1
    546    558     1
    552    555     1
    560    572     1
    566    569     1
    574    586     1
    580    583     1
    588    600     1
    594    597     1
    602    614     1
    608    611     1
    616    628     1
    622    625     1
    630    642     1
    636    639     1
      1      9     1
      1     10     1
      1     12     1
      1     13     1
      2      6     1
      2      7     1
      2     15     1
      2     16     1
      5      3     1
      3     14     1
      3      9     1
      3     10     1
      5      4     1
      4     14     1
      4      9     1
      4     10     1
      5     18     1
      5     19     1
      6     17     1
      6     12     1
      6     13     1
      7     17     1
      7     12     1
      7     13     1
      8     58     1
      9     20     1
      9     15     1
      9     16     1
     10     20     1
     10     15     1
     10     16     1
     11     59     1
     12     21     1
     12     18     1
     12     19     1
     13     21     1
     13     18     1
     13     19     1
     14     29     1
     14     30     1
     14     32     1
     14     33     1
     15     28     1
     15     31     1
     15     58     1
     16     28     1
     16     31     1
     16     58     1
     17     23     1
     17     24     1
     17     26     1
     17     27     1
     18     22     1
     18     25     1
     18     59     1
     19     22     1
     19     25     1
     19     59     1
     20     41     1
     20     42     1
     20     44     1
     20     45     1
     21     35     1
     21     36     1
     21     38     1
     21     39     1
     22     26     1
     22     27     1
     22     56     1
     22     57     1
     23     25     1
     23     59     1
     23     55     1
     23     35     1
     23     36     1
     24     25     1
     24     59     1
     24     55     1
     24     35     1
     24     36     1
     25     53     1
     25     54     1
     26     59     1
     26     52     1
     26     38     1
     26     39     1
     27     59     1
     27     52     1
     27     38     1
     27     39     1
     28     32     1
     28     33     1
     28     50     1
     28     51     1
     29     31     1
     29     58     1
     29     49     1
     29     41     1
     29     42     1
     30     31     1
     30     58     1
     30     49     1
     30     41     1
     30     42     1
     31     47     1
     31     48     1
     32     58     1
     32     46     1
     32     44     1
     32     45     1
     33     58     1
     33     46     1
     33     44     1
     33     45     1
     34     59     1
     35    178     1
     35     56     1
     35     57     1
     36    178     1
     36     56     1
     36     57     1
     37     59     1
     38    148     1
     38     53     1
     38     54     1
     39    148     1
     39     53     1
     39     54     1
     40     58     1
     41    118     1
     41     50     1
     41     51     1
     42    118     1
     42     50     1
     42     51     1
     43     58     1
     44     88     1
     44     47     1
     44     48     1
     45     88     1
     45     47     1
     45     48     1
     46     80     1
     46     81     1
     47     79     1
     48     79     1
     49    110     1
     49    111     1
     50    109     1
     51    109     1
     52    140     1
     52    141     1
     53    139     1
     54    139     1
     55    170     1
     55    171     1
     56    169     1
     57    169     1
     60     74     1
     60     75     1
     60     77     1
     60     78     1
     60     71     1
     60     72     1
     61     65     1
     61     66     1
     61     68     1
     61     69     1
     61     86     1
     61     87     1
     62     64     1
     62     67     1
     62     89     1
     62     85     1
     62     74     1
     62     75     1
     63     64     1
     63     67     1
     63     89     1
     63     85     1
     63     74     1
     63     75     1
     64     68     1
     64     69     1
     64     83     1
     64     84     1
     65     67     1
     65     89     1
     65     82     1
     65     77     1
     65     78     1
     66     67     1
     66     89     1
     66     82     1
     66     77     1
     66     78     1
     67     80     1
     67     81     1
     68     89     1
     68     79     1
     68     71     1
     68     72     1
     69     89     1
     69     79     1
     69     71     1
     69     72     1
     70     89     1
     71     88     1
     71     80     1
     71     81     1
     72     88     1
     72     80     1
     72     81     1
     73     89     1
     74    238     1
     74     86     1
     74     87     1
     75    238     1
     75     86     1
     75     87     1
     76     89     1
     77    208     1
     77     83     1
     77     84     1
     78    208     1
     78     83     1
     78     84     1
     82    200     1
     82    201     1
     83    199     1
     84    199     1
     85    230     1
     85    231     1
     86    229     1
     87    229     1
     90    104     1
     90    105     1
     90    107     1
     90    108     1
     90    101     1
     90    102     1
     91     95     1
     91     96     1
     91     98     1
     91     99     1
     91    116     1
     91    117     1
     92     94     1
     92     97     1
     92    119     1
     92    115     1
     92    104     1
     92    105     1
     93     94     1
     93     97     1
     93    119     1
     93    115     1
     93    104     1
     93    105     1
     94     98     1
     94     99     1
     94    113     1
     94    114     1
     95     97     1
     95    119     1
     95    112     1
     95    107     1
     95    108     1
     96     97     1
     96    119     1
     96    112     1
     96    107     1
     96    108     1
     97    110     1
     97    111     1
     98    119     1
     98    109     1
     98    101     1
     98    102     1
     99    119     1
     99    109     1
     99    101     1
     99    102     1
    100    119     1
    101    118     1
    101    110     1
    101    111     1
    102    118     1
    102    110     1
    102    111     1
    103    119     1
    104    298     1
    104    116     1
    104    117     1
    105    298     1
    105    116     1
    105    117     1
    106    119     1
    107    268     1
    107    113     1
    107    114     1
    108    268     1
    108    113     1
    108    114     1
    112    260     1
    112    261     1
    113    259     1
    114    259     1
    115    290     1
    115    291     1
    116    289     1
    117    289     1
    120    134     1
    120    135     1
    120    137     1
    120    138     1
    120    131     1
    120    132     1
    121    125     1
    121    126     1
    121    128     1
    121    129     1
    121    146     1
    121    147     1
    122    124     1
    122    127     1
    122    149     1
    122    145     1
    122    134     1
    122    135     1
    123    124     1
    123    127     1
    123    149     1
    123    145     1
    123    134     1
    123    135     1
    124    128     1
    124    129     1
    124    143     1
    124    144     1
    125    127     1
    125    149     1
    125    142     1
    125    137     1
    125    138     1
    126    127     1
    126    149     1
    126    142     1
    126    137     1
    126    138     1
    127    140     1
    127    141     1
    128    149     1
    128    139     1
    128    131     1
    128    132     1
    129    149     1
    129    139     1
    129    131     1
    129    132     1
    130    149     1
    131    148     1
    131    140     1
    131    141     1
    132    148     1
    132    140     1
    132    141     1
    133    149     1
    134    358     1
    134    146     1
    134    147     1
    135    358     1
    135    146     1
    135    147     1
    136    149     1
    137    328     1
    137    143     1
    137    144     1
    138    328     1
    138    143     1
    138    144     1
    142    320     1
    142    321     1
    143    319     1
    144    319     1
    145    350     1
    145    351     1
    146    349     1
    147    349     1
    150    164     1
    150    165     1
    150    167     1
    150    168     1
    150    161     1
    150    162     1
    151    155     1
    151    156     1
    151    158     1
    151    159     1
    151    176     1
    151    177     1
    152    154     1
    152    157     1
    152    179     1
    152    175     1
    152    164     1
    152    165     1
    153    154     1
    153    157     1
    153    179     1
    153    175     1
    153    164     1
    153    165     1
    154    158     1
    154    159     1
    154    173     1
    154    174     1
    155    157     1
    155    179     1
    155    172     1
    155    167     1
    155    168     1
    156    157     1
    156    179     1
    156    172     1
    156    167     1
    156    168     1
    157    170     1
    157    171     1
    158    179     1
    158    169     1
    158    161     1
    158    162     1
    159    179     1
    159    169     1
    159    161     1
    159    162     1
    160    179     1
    161    178     1
    161    170     1
    161    171     1
    162    178     1
    162    170     1
    162    171     1
    163    179     1
    164    418     1
    164    176     1
    164    177     1
    165    418     1
    165    176     1
    165    177     1
    166    179     1
    167    388     1
    167    173     1
    167    174     1
    168    388     1
    168    173     1
    168    174     1
    172    380     1
    172    381     1
    173    379     1
    174    379     1
    175    410     1
    175    411     1
    176    409     1
    177    409     1
    180    194     1
    180    195     1
    180    197     1
    180    198     1
    180    191     1
    180    192     1
    181    185     1
    181    186     1
    181    188     1
    181    189     1
    181    206     1
    181    207     1
    182    184     1
    182    187     1
    182    209     1
    182    205     1
    182    194     1
    182    195     1
    183    184     1
    183    187     1
    183    209     1
    183    205     1
    183    194     1
    183    195     1
    184    188     1
    184    189     1
    184    203     1
    184    204     1
    185    187     1
    185    209     1
    185    202     1
    185    197     1
    185    198     1
    186    187     1
    186    209     1
    186    202     1
    186    197     1
    186    198     1
    187    200     1
    187    201     1
    188    209     1
    188    199     1
    188    191     1
    188    192     1
    189    209     1
    189    199     1
    189    191     1
    189    192     1
    190    209     1
    191    208     1
    191    200     1
    191    201     1
    192    208     1
    192    200     1
    192    201     1
    193    209     1
    194    446     1
    194    206     1
    194    207     1
    195    446     1
    195    206     1
    195    207     1
    196    209     1
    197    432     1
    197    203     1
    197    204     1
    198    432     1
    198    203     1
    198    204     1
    202    427     1
    202    428     1
    203    426     1
    204    426     1
    205    441     1
    205    442     1
    206    440     1
    207    440     1
    210    224     1
    210    225     1
    210    227     1
    210    228     1
    210    221     1
    210    222     1
    211    215     1
    211    216     1
    211    218     1
    211    219     1
    211    236     1
    211    237     1
    212    214     1
    212    217     1
    212    239     1
    212    235     1
    212    224     1
    212    225     1
    213    214     1
    213    217     1
    213    239     1
    213    235     1
    213    224     1
    213    225     1
    214    218     1
    214    219     1
    214    233     1
    214    234     1
    215    217     1
    215    239     1
    215    232     1
    215    227     1
    215    228     1
    216    217     1
    216    239     1
    216    232     1
    216    227     1
    216    228     1
    217    230     1
    217    231     1
    218    239     1
    218    229     1
    218    221     1
    218    222     1
    219    239     1
    219    229     1
    219    221     1
    219    222     1
    220    239     1
    221    238     1
    221    230     1
    221    231     1
    222    238     1
    222    230     1
    222    231     1
    223    239     1
    224    474     1
    224    236     1
    224    237     1
    225    474     1
    225    236     1
    225    237     1
    226    239     1
    227    460     1
    227    233     1
    227    234     1
    228    460     1
    228    233     1
    228    234     1
    232    455     1
    232    456     1
    233    454     1
    234    454     1
    235    469     1
    235    470     1
    236    468     1
    237    468     1
    240    254     1
    240    255     1
    240    257     1
    240    258     1
    240    251     1
    240    252     1
    241    245     1
    241    246     1
    241    248     1
    241    249     1
    241    266     1
    241    267     1
    242    244     1
    242    247     1
    242    269     1
    242    265     1
    242    254     1
    242    255     1
    243    244     1
    243    247     1
    243    269     1
    243    265     1
    243    254     1
    243    255     1
    244    248     1
    244    249     1
    244    263     1
    244    264     1
    245    247     1
    245    269     1
    245    262     1
    245    257     1
    245    258     1
    246    247     1
    246    269     1
    246    262     1
    246    257     1
    246    258     1
    247    260     1
    247    261     1
    248    269     1
    248    259     1
    248    251     1
    248    252     1
    249    269     1
    249    259     1
    249    251     1
    249    252     1
    250    269     1
    251    268     1
    251    260     1
    251    261     1
    252    268     1
    252    260     1
    252    261     1
    253    269     1
    254    502     1
    254    266     1
    254    267     1
    255    502     1
    255    266     1
    255    267     1
    256    269     1
    257    488     1
    257    263     1
    257    264     1
    258    488     1
    258    263     1
    258    264     1
    262    483     1
    262    484     1
    263    482     1
    264    482     1
    265    497     1
    265    498     1
    266    496     1
    267    496     1
    270    284     1
    270    285     1
    270    287     1
    270    288     1
    270    281     1
    270    282     1
    271    275     1
    271    276     1
    271    278     1
    271    279     1
    271    296     1
    271    297     1
    272    274     1
    272    277     1
    272    299     1
    272    295     1
    272    284     1
    272    285     1
    273    274     1
    273    277     1
    273    299     1
    273    295     1
    273    284     1
    273    285     1
    274    278     1
    274    279     1
    274    293     1
    274    294     1
    275    277     1
    275    299     1
    275    292     1
    275    287     1
    275    288     1
    276    277     1
    276    299     1
    276    292     1
    276    287     1
    276    288     1
    277    290     1
    277    291     1
    278    299     1
    278    289     1
    278    281     1
    278    282     1
    279    299     1
    279    289     1
    279    281     1
    279    282     1
    280    299     1
    281    298     1
    281    290     1
    281    291     1
    282    298     1
    282    290     1
    282    291     1
    283    299     1
    284    530     1
    284    296     1
    284    297     1
    285    530     1
    285    296     1
    285    297     1
    286    299     1
    287    516     1
    287    293     1
    287    294     1
    288    516     1
    288    293     1
    288    294     1
    292    511     1
    292    512     1
    293    510     1
    294    510     1
    295    525     1
    295    526     1
    296    524     1
    297    524     1
    300    314     1
    300    315     1
    300    317     1
    300    318     1
    300    311     1
    300    312     1
    301    305     1
    301    306     1
    301    308     1
    301    309     1
    301    326     1
    301    327     1
    302    304     1
    302    307     1
    302    329     1
    302    325     1
    302    314     1
    302    315     1
    303    304     1
    303    307     1
    303    329     1
    303    325     1
    303    314     1
    303    315     1
    304    308     1
    304    309     1
    304    323     1
    304    324     1
    305    307     1
    305    329     1
    305    322     1
    305    317     1
    305    318     1
    306    307     1
    306    329     1
    306    322     1
    306    317     1
    306    318     1
    307    320     1
    307    321     1
    308    329     1
    308    319     1
    308    311     1
    308    312     1
    309    329     1
    309    319     1
    309    311     1
    309    312     1
    310    329     1
    311    328     1
    311    320     1
    311    321     1
    312    328     1
    312    320     1
    312    321     1
    313    329     1
    314    558     1
    314    326     1
    314    327     1
    315    558     1
    315    326     1
    315    327     1
    316    329     1
    317    544     1
    317    323     1
    317    324     1
    318    544     1
    318    323     1
    318    324     1
    322    539     1
    322    540     1
    323    538     1
    324    538     1
    325    553     1
    325    554     1
    326    552     1
    327    552     1
    330    344     1
    330    345     1
    330    347     1
    330    348     1
    330    341     1
    330    342     1
    331    335     1
    331    336     1
    331    338     1
    331    339     1
    331    356     1
    331    357     1
    332    334     1
    332    337     1
    332    359     1
    332    355     1
    332    344     1
    332    345     1
    333    334     1
    333    337     1
    333    359     1
    333    355     1
    333    344     1
    333    345     1
    334    338     1
    334    339     1
    334    353     1
    334    354     1
    335    337     1
    335    359     1
    335    352     1
    335    347     1
    335    348     1
    336    337     1
    336    359     1
    336    352     1
    336    347     1
    336    348     1
    337    350     1
    337    351     1
    338    359     1
    338    349     1
    338    341     1
    338    342     1
    339    359     1
    339    349     1
    339    341     1
    339    342     1
    340    359     1
    341    358     1
    341    350     1
    341    351     1
    342    358     1
    342    350     1
    342    351     1
    343    359     1
    344    586     1
    344    356     1
    344    357     1
    345    586     1
    345    356     1
    345    357     1
    346    359     1
    347    572     1
    347    353     1
    347    354     1
    348    572     1
    348    353     1
    348    354     1
    352    567     1
    352    568     1
    353    566     1
    354    566     1
    355    581     1
    355    582     1
    356    580     1
    357    580     1
    360    374     1
    360    375     1
    360    377     1
    360    378     1
    360    371     1
    360    372     1
    361    365     1
    361    366     1
    361    368     1
    361    369     1
    361    386     1
    361    387     1
    362    364     1
    362    367     1
    362    389     1
    362    385     1
    362    374     1
    362    375     1
    363    364     1
    363    367     1
    363    389     1
    363    385     1
    363    374     1
    363    375     1
    364    368     1
    364    369     1
    364    383     1
    364    384     1
    365    367     1
    365    389     1
    365    382     1
    365    377     1
    365    378     1
    366    367     1
    366    389     1
    366    382     1
    366    377     1
    366    378     1
    367    380     1
    367    381     1
    368    389     1
    368    379     1
    368    371     1
    368    372     1
    369    389     1
    369    379     1
    369    371     1
    369    372     1
    370    389     1
    371    388     1
    371    380     1
    371    381     1
    372    388     1
    372    380     1
    372    381     1
    373    389     1
    374    614     1
    374    386     1
    374    387     1
    375    614     1
    375    386     1
    375    387     1
    376    389     1
    377    600     1
    377    383     1
    377    384     1
    378    600     1
    378    383     1
    378    384     1
    382    595     1
    382    596     1
    383    594     1
    384    594     1
    385    609     1
    385    610     1
    386    608     1
    387    608     1
    390    404     1
    390    405     1
    390    407     1
    390    408     1
    390    401     1
    390    402     1
    391    395     1
    391    396     1
    391    398     1
    391    399     1
    391    416     1
    391    417     1
    392    394     1
    392    397     1
    392    419     1
    392    415     1
    392    404     1
    392    405     1
    393    394     1
    393    397     1
    393    419     1
    393    415     1
    393    404     1
    393    405     1
    394    398     1
    394    399     1
    394    413     1
    394    414     1
    395    397     1
    395    419     1
    395    412     1
    395    407     1
    395    408     1
    396    397     1
    396    419     1
    396    412     1
    396    407     1
    396    408     1
    397    410     1
    397    411     1
    398    419     1
    398    409     1
    398    401     1
    398    402     1
    399    419     1
    399    409     1
    399    401     1
    399    402     1
    400    419     1
    401    418     1
    401    410     1
    401    411     1
    402    418     1
    402    410     1
    402    411     1
    403    419     1
    404    642     1
    404    416     1
    404    417     1
    405    642     1
    405    416     1
    405    417     1
    406    419     1
    407    628     1
    407    413     1
    407    414     1
    408    628     1
    408    413     1
    408    414     1
    412    623     1
    412    624     1
    413    622     1
    414    622     1
    415    637     1
    415    638     1
    416    636     1
    417    636     1
    420    427     1
    420    428     1
    421    426     1
    421    424     1
    421    425     1
    421    430     1
    421    431     1
    421    433     1
    422    426     1
    422    424     1
    422    425     1
    422    430     1
    422    431     1
    422    433     1
    423    430     1
    423    431     1
    423    433     1
    424    429     1
    424    432     1
    424    427     1
    424    428     1
    425    429     1
    425    432     1
    425    427     1
    425    428     1
    434    441     1
    434    442     1
    435    440     1
    435    438     1
    435    439     1
    435    444     1
    435    445     1
    435    447     1
    436    440     1
    436    438     1
    436    439     1
    436    444     1
    436    445     1
    436    447     1
    437    444     1
    437    445     1
    437    447     1
    438    446     1
    438    441     1
    438    442     1
    438    443     1
    439    446     1
    439    441     1
    439    442     1
    439    443     1
    448    455     1
    448    456     1
    449    454     1
    449    452     1
    449    453     1
    449    458     1
    449    459     1
    449    461     1
    450    454     1
    450    452     1
    450    453     1
    450    458     1
    450    459     1
    450    461     1
    451    458     1
    451    459     1
    451    461     1
    452    457     1
    452    460     1
    452    455     1
    452    456     1
    453    457     1
    453    460     1
    453    455     1
    453    456     1
    462    469     1
    462    470     1
    463    468     1
    463    466     1
    463    467     1
    463    472     1
    463    473     1
    463    475     1
    464    468     1
    464    466     1
    464    467     1
    464    472     1
    464    473     1
    464    475     1
    465    472     1
    465    473     1
    465    475     1
    466    474     1
    466    469     1
    466    470     1
    466    471     1
    467    474     1
    467    469     1
    467    470     1
    467    471     1
    476    483     1
    476    484     1
    477    482     1
    477    480     1
    477    481     1
    477    486     1
    477    487     1
    477    489     1
    478    482     1
    478    480     1
    478    481     1
    478    486     1
    478    487     1
    478    489     1
    479    486     1
    479    487     1
    479    489     1
    480    485     1
    480    488     1
    480    483     1
    480    484     1
    481    485     1
    481    488     1
    481    483     1
    481    484     1
    490    497     1
    490    498     1
    491    496     1
    491    494     1
    491    495     1
    491    500     1
    491    501     1
    491    503     1
    492    496     1
    492    494     1
    492    495     1
    492    500     1
    492    501     1
    492    503     1
    493    500     1
    493    501     1
    493    503     1
    494    502     1
    494    497     1
    494    498     1
    494    499     1
    495    502     1
    495    497     1
    495    498     1
    495    499     1
    504    511     1
    504    512     1
    505    510     1
    505    508     1
    505    509     1
    505    514     1
    505    515     1
    505    517     1
    506    510     1
    506    508     1
    506    509     1
    506    514     1
    506    515     1
    506    517     1
    507    514     1
    507    515     1
    507    517     1
    508    513     1
    508    516     1
    508    511     1
    508    512     1
    509    513     1
    509    516     1
    509    511     1
    509    512     1
    518    525     1
    518    526     1
    519    524     1
    519    522     1
    519    523     1
    519    528     1
    519    529     1
    519    531     1
    520    524     1
    520    522     1
    520    523     1
    520    528     1
    520    529     1
    520    531     1
    521    528     1
    521    529     1
    521    531     1
    522    530     1
    522    525     1
    522    526     1
    522    527     1
    523    530     1
    523    525     1
    523    526     1
    523    527     1
    532    539     1
    532    540     1
    533    538     1
    533    536     1
    533    537     1
    533    542     1
    533    543     1
    533    545     1
    534    538     1
    534    536     1
    534    537     1
    534    542     1
    534    543     1
    534    545     1
    535    542     1
    535    543     1
    535    545     1
    536    541     1
    536    544     1
    536    539     1
    536    540     1
    537    541     1
    537    544     1
    537    539     1
    537    540     1
    546    553     1
    546    554     1
    547    552     1
    547    550     1
    547    551     1
    547    556     1
    547    557     1
    547    559     1
    548    552     1
    548    550     1
    548    551     1
    548    556     1
    548    557     1
    548    559     1
    549    556     1
    549    557     1
    549    559     1
    550    558     1
    550    553     1
    550    554     1
    550    555     1
    551    558     1
    551    553     1
    551    554     1
    551    555     1
    560    567     1
    560    568     1
    561    566     1
    561    564     1
    561    565     1
    561    570     1
    561    571     1
    561    573     1
    562    566     1
    562    564     1
    562    565     1
    562    570     1
    562    571     1
    562    573     1
    563    570     1
    563    571     1
    563    573     1
    564    569     1
    564    572     1
    564    567     1
    564    568     1
    565    569     1
    565    572     1
    565    567     1
    565    568     1
    574    581     1
    574    582     1
    575    580     1
    575    578     1
    575    579     1
    575    584     1
    575    585     1
    575    587     1
    576    580     1
    576    578     1
    576    579     1
    576    584     1
    576    585     1
    576    587     1
    577    584     1
    577    585     1
    577    587     1
    578    586     1
    578    581     1
    578    582     1
    578    583     1
    579    586     1
    579    581     1
    579    582     1
    579    583     1
    588    595     1
    588    596     1
    589    594     1
    589    592     1
    589    593     1
    589    598     1
    589    599     1
    589    601     1
    590    594     1
    590    592     1
    590    593     1
    590    598     1
    590    599     1
    590    601     1
    591    598     1
    591    599     1
    591    601     1
    592    597     1
    592    600     1
    592    595     1
    592    596     1
    593    597     1
    593    600     1
    593    595     1
    593    596     1
    602    609     1
    602    610     1
    603    608     1
    603    606     1
    603    607     1
    603    612     1
    603    613     1
    603    615     1
    604    608     1
    604    606     1
    604    607     1
    604    612     1
    604    613     1
    604    615     1
    605    612     1
    605    613     1
    605    615     1
    606    614     1
    606    609     1
    606    610     1
    606    611     1
    607    614     1
    607    609     1
    607    610     1
    607    611     1
    616    623     1
    616    624     1
    617    622     1
    617    620     1
    617    621     1
    617    626     1
    617    627     1
    617    629     1
    618    622     1
    618    620     1
    618    621     1
    618    626     1
    618    627     1
    618    629     1
    619    626     1
    619    627     1
    619    629     1
    620    625     1
    620    628     1
    620    623     1
    620    624     1
    621    625     1
    621    628     1
    621    623     1
    621    624     1
    630    637     1
    630    638     1
    631    636     1
    631    634     1
    631    635     1
    631    640     1
    631    641     1
    631    643     1
    632    636     1
    632    634     1
    632    635     1
    632    640     1
    632    641     1
    632    643     1
    633    640     1
    633    641     1
    633    643     1
    634    642     1
    634    637     1
    634    638     1
    634    639     1
    635    642     1
    635    637     1
    635    638     1
    635    639     1

[ angles ]
;    ai     aj     ak funct         c0         c1         c2         c3
      1      2      8     1   107.9700462 569.024000
      1      5     11     1   107.9700462 569.024000
      2      1      5     1   112.4800480 524.673600
      2      8     14     1   111.5100476 526.347200
      5     11     17     1   111.5100476 526.347200
      8     14     20     1   114.2100488 537.225600
     11     17     21     1   114.2100488 537.225600
     14     20     28     1   109.6600471 523.836800
     14     20     31     1   109.6600471 523.836800
     17     21     22     1   109.6600471 523.836800
     17     21     25     1   109.6600471 523.836800
     20     28     40     1   114.2100488 537.225600
     20     31     43     1   114.2100488 537.225600
     21     22     34     1   114.2100488 537.225600
     21     25     37     1   114.2100488 537.225600
     22     21     25     1   109.6600471 523.836800
     22     34     55     1   111.5100476 526.347200
     25     37     52     1   111.5100476 526.347200
     28     20     31     1   109.6600471 523.836800
     28     40     49     1   111.5100476 526.347200
     31     43     46     1   111.5100476 526.347200
     34     55    178     1   107.9700462 569.024000
     37     52    148     1   107.9700462 569.024000
     40     49    118     1   107.9700462 569.024000
     43     46     88     1   107.9700462 569.024000
     46     88     79     1   112.4800480 524.673600
     49    118    109     1   112.4800480 524.673600
     52    148    139     1   112.4800480 524.673600
     55    178    169     1   112.4800480 524.673600
     60     61     73     1   114.2100488 537.225600
     60     64     76     1   114.2100488 537.225600
     60     67     70     1   114.2100488 537.225600
     61     60     64     1   109.6600471 523.836800
     61     60     67     1   109.6600471 523.836800
     61     73     85     1   111.5100476 526.347200
     64     60     67     1   109.6600471 523.836800
     64     76     82     1   111.5100476 526.347200
     67     70     79     1   111.5100476 526.347200
     70     79     88     1   107.9700462 569.024000
     73     85    238     1   107.9700462 569.024000
     76     82    208     1   107.9700462 569.024000
     82    208    199     1   112.4800480 524.673600
     85    238    229     1   112.4800480 524.673600
     90     91    103     1   114.2100488 537.225600
     90     94    106     1   114.2100488 537.225600
     90     97    100     1   114.2100488 537.225600
     91     90     94     1   109.6600471 523.836800
     91     90     97     1   109.6600471 523.836800
     91    103    115     1   111.5100476 526.347200
     94     90     97     1   109.6600471 523.836800
     94    106    112     1   111.5100476 526.347200
     97    100    109     1   111.5100476 526.347200
    100    109    118     1   107.9700462 569.024000
    103    115    298     1   107.9700462 569.024000
    106    112    268     1   107.9700462 569.024000
    112    268    259     1   112.4800480 524.673600
    115    298    289     1   112.4800480 524.673600
    120    121    133     1   114.2100488 537.225600
    120    124    136     1   114.2100488 537.225600
    120    127    130     1   114.2100488 537.225600
    121    120    124     1   109.6600471 523.836800
    121    120    127     1   109.6600471 523.836800
    121    133    145     1   111.5100476 526.347200
    124    120    127     1   109.6600471 523.836800
    124    136    142     1   111.5100476 526.347200
    127    130    139     1   111.5100476 526.347200
    130    139    148     1   107.9700462 569.024000
    133    145    358     1   107.9700462 569.024000
    136    142    328     1   107.9700462 569.024000
    142    328    319     1   112.4800480 524.673600
    145    358    349     1   112.4800480 524.673600
    150    151    163     1   114.2100488 537.225600
    150    154    166     1   114.2100488 537.225600
    150    157    160     1   114.2100488 537.225600
    151    150    154     1   109.6600471 523.836800
    151    150    157     1   109.6600471 523.836800
    151    163    175     1   111.5100476 526.347200
    154    150    157     1   109.6600471 523.836800
    154    166    172     1   111.5100476 526.347200
    157    160    169     1   111.5100476 526.347200
    160    169    178     1   107.9700462 569.024000
    163    175    418     1   107.9700462 569.024000
    166    172    388     1   107.9700462 569.024000
    172    388    379     1   112.4800480 524.673600
    175    418    409     1   112.4800480 524.673600
    180    181    193     1   114.2100488 537.225600
    180    184    196     1   114.2100488 537.225600
    180    187    190     1   114.2100488 537.225600
    181    180    184     1   109.6600471 523.836800
    181    180    187     1   109.6600471 523.836800
    181    193    205     1   111.5100476 526.347200
    184    180    187     1   109.6600471 523.836800
    184    196    202     1   111.5100476 526.347200
    187    190    199     1   111.5100476 526.347200
    190    199    208     1   107.9700462 569.024000
    193    205    446     1   107.9700462 569.024000
    196    202    432     1   107.9700462 569.024000
    202    432    426     1   112.4800480 524.673600
    205    446    440     1   112.4800480 524.673600
    210    211    223     1   114.2100488 537.225600
    210    214    226     1   114.2100488 537.225600
    210    217    220     1   114.2100488 537.225600
    211    210    214     1   109.6600471 523.836800
    211    210    217     1   109.6600471 523.836800
    211    223    235     1   111.5100476 526.347200
    214    210    217     1   109.6600471 523.836800
    214    226    232     1   111.5100476 526.347200
    217    220    229     1   111.5100476 526.347200
    220    229    238     1   107.9700462 569.024000
    223    235    474     1   107.9700462 569.024000
    226    232    460     1   107.9700462 569.024000
    232    460    454     1   112.4800480 524.673600
    235    474    468     1   112.4800480 524.673600
    240    241    253     1   114.2100488 537.225600
    240    244    256     1   114.2100488 537.225600
    240    247    250     1   114.2100488 537.225600
    241    240    244     1   109.6600471 523.836800
    241    240    247     1   109.6600471 523.836800
    241    253    265     1   111.5100476 526.347200
    244    240    247     1   109.6600471 523.836800
    244    256    262     1   111.5100476 526.347200
    247    250    259     1   111.5100476 526.347200
    250    259    268     1   107.9700462 569.024000
    253    265    502     1   107.9700462 569.024000
    256    262    488     1   107.9700462 569.024000
    262    488    482     1   112.4800480 524.673600
    265    502    496     1   112.4800480 524.673600
    270    271    283     1   114.2100488 537.225600
    270    274    286     1   114.2100488 537.225600
    270    277    280     1   114.2100488 537.225600
    271    270    274     1   109.6600471 523.836800
    271    270    277     1   109.6600471 523.836800
    271    283    295     1   111.5100476 526.347200
    274    270    277     1   109.6600471 523.836800
    274    286    292     1   111.5100476 526.347200
    277    280    289     1   111.5100476 526.347200
    280    289    298     1   107.9700462 569.024000
    283    295    530     1   107.9700462 569.024000
    286    292    516     1   107.9700462 569.024000
    292    516    510     1   112.4800480 524.673600
    295    530    524     1   112.4800480 524.673600
    300    301    313     1   114.2100488 537.225600
    300    304    316     1   114.2100488 537.225600
    300    307    310     1   114.2100488 537.225600
    301    300    304     1   109.6600471 523.836800
    301    300    307     1   109.6600471 523.836800
    301    313    325     1   111.5100476 526.347200
    304    300    307     1   109.6600471 523.836800
    304    316    322     1   111.5100476 526.347200
    307    310    319     1   111.5100476 526.347200
    310    319    328     1   107.9700462 569.024000
    313    325    558     1   107.9700462 569.024000
    316    322    544     1   107.9700462 569.024000
    322    544    538     1   112.4800480 524.673600
    325    558    552     1   112.4800480 524.673600
    330    331    343     1   114.2100488 537.225600
    330    334    346     1   114.2100488 537.225600
    330    337    340     1   114.2100488 537.225600
    331    330    334     1   109.6600471 523.836800
    331    330    337     1   109.6600471 523.836800
    331    343    355     1   111.5100476 526.347200
    334    330    337     1   109.6600471 523.836800
    334    346    352     1   111.5100476 526.347200
    337    340    349     1   111.5100476 526.347200
    340    349    358     1   107.9700462 569.024000
    343    355    586     1   107.9700462 569.024000
    346    352    572     1   107.9700462 569.024000
    352    572    566     1   112.4800480 524.673600
    355    586    580     1   112.4800480 524.673600
    360    361    373     1   114.2100488 537.225600
    360    364    376     1   114.2100488 537.225600
    360    367    370     1   114.2100488 537.225600
    361    360    364     1   109.6600471 523.836800
    361    360    367     1   109.6600471 523.836800
    361    373    385     1   111.5100476 526.347200
    364    360    367     1   109.6600471 523.836800
    364    376    382     1   111.5100476 526.347200
    367    370    379     1   111.5100476 526.347200
    370    379    388     1   107.9700462 569.024000
    373    385    614     1   107.9700462 569.024000
    376    382    600     1   107.9700462 569.024000
    382    600    594     1   112.4800480 524.673600
    385    614    608     1   112.4800480 524.673600
    390    391    403     1   114.2100488 537.225600
    390    394    406     1   114.2100488 537.225600
    390    397    400     1   114.2100488 537.225600
    391    390    394     1   109.6600471 523.836800
    391    390    397     1   109.6600471 523.836800
    391    403    415     1   111.5100476 526.347200
    394    390    397     1   109.6600471 523.836800
    394    406    412     1   111.5100476 526.347200
    397    400    409     1   111.5100476 526.347200
    400    409    418     1   107.9700462 569.024000
    403    415    642     1   107.9700462 569.024000
    406    412    628     1   107.9700462 569.024000
    412    628    622     1   112.4800480 524.673600
    415    642    636     1   112.4800480 524.673600
    420    423    426     1   111.5100476 526.347200
    423    420    429     1   114.2100488 537.225600
    423    426    432     1   107.9700462 569.024000
    434    437    440     1   111.5100476 526.347200
    437    440    446     1   107.9700462 569.024000
    437    434    443     1   114.2100488 537.225600
    448    451    454     1   111.5100476 526.347200
    451    448    457     1   114.2100488 537.225600
    451    454    460     1   107.9700462 569.024000
    462    465    468     1   111.5100476 526.347200
    465    468    474     1   107.9700462 569.024000
    465    462    471     1   114.2100488 537.225600
    476    479    482     1   111.5100476 526.347200
    479    476    485     1   114.2100488 537.225600
    479    482    488     1   107.9700462 569.024000
    490    493    496     1   111.5100476 526.347200
    493    496    502     1   107.9700462 569.024000
    493    490    499     1   114.2100488 537.225600
    504    507    510     1   111.5100476 526.347200
    507    504    513     1   114.2100488 537.225600
    507    510    516     1   107.9700462 569.024000
    518    521    524     1   111.5100476 526.347200
    521    524    530     1   107.9700462 569.024000
    521    518    527     1   114.2100488 537.225600
    532    535    538     1   111.5100476 526.347200
    535    532    541     1   114.2100488 537.225600
    535    538    544     1   107.9700462 569.024000
    546    549    552     1   111.5100476 526.347200
    549    552    558     1   107.9700462 569.024000
    549    546    555     1   114.2100488 537.225600
    560    563    566     1   111.5100476 526.347200
    563    560    569     1   114.2100488 537.225600
    563    566    572     1   107.9700462 569.024000
    574    577    580     1   111.5100476 526.347200
    577    580    586     1   107.9700462 569.024000
    577    574    583     1   114.2100488 537.225600
    588    591    594     1   111.5100476 526.347200
    591    588    597     1   114.2100488 537.225600
    591    594    600     1   107.9700462 569.024000
    602    605    608     1   111.5100476 526.347200
    605    608    614     1   107.9700462 569.024000
    605    602    611     1   114.2100488 537.225600
    616    619    622     1   111.5100476 526.347200
    619    616    625     1   114.2100488 537.225600
    619    622    628     1   107.9700462 569.024000
    630    633    636     1   111.5100476 526.347200
    633    636    642     1   107.9700462 569.024000
    633    630    639     1   114.2100488 537.225600
      1      2      3     1   109.7800468 425.094400
      1      2      4     1   109.7800468 425.094400
      1      5      6     1   109.7800468 425.094400
      1      5      7     1   109.7800468 425.094400
      2      8      9     1   109.8000471 387.438400
      2      8     10     1   109.8000471 387.438400
      3      2      8     1   109.5600471 388.275200
      3      2      4     1   108.4600466 328.025600
      4      2      8     1   109.5600471 388.275200
      5     11     12     1   109.8000471 387.438400
      5     11     13     1   109.8000471 387.438400
      6      5     11     1   109.5600471 388.275200
      6      5      7     1   108.4600466 328.025600
      7      5     11     1   109.5600471 388.275200
      8     14     15     1   110.5600475 386.601600
      8     14     16     1   110.5600475 386.601600
      9      8     14     1   109.8000471 387.438400
      9      8     10     1   107.5800459 329.699200
     10      8     14     1   109.8000471 387.438400
     11     17     18     1   110.5600475 386.601600
     11     17     19     1   110.5600475 386.601600
     12     11     17     1   109.8000471 387.438400
     12     11     13     1   107.5800459 329.699200
     13     11     17     1   109.8000471 387.438400
     14     20     58     1   110.1100470 384.091200
     15     14     20     1   108.0100461 406.684800
     15     14     16     1   109.7500473 328.025600
     16     14     20     1   108.0100461 406.684800
     17     21     59     1   110.1100470 384.091200
     18     17     21     1   108.0100461 406.684800
     18     17     19     1   109.7500473 328.025600
     19     17     21     1   108.0100461 406.684800
     20     28     29     1   108.0100461 406.684800
     20     28     30     1   108.0100461 406.684800
     20     31     32     1   108.0100461 406.684800
     20     31     33     1   108.0100461 406.684800
     21     22     23     1   108.0100461 406.684800
     21     22     24     1   108.0100461 406.684800
     21     25     26     1   108.0100461 406.684800
     21     25     27     1   108.0100461 406.684800
     22     21     59     1   110.1100470 384.091200
     22     34     35     1   109.8000471 387.438400
     22     34     36     1   109.8000471 387.438400
     23     22     34     1   110.5600475 386.601600
     23     22     24     1   109.7500473 328.025600
     24     22     34     1   110.5600475 386.601600
     25     21     59     1   110.1100470 384.091200
     25     37     38     1   109.8000471 387.438400
     25     37     39     1   109.8000471 387.438400
     26     25     37     1   110.5600475 386.601600
     26     25     27     1   109.7500473 328.025600
     27     25     37     1   110.5600475 386.601600
     28     20     58     1   110.1100470 384.091200
     28     40     41     1   109.8000471 387.438400
     28     40     42     1   109.8000471 387.438400
     29     28     40     1   110.5600475 386.601600
     29     28     30     1   109.7500473 328.025600
     30     28     40     1   110.5600475 386.601600
     31     20     58     1   110.1100470 384.091200
     31     43     44     1   109.8000471 387.438400
     31     43     45     1   109.8000471 387.438400
     32     31     43     1   110.5600475 386.601600
     32     31     33     1   109.7500473 328.025600
     33     31     43     1   110.5600475 386.601600
     34     55     56     1   109.8000471 387.438400
     34     55     57     1   109.8000471 387.438400
     35     34     55     1   109.8000471 387.438400
     35     34     36     1   107.5800459 329.699200
     36     34     55     1   109.8000471 387.438400
     37     52     53     1   109.8000471 387.438400
     37     52     54     1   109.8000471 387.438400
     38     37     52     1   109.8000471 387.438400
     38     37     39     1   107.5800459 329.699200
     39     37     52     1   109.8000471 387.438400
     40     49     50     1   109.8000471 387.438400
     40     49     51     1   109.8000471 387.438400
     41     40     49     1   109.8000471 387.438400
     41     40     42     1   107.5800459 329.699200
     42     40     49     1   109.8000471 387.438400
     43     46     47     1   109.8000471 387.438400
     43     46     48     1   109.8000471 387.438400
     44     43     46     1   109.8000471 387.438400
     44     43     45     1   107.5800459 329.699200
     45     43     46     1   109.8000471 387.438400
     47     46     88     1   108.7000466 426.768000
     47     46     48     1   107.5800459 329.699200
     48     46     88     1   108.7000466 426.768000
     50     49    118     1   108.7000466 426.768000
     50     49     51     1   107.5800459 329.699200
     51     49    118     1   108.7000466 426.768000
     53     52    148     1   108.7000466 426.768000
     53     52     54     1   107.5800459 329.699200
     54     52    148     1   108.7000466 426.768000
     56     55    178     1   108.7000466 426.768000
     56     55     57     1   107.5800459 329.699200
     57     55    178     1   108.7000466 426.768000
     60     61     62     1   108.0100461 406.684800
     60     61     63     1   108.0100461 406.684800
     60     64     65     1   108.0100461 406.684800
     60     64     66     1   108.0100461 406.684800
     60     67     68     1   108.0100461 406.684800
     60     67     69     1   108.0100461 406.684800
     61     60     89     1   110.1100470 384.091200
     61     73     74     1   109.8000471 387.438400
     61     73     75     1   109.8000471 387.438400
     62     61     73     1   110.5600475 386.601600
     62     61     63     1   109.7500473 328.025600
     63     61     73     1   110.5600475 386.601600
     64     60     89     1   110.1100470 384.091200
     64     76     77     1   109.8000471 387.438400
     64     76     78     1   109.8000471 387.438400
     65     64     76     1   110.5600475 386.601600
     65     64     66     1   109.7500473 328.025600
     66     64     76     1   110.5600475 386.601600
     67     60     89     1   110.1100470 384.091200
     67     70     71     1   109.8000471 387.438400
     67     70     72     1   109.8000471 387.438400
     68     67     70     1   110.5600475 386.601600
     68     67     69     1   109.7500473 328.025600
     69     67     70     1   110.5600475 386.601600
     70     79     80     1   109.5600471 388.275200
     70     79     81     1   109.5600471 388.275200
     71     70     79     1   109.8000471 387.438400
     71     70     72     1   107.5800459 329.699200
     72     70     79     1   109.8000471 387.438400
     73     85     86     1   109.5600471 388.275200
     73     85     87     1   109.5600471 388.275200
     74     73     85     1   109.8000471 387.438400
     74     73     75     1   107.5800459 329.699200
     75     73     85     1   109.8000471 387.438400
     76     82     83     1   109.5600471 388.275200
     76     82     84     1   109.5600471 388.275200
     77     76     82     1   109.8000471 387.438400
     77     76     78     1   107.5800459 329.699200
     78     76     82     1   109.8000471 387.438400
     80     79     88     1   109.7800468 425.094400
     80     79     81     1   108.4600466 328.025600
     81     79     88     1   109.7800468 425.094400
     83     82    208     1   109.7800468 425.094400
     83     82     84     1   108.4600466 328.025600
     84     82    208     1   109.7800468 425.094400
     86     85    238     1   109.7800468 425.094400
     86     85     87     1   108.4600466 328.025600
     87     85    238     1   109.7800468 425.094400
     90     91     92     1   108.0100461 406.684800
     90     91     93     1   108.0100461 406.684800
     90     94     95     1   108.0100461 406.684800
     90     94     96     1   108.0100461 406.684800
     90     97     98     1   108.0100461 406.684800
     90     97     99     1   108.0100461 406.684800
     91     90    119     1   110.1100470 384.091200
     91    103    104     1   109.8000471 387.438400
     91    103    105     1   109.8000471 387.438400
     92     91    103     1   110.5600475 386.601600
     92     91     93     1   109.7500473 328.025600
     93     91    103     1   110.5600475 386.601600
     94     90    119     1   110.1100470 384.091200
     94    106    107     1   109.8000471 387.438400
     94    106    108     1   109.8000471 387.438400
     95     94    106     1   110.5600475 386.601600
     95     94     96     1   109.7500473 328.025600
     96     94    106     1   110.5600475 386.601600
     97     90    119     1   110.1100470 384.091200
     97    100    101     1   109.8000471 387.438400
     97    100    102     1   109.8000471 387.438400
     98     97    100     1   110.5600475 386.601600
     98     97     99     1   109.7500473 328.025600
     99     97    100     1   110.5600475 386.601600
    100    109    110     1   109.5600471 388.275200
    100    109    111     1   109.5600471 388.275200
    101    100    109     1   109.8000471 387.438400
    101    100    102     1   107.5800459 329.699200
    102    100    109     1   109.8000471 387.438400
    103    115    116     1   109.5600471 388.275200
    103    115    117     1   109.5600471 388.275200
    104    103    115     1   109.8000471 387.438400
    104    103    105     1   107.5800459 329.699200
    105    103    115     1   109.8000471 387.438400
    106    112    113     1   109.5600471 388.275200
    106    112    114     1   109.5600471 388.275200
    107    106    112     1   109.8000471 387.438400
    107    106    108     1   107.5800459 329.699200
    108    106    112     1   109.8000471 387.438400
    110    109    118     1   109.7800468 425.094400
    110    109    111     1   108.4600466 328.025600
    111    109    118     1   109.7800468 425.094400
    113    112    268     1   109.7800468 425.094400
    113    112    114     1   108.4600466 328.025600
    114    112    268     1   109.7800468 425.094400
    116    115    298     1   109.7800468 425.094400
    116    115    117     1   108.4600466 328.025600
    117    115    298     1   109.7800468 425.094400
    120    121    122     1   108.0100461 406.684800
    120    121    123     1   108.0100461 406.684800
    120    124    125     1   108.0100461 406.684800
    120    124    126     1   108.0100461 406.684800
    120    127    128     1   108.0100461 406.684800
    120    127    129     1   108.0100461 406.684800
    121    120    149     1   110.1100470 384.091200
    121    133    134     1   109.8000471 387.438400
    121    133    135     1   109.8000471 387.438400
    122    121    133     1   110.5600475 386.601600
    122    121    123     1   109.7500473 328.025600
    123    121    133     1   110.5600475 386.601600
    124    120    149     1   110.1100470 384.091200
    124    136    137     1   109.8000471 387.438400
    124    136    138     1   109.8000471 387.438400
    125    124    136     1   110.5600475 386.601600
    125    124    126     1   109.7500473 328.025600
    126    124    136     1   110.5600475 386.601600
    127    120    149     1   110.1100470 384.091200
    127    130    131     1   109.8000471 387.438400
    127    130    132     1   109.8000471 387.438400
    128    127    130     1   110.5600475 386.601600
    128    127    129     1   109.7500473 328.025600
    129    127    130     1   110.5600475 386.601600
    130    139    140     1   109.5600471 388.275200
    130    139    141     1   109.5600471 388.275200
    131    130    139     1   109.8000471 387.438400
    131    130    132     1   107.5800459 329.699200
    132    130    139     1   109.8000471 387.438400
    133    145    146     1   109.5600471 388.275200
    133    145    147     1   109.5600471 388.275200
    134    133    145     1   109.8000471 387.438400
    134    133    135     1   107.5800459 329.699200
    135    133    145     1   109.8000471 387.438400
    136    142    143     1   109.5600471 388.275200
    136    142    144     1   109.5600471 388.275200
    137    136    142     1   109.8000471 387.438400
    137    136    138     1   107.5800459 329.699200
    138    136    142     1   109.8000471 387.438400
    140    139    148     1   109.7800468 425.094400
    140    139    141     1   108.4600466 328.025600
    141    139    148     1   109.7800468 425.094400
    143    142    328     1   109.7800468 425.094400
    143    142    144     1   108.4600466 328.025600
    144    142    328     1   109.7800468 425.094400
    146    145    358     1   109.7800468 425.094400
    146    145    147     1   108.4600466 328.025600
    147    145    358     1   109.7800468 425.094400
    150    151    152     1   108.0100461 406.684800
    150    151    153     1   108.0100461 406.684800
    150    154    155     1   108.0100461 406.684800
    150    154    156     1   108.0100461 406.684800
    150    157    158     1   108.0100461 406.684800
    150    157    159     1   108.0100461 406.684800
    151    150    179     1   110.1100470 384.091200
    151    163    164     1   109.8000471 387.438400
    151    163    165     1   109.8000471 387.438400
    152    151    163     1   110.5600475 386.601600
    152    151    153     1   109.7500473 328.025600
    153    151    163     1   110.5600475 386.601600
    154    150    179     1   110.1100470 384.091200
    154    166    167     1   109.8000471 387.438400
    154    166    168     1   109.8000471 387.438400
    155    154    166     1   110.5600475 386.601600
    155    154    156     1   109.7500473 328.025600
    156    154    166     1   110.5600475 386.601600
    157    150    179     1   110.1100470 384.091200
    157    160    161     1   109.8000471 387.438400
    157    160    162     1   109.8000471 387.438400
    158    157    160     1   110.5600475 386.601600
    158    157    159     1   109.7500473 328.025600
    159    157    160     1   110.5600475 386.601600
    160    169    170     1   109.5600471 388.275200
    160    169    171     1   109.5600471 388.275200
    161    160    169     1   109.8000471 387.438400
    161    160    162     1   107.5800459 329.699200
    162    160    169     1   109.8000471 387.438400
    163    175    176     1   109.5600471 388.275200
    163    175    177     1   109.5600471 388.275200
    164    163    175     1   109.8000471 387.438400
    164    163    165     1   107.5800459 329.699200
    165    163    175     1   109.8000471 387.438400
    166    172    173     1   109.5600471 388.275200
    166    172    174     1   109.5600471 388.275200
    167    166    172     1   109.8000471 387.438400
    167    166    168     1   107.5800459 329.699200
    168    166    172     1   109.8000471 387.438400
    170    169    178     1   109.7800468 425.094400
    170    169    171     1   108.4600466 328.025600
    171    169    178     1   109.7800468 425.094400
    173    172    388     1   109.7800468 425.094400
    173    172    174     1   108.4600466 328.025600
    174    172    388     1   109.7800468 425.094400
    176    175    418     1   109.7800468 425.094400
    176    175    177     1   108.4600466 328.025600
    177    175    418     1   109.7800468 425.094400
    180    181    182     1   108.0100461 406.684800
    180    181    183     1   108.0100461 406.684800
    180    184    185     1   108.0100461 406.684800
    180    184    186     1   108.0100461 406.684800
    180    187    188     1   108.0100461 406.684800
    180    187    189     1   108.0100461 406.684800
    181    180    209     1   110.1100470 384.091200
    181    193    194     1   109.8000471 387.438400
    181    193    195     1   109.8000471 387.438400
    182    181    193     1   110.5600475 386.601600
    182    181    183     1   109.7500473 328.025600
    183    181    193     1   110.5600475 386.601600
    184    180    209     1   110.1100470 384.091200
    184    196    197     1   109.8000471 387.438400
    184    196    198     1   109.8000471 387.438400
    185    184    196     1   110.5600475 386.601600
    185    184    186     1   109.7500473 328.025600
    186    184    196     1   110.5600475 386.601600
    187    180    209     1   110.1100470 384.091200
    187    190    191     1   109.8000471 387.438400
    187    190    192     1   109.8000471 387.438400
    188    187    190     1   110.5600475 386.601600
    188    187    189     1   109.7500473 328.025600
    189    187    190     1   110.5600475 386.601600
    190    199    200     1   109.5600471 388.275200
    190    199    201     1   109.5600471 388.275200
    191    190    199     1   109.8000471 387.438400
    191    190    192     1   107.5800459 329.699200
    192    190    199     1   109.8000471 387.438400
    193    205    206     1   109.5600471 388.275200
    193    205    207     1   109.5600471 388.275200
    194    193    205     1   109.8000471 387.438400
    194    193    195     1   107.5800459 329.699200
    195    193    205     1   109.8000471 387.438400
    196    202    203     1   109.5600471 388.275200
    196    202    204     1   109.5600471 388.275200
    197    196    202     1   109.8000471 387.438400
    197    196    198     1   107.5800459 329.699200
    198    196    202     1   109.8000471 387.438400
    200    199    208     1   109.7800468 425.094400
    200    199    201     1   108.4600466 328.025600
    201    199    208     1   109.7800468 425.094400
    203    202    432     1   109.7800468 425.094400
    203    202    204     1   108.4600466 328.025600
    204    202    432     1   109.7800468 425.094400
    206    205    446     1   109.7800468 425.094400
    206    205    207     1   108.4600466 328.025600
    207    205    446     1   109.7800468 425.094400
    210    211    212     1   108.0100461 406.684800
    210    211    213     1   108.0100461 406.684800
    210    214    215     1   108.0100461 406.684800
    210    214    216     1   108.0100461 406.684800
    210    217    218     1   108.0100461 406.684800
    210    217    219     1   108.0100461 406.684800
    211    210    239     1   110.1100470 384.091200
    211    223    224     1   109.8000471 387.438400
    211    223    225     1   109.8000471 387.438400
    212    211    223     1   110.5600475 386.601600
    212    211    213     1   109.7500473 328.025600
    213    211    223     1   110.5600475 386.601600
    214    210    239     1   110.1100470 384.091200
    214    226    227     1   109.8000471 387.438400
    214    226    228     1   109.8000471 387.438400
    215    214    226     1   110.5600475 386.601600
    215    214    216     1   109.7500473 328.025600
    216    214    226     1   110.5600475 386.601600
    217    210    239     1   110.1100470 384.091200
    217    220    221     1   109.8000471 387.438400
    217    220    222     1   109.8000471 387.438400
    218    217    220     1   110.5600475 386.601600
    218    217    219     1   109.7500473 328.025600
    219    217    220     1   110.5600475 386.601600
    220    229    230     1   109.5600471 388.275200
    220    229    231     1   109.5600471 388.275200
    221    220    229     1   109.8000471 387.438400
    221    220    222     1   107.5800459 329.699200
    222    220    229     1   109.8000471 387.438400
    223    235    236     1   109.5600471 388.275200
    223    235    237     1   109.5600471 388.275200
    224    223    235     1   109.8000471 387.438400
    224    223    225     1   107.5800459 329.699200
    225    223    235     1   109.8000471 387.438400
    226    232    233     1   109.5600471 388.275200
    226    232    234     1   109.5600471 388.275200
    227    226    232     1   109.8000471 387.438400
    227    226    228     1   107.5800459 329.699200
    228    226    232     1   109.8000471 387.438400
    230    229    238     1   109.7800468 425.094400
    230    229    231     1   108.4600466 328.025600
    231    229    238     1   109.7800468 425.094400
    233    232    460     1   109.7800468 425.094400
    233    232    234     1   108.4600466 328.025600
    234    232    460     1   109.7800468 425.094400
    236    235    474     1   109.7800468 425.094400
    236    235    237     1   108.4600466 328.025600
    237    235    474     1   109.7800468 425.094400
    240    241    242     1   108.0100461 406.684800
    240    241    243     1   108.0100461 406.684800
    240    244    245     1   108.0100461 406.684800
    240    244    246     1   108.0100461 406.684800
    240    247    248     1   108.0100461 406.684800
    240    247    249     1   108.0100461 406.684800
    241    240    269     1   110.1100470 384.091200
    241    253    254     1   109.8000471 387.438400
    241    253    255     1   109.8000471 387.438400
    242    241    253     1   110.5600475 386.601600
    242    241    243     1   109.7500473 328.025600
    243    241    253     1   110.5600475 386.601600
    244    240    269     1   110.1100470 384.091200
    244    256    257     1   109.8000471 387.438400
    244    256    258     1   109.8000471 387.438400
    245    244    256     1   110.5600475 386.601600
    245    244    246     1   109.7500473 328.025600
    246    244    256     1   110.5600475 386.601600
    247    240    269     1   110.1100470 384.091200
    247    250    251     1   109.8000471 387.438400
    247    250    252     1   109.8000471 387.438400
    248    247    250     1   110.5600475 386.601600
    248    247    249     1   109.7500473 328.025600
    249    247    250     1   110.5600475 386.601600
    250    259    260     1   109.5600471 388.275200
    250    259    261     1   109.5600471 388.275200
    251    250    259     1   109.8000471 387.438400
    251    250    252     1   107.5800459 329.699200
    252    250    259     1   109.8000471 387.438400
    253    265    266     1   109.5600471 388.275200
    253    265    267     1   109.5600471 388.275200
    254    253    265     1   109.8000471 387.438400
    254    253    255     1   107.5800459 329.699200
    255    253    265     1   109.8000471 387.438400
    256    262    263     1   109.5600471 388.275200
    256    262    264     1   109.5600471 388.275200
    257    256    262     1   109.8000471 387.438400
    257    256    258     1   107.5800459 329.699200
    258    256    262     1   109.8000471 387.438400
    260    259    268     1   109.7800468 425.094400
    260    259    261     1   108.4600466 328.025600
    261    259    268     1   109.7800468 425.094400
    263    262    488     1   109.7800468 425.094400
    263    262    264     1   108.4600466 328.025600
    264    262    488     1   109.7800468 425.094400
    266    265    502     1   109.7800468 425.094400
    266    265    267     1   108.4600466 328.025600
    267    265    502     1   109.7800468 425.094400
    270    271    272     1   108.0100461 406.684800
    270    271    273     1   108.0100461 406.684800
    270    274    275     1   108.0100461 406.684800
    270    274    276     1   108.0100461 406.684800
    270    277    278     1   108.0100461 406.684800
    270    277    279     1   108.0100461 406.684800
    271    270    299     1   110.1100470 384.091200
    271    283    284     1   109.8000471 387.438400
    271    283    285     1   109.8000471 387.438400
    272    271    283     1   110.5600475 386.601600
    272    271    273     1   109.7500473 328.025600
    273    271    283     1   110.5600475 386.601600
    274    270    299     1   110.1100470 384.091200
    274    286    287     1   109.8000471 387.438400
    274    286    288     1   109.8000471 387.438400
    275    274    286     1   110.5600475 386.601600
    275    274    276     1   109.7500473 328.025600
    276    274    286     1   110.5600475 386.601600
    277    270    299     1   110.1100470 384.091200
    277    280    281     1   109.8000471 387.438400
    277    280    282     1   109.8000471 387.438400
    278    277    280     1   110.5600475 386.601600
    278    277    279     1   109.7500473 328.025600
    279    277    280     1   110.5600475 386.601600
    280    289    290     1   109.5600471 388.275200
    280    289    291     1   109.5600471 388.275200
    281    280    289     1   109.8000471 387.438400
    281    280    282     1   107.5800459 329.699200
    282    280    289     1   109.8000471 387.438400
    283    295    296     1   109.5600471 388.275200
    283    295    297     1   109.5600471 388.275200
    284    283    295     1   109.8000471 387.438400
    284    283    285     1   107.5800459 329.699200
    285    283    295     1   109.8000471 387.438400
    286    292    293     1   109.5600471 388.275200
    286    292    294     1   109.5600471 388.275200
    287    286    292     1   109.8000471 387.438400
    287    286    288     1   107.5800459 329.699200
    288    286    292     1   109.8000471 387.438400
    290    289    298     1   109.7800468 425.094400
    290    289    291     1   108.4600466 328.025600
    291    289    298     1   109.7800468 425.094400
    293    292    516     1   109.7800468 425.094400
    293    292    294     1   108.4600466 328.025600
    294    292    516     1   109.7800468 425.094400
    296    295    530     1   109.7800468 425.094400
    296    295    297     1   108.4600466 328.025600
    297    295    530     1   109.7800468 425.094400
    300    301    302     1   108.0100461 406.684800
    300    301    303     1   108.0100461 406.684800
    300    304    305     1   108.0100461 406.684800
    300    304    306     1   108.0100461 406.684800
    300    307    308     1   108.0100461 406.684800
    300    307    309     1   108.0100461 406.684800
    301    300    329     1   110.1100470 384.091200
    301    313    314     1   109.8000471 387.438400
    301    313    315     1   109.8000471 387.438400
    302    301    313     1   110.5600475 386.601600
    302    301    303     1   109.7500473 328.025600
    303    301    313     1   110.5600475 386.601600
    304    300    329     1   110.1100470 384.091200
    304    316    317     1   109.8000471 387.438400
    304    316    318     1   109.8000471 387.438400
    305    304    316     1   110.5600475 386.601600
    305    304    306     1   109.7500473 328.025600
    306    304    316     1   110.5600475 386.601600
    307    300    329     1   110.1100470 384.091200
    307    310    311     1   109.8000471 387.438400
    307    310    312     1   109.8000471 387.438400
    308    307    310     1   110.5600475 386.601600
    308    307    309     1   109.7500473 328.025600
    309    307    310     1   110.5600475 386.601600
    310    319    320     1   109.5600471 388.275200
    310    319    321     1   109.5600471 388.275200
    311    310    319     1   109.8000471 387.438400
    311    310    312     1   107.5800459 329.699200
    312    310    319     1   109.8000471 387.438400
    313    325    326     1   109.5600471 388.275200
    313    325    327     1   109.5600471 388.275200
    314    313    325     1   109.8000471 387.438400
    314    313    315     1   107.5800459 329.699200
    315    313    325     1   109.8000471 387.438400
    316    322    323     1   109.5600471 388.275200
    316    322    324     1   109.5600471 388.275200
    317    316    322     1   109.8000471 387.438400
    317    316    318     1   107.5800459 329.699200
    318    316    322     1   109.8000471 387.438400
    320    319    328     1   109.7800468 425.094400
    320    319    321     1   108.4600466 328.025600
    321    319    328     1   109.7800468 425.094400
    323    322    544     1   109.7800468 425.094400
    323    322    324     1   108.4600466 328.025600
    324    322    544     1   109.7800468 425.094400
    326    325    558     1   109.7800468 425.094400
    326    325    327     1   108.4600466 328.025600
    327    325    558     1   109.7800468 425.094400
    330    331    332     1   108.0100461 406.684800
    330    331    333     1   108.0100461 406.684800
    330    334    335     1   108.0100461 406.684800
    330    334    336     1   108.0100461 406.684800
    330    337    338     1   108.0100461 406.684800
    330    337    339     1   108.0100461 406.684800
    331    330    359     1   110.1100470 384.091200
    331    343    344     1   109.8000471 387.438400
    331    343    345     1   109.8000471 387.438400
    332    331    343     1   110.5600475 386.601600
    332    331    333     1   109.7500473 328.025600
    333    331    343     1   110.5600475 386.601600
    334    330    359     1   110.1100470 384.091200
    334    346    347     1   109.8000471 387.438400
    334    346    348     1   109.8000471 387.438400
    335    334    346     1   110.5600475 386.601600
    335    334    336     1   109.7500473 328.025600
    336    334    346     1   110.5600475 386.601600
    337    330    359     1   110.1100470 384.091200
    337    340    341     1   109.8000471 387.438400
    337    340    342     1   109.8000471 387.438400
    338    337    340     1   110.5600475 386.601600
    338    337    339     1   109.7500473 328.025600
    339    337    340     1   110.5600475 386.601600
    340    349    350     1   109.5600471 388.275200
    340    349    351     1   109.5600471 388.275200
    341    340    349     1   109.8000471 387.438400
    341    340    342     1   107.5800459 329.699200
    342    340    349     1   109.8000471 387.438400
    343    355    356     1   109.5600471 388.275200
    343    355    357     1   109.5600471 388.275200
    344    343    355     1   109.8000471 387.438400
    344    343    345     1   107.5800459 329.699200
    345    343    355     1   109.8000471 387.438400
    346    352    353     1   109.5600471 388.275200
    346    352    354     1   109.5600471 388.275200
    347    346    352     1   109.8000471 387.438400
    347    346    348     1   107.5800459 329.699200
    348    346    352     1   109.8000471 387.438400
    350    349    358     1   109.7800468 425.094400
    350    349    351     1   108.4600466 328.025600
    351    349    358     1   109.7800468 425.094400
    353    352    572     1   109.7800468 425.094400
    353    352    354     1   108.4600466 328.025600
    354    352    572     1   109.7800468 425.094400
    356    355    586     1   109.7800468 425.094400
    356    355    357     1   108.4600466 328.025600
    357    355    586     1   109.7800468 425.094400
    360    361    362     1   108.0100461 406.684800
    360    361    363     1   108.0100461 406.684800
    360    364    365     1   108.0100461 406.684800
    360    364    366     1   108.0100461 406.684800
    360    367    368     1   108.0100461 406.684800
    360    367    369     1   108.0100461 406.684800
    361    360    389     1   110.1100470 384.091200
    361    373    374     1   109.8000471 387.438400
    361    373    375     1   109.8000471 387.438400
    362    361    373     1   110.5600475 386.601600
    362    361    363     1   109.7500473 328.025600
    363    361    373     1   110.5600475 386.601600
    364    360    389     1   110.1100470 384.091200
    364    376    377     1   109.8000471 387.438400
    364    376    378     1   109.8000471 387.438400
    365    364    376     1   110.5600475 386.601600
    365    364    366     1   109.7500473 328.025600
    366    364    376     1   110.5600475 386.601600
    367    360    389     1   110.1100470 384.091200
    367    370    371     1   109.8000471 387.438400
    367    370    372     1   109.8000471 387.438400
    368    367    370     1   110.5600475 386.601600
    368    367    369     1   109.7500473 328.025600
    369    367    370     1   110.5600475 386.601600
    370    379    380     1   109.5600471 388.275200
    370    379    381     1   109.5600471 388.275200
    371    370    379     1   109.8000471 387.438400
    371    370    372     1   107.5800459 329.699200
    372    370    379     1   109.8000471 387.438400
    373    385    386     1   109.5600471 388.275200
    373    385    387     1   109.5600471 388.275200
    374    373    385     1   109.8000471 387.438400
    374    373    375     1   107.5800459 329.699200
    375    373    385     1   109.8000471 387.438400
    376    382    383     1   109.5600471 388.275200
    376    382    384     1   109.5600471 388.275200
    377    376    382     1   109.8000471 387.438400
    377    376    378     1   107.5800459 329.699200
    378    376    382     1   109.8000471 387.438400
    380    379    388     1   109.7800468 425.094400
    380    379    381     1   108.4600466 328.025600
    381    379    388     1   109.7800468 425.094400
    383    382    600     1   109.7800468 425.094400
    383    382    384     1   108.4600466 328.025600
    384    382    600     1   109.7800468 425.094400
    386    385    614     1   109.7800468 425.094400
    386    385    387     1   108.4600466 328.025600
    387    385    614     1   109.7800468 425.094400
    390    391    392     1   108.0100461 406.684800
    390    391    393     1   108.0100461 406.684800
    390    394    395     1   108.0100461 406.684800
    390    394    396     1   108.0100461 406.684800
    390    397    398     1   108.0100461 406.684800
    390    397    399     1   108.0100461 406.684800
    391    390    419     1   110.1100470 384.091200
    391    403    404     1   109.8000471 387.438400
    391    403    405     1   109.8000471 387.438400
    392    391    403     1   110.5600475 386.601600
    392    391    393     1   109.7500473 328.025600
    393    391    403     1   110.5600475 386.601600
    394    390    419     1   110.1100470 384.091200
    394    406    407     1   109.8000471 387.438400
    394    406    408     1   109.8000471 387.438400
    395    394    406     1   110.5600475 386.601600
    395    394    396     1   109.7500473 328.025600
    396    394    406     1   110.5600475 386.601600
    397    390    419     1   110.1100470 384.091200
    397    400    401     1   109.8000471 387.438400
    397    400    402     1   109.8000471 387.438400
    398    397    400     1   110.5600475 386.601600
    398    397    399     1   109.7500473 328.025600
    399    397    400     1   110.5600475 386.601600
    400    409    410     1   109.5600471 388.275200
    400    409    411     1   109.5600471 388.275200
    401    400    409     1   109.8000471 387.438400
    401    400    402     1   107.5800459 329.699200
    402    400    409     1   109.8000471 387.438400
    403    415    416     1   109.5600471 388.275200
    403    415    417     1   109.5600471 388.275200
    404    403    415     1   109.8000471 387.438400
    404    403    405     1   107.5800459 329.699200
    405    403    415     1   109.8000471 387.438400
    406    412    413     1   109.5600471 388.275200
    406    412    414     1   109.5600471 388.275200
    407    406    412     1   109.8000471 387.438400
    407    406    408     1   107.5800459 329.699200
    408    406    412     1   109.8000471 387.438400
    410    409    418     1   109.7800468 425.094400
    410    409    411     1   108.4600466 328.025600
    411    409    418     1   109.7800468 425.094400
    413    412    628     1   109.7800468 425.094400
    413    412    414     1   108.4600466 328.025600
    414    412    628     1   109.7800468 425.094400
    416    415    642     1   109.7800468 425.094400
    416    415    417     1   108.4600466 328.025600
    417    415    642     1   109.7800468 425.094400
    420    423    424     1   109.8000471 387.438400
    420    423    425     1   109.8000471 387.438400
    420    429    430     1   110.1100470 384.091200
    420    429    431     1   110.1100470 384.091200
    420    429    433     1   110.1100470 384.091200
    421    420    423     1   110.5600475 386.601600
    421    420    429     1   108.0100461 406.684800
    421    420    422     1   109.7500473 328.025600
    422    420    423     1   110.5600475 386.601600
    422    420    429     1   108.0100461 406.684800
    423    426    427     1   109.5600471 388.275200
    423    426    428     1   109.5600471 388.275200
    424    423    426     1   109.8000471 387.438400
    424    423    425     1   107.5800459 329.699200
    425    423    426     1   109.8000471 387.438400
    427    426    432     1   109.7800468 425.094400
    427    426    428     1   108.4600466 328.025600
    428    426    432     1   109.7800468 425.094400
    430    429    431     1   108.3000464 339.740800
    430    429    433     1   108.3000464 339.740800
    431    429    433     1   108.3000464 339.740800
    434    437    438     1   109.8000471 387.438400
    434    437    439     1   109.8000471 387.438400
    434    443    444     1   110.1100470 384.091200
    434    443    445     1   110.1100470 384.091200
    434    443    447     1   110.1100470 384.091200
    435    434    437     1   110.5600475 386.601600
    435    434    443     1   108.0100461 406.684800
    435    434    436     1   109.7500473 328.025600
    436    434    437     1   110.5600475 386.601600
    436    434    443     1   108.0100461 406.684800
    437    440    441     1   109.5600471 388.275200
    437    440    442     1   109.5600471 388.275200
    438    437    440     1   109.8000471 387.438400
    438    437    439     1   107.5800459 329.699200
    439    437    440     1   109.8000471 387.438400
    441    440    446     1   109.7800468 425.094400
    441    440    442     1   108.4600466 328.025600
    442    440    446     1   109.7800468 425.094400
    444    443    445     1   108.3000464 339.740800
    444    443    447     1   108.3000464 339.740800
    445    443    447     1   108.3000464 339.740800
    448    451    452     1   109.8000471 387.438400
    448    451    453     1   109.8000471 387.438400
    448    457    458     1   110.1100470 384.091200
    448    457    459     1   110.1100470 384.091200
    448    457    461     1   110.1100470 384.091200
    449    448    451     1   110.5600475 386.601600
    449    448    457     1   108.0100461 406.684800
    449    448    450     1   109.7500473 328.025600
    450    448    451     1   110.5600475 386.601600
    450    448    457     1   108.0100461 406.684800
    451    454    455     1   109.5600471 388.275200
    451    454    456     1   109.5600471 388.275200
    452    451    454     1   109.8000471 387.438400
    452    451    453     1   107.5800459 329.699200
    453    451    454     1   109.8000471 387.438400
    455    454    460     1   109.7800468 425.094400
    455    454    456     1   108.4600466 328.025600
    456    454    460     1   109.7800468 425.094400
    458    457    459     1   108.3000464 339.740800
    458    457    461     1   108.3000464 339.740800
    459    457    461     1   108.3000464 339.740800
    462    465    466     1   109.8000471 387.438400
    462    465    467     1   109.8000471 387.438400
    462    471    472     1   110.1100470 384.091200
    462    471    473     1   110.1100470 384.091200
    462    471    475     1   110.1100470 384.091200
    463    462    465     1   110.5600475 386.601600
    463    462    471     1   108.0100461 406.684800
    463    462    464     1   109.7500473 328.025600
    464    462    465     1   110.5600475 386.601600
    464    462    471     1   108.0100461 406.684800
    465    468    469     1   109.5600471 388.275200
    465    468    470     1   109.5600471 388.275200
    466    465    468     1   109.8000471 387.438400
    466    465    467     1   107.5800459 329.699200
    467    465    468     1   109.8000471 387.438400
    469    468    474     1   109.7800468 425.094400
    469    468    470     1   108.4600466 328.025600
    470    468    474     1   109.7800468 425.094400
    472    471    473     1   108.3000464 339.740800
    472    471    475     1   108.3000464 339.740800
    473    471    475     1   108.3000464 339.740800
    476    479    480     1   109.8000471 387.438400
    476    479    481     1   109.8000471 387.438400
    476    485    486     1   110.1100470 384.091200
    476    485    487     1   110.1100470 384.091200
    476    485    489     1   110.1100470 384.091200
    477    476    479     1   110.5600475 386.601600
    477    476    485     1   108.0100461 406.684800
    477    476    478     1   109.7500473 328.025600
    478    476    479     1   110.5600475 386.601600
    478    476    485     1   108.0100461 406.684800
    479    482    483     1   109.5600471 388.275200
    479    482    484     1   109.5600471 388.275200
    480    479    482     1   109.8000471 387.438400
    480    479    481     1   107.5800459 329.699200
    481    479    482     1   109.8000471 387.438400
    483    482    488     1   109.7800468 425.094400
    483    482    484     1   108.4600466 328.025600
    484    482    488     1   109.7800468 425.094400
    486    485    487     1   108.3000464 339.740800
    486    485    489     1   108.3000464 339.740800
    487    485    489     1   108.3000464 339.740800
    490    493    494     1   109.8000471 387.438400
    490    493    495     1   109.8000471 387.438400
    490    499    500     1   110.1100470 384.091200
    490    499    501     1   110.1100470 384.091200
    490    499    503     1   110.1100470 384.091200
    491    490    493     1   110.5600475 386.601600
    491    490    499     1   108.0100461 406.684800
    491    490    492     1   109.7500473 328.025600
    492    490    493     1   110.5600475 386.601600
    492    490    499     1   108.0100461 406.684800
    493    496    497     1   109.5600471 388.275200
    493    496    498     1   109.5600471 388.275200
    494    493    496     1   109.8000471 387.438400
    494    493    495     1   107.5800459 329.699200
    495    493    496     1   109.8000471 387.438400
    497    496    502     1   109.7800468 425.094400
    497    496    498     1   108.4600466 328.025600
    498    496    502     1   109.7800468 425.094400
    500    499    501     1   108.3000464 339.740800
    500    499    503     1   108.3000464 339.740800
    501    499    503     1   108.3000464 339.740800
    504    507    508     1   109.8000471 387.438400
    504    507    509     1   109.8000471 387.438400
    504    513    514     1   110.1100470 384.091200
    504    513    515     1   110.1100470 384.091200
    504    513    517     1   110.1100470 384.091200
    505    504    507     1   110.5600475 386.601600
    505    504    513     1   108.0100461 406.684800
    505    504    506     1   109.7500473 328.025600
    506    504    507     1   110.5600475 386.601600
    506    504    513     1   108.0100461 406.684800
    507    510    511     1   109.5600471 388.275200
    507    510    512     1   109.5600471 388.275200
    508    507    510     1   109.8000471 387.438400
    508    507    509     1   107.5800459 329.699200
    509    507    510     1   109.8000471 387.438400
    511    510    516     1   109.7800468 425.094400
    511    510    512     1   108.4600466 328.025600
    512    510    516     1   109.7800468 425.094400
    514    513    515     1   108.3000464 339.740800
    514    513    517     1   108.3000464 339.740800
    515    513    517     1   108.3000464 339.740800
    518    521    522     1   109.8000471 387.438400
    518    521    523     1   109.8000471 387.438400
    518    527    528     1   110.1100470 384.091200
    518    527    529     1   110.1100470 384.091200
    518    527    531     1   110.1100470 384.091200
    519    518    521     1   110.5600475 386.601600
    519    518    527     1   108.0100461 406.684800
    519    518    520     1   109.7500473 328.025600
    520    518    521     1   110.5600475 386.601600
    520    518    527     1   108.0100461 406.684800
    521    524    525     1   109.5600471 388.275200
    521    524    526     1   109.5600471 388.275200
    522    521    524     1   109.8000471 387.438400
    522    521    523     1   107.5800459 329.699200
    523    521    524     1   109.8000471 387.438400
    525    524    530     1   109.7800468 425.094400
    525    524    526     1   108.4600466 328.025600
    526    524    530     1   109.7800468 425.094400
    528    527    529     1   108.3000464 339.740800
    528    527    531     1   108.3000464 339.740800
    529    527    531     1   108.3000464 339.740800
    532    535    536     1   109.8000471 387.438400
    532    535    537     1   109.8000471 387.438400
    532    541    542     1   110.1100470 384.091200
    532    541    543     1   110.1100470 384.091200
    532    541    545     1   110.1100470 384.091200
    533    532    535     1   110.5600475 386.601600
    533    532    541     1   108.0100461 406.684800
    533    532    534     1   109.7500473 328.025600
    534    532    535     1   110.5600475 386.601600
    534    532    541     1   108.0100461 406.684800
    535    538    539     1   109.5600471 388.275200
    535    538    540     1   109.5600471 388.275200
    536    535    538     1   109.8000471 387.438400
    536    535    537     1   107.5800459 329.699200
    537    535    538     1   109.8000471 387.438400
    539    538    544     1   109.7800468 425.094400
    539    538    540     1   108.4600466 328.025600
    540    538    544     1   109.7800468 425.094400
    542    541    543     1   108.3000464 339.740800
    542    541    545     1   108.3000464 339.740800
    543    541    545     1   108.3000464 339.740800
    546    549    550     1   109.8000471 387.438400
    546    549    551     1   109.8000471 387.438400
    546    555    556     1   110.1100470 384.091200
    546    555    557     1   110.1100470 384.091200
    546    555    559     1   110.1100470 384.091200
    547    546    549     1   110.5600475 386.601600
    547    546    555     1   108.0100461 406.684800
    547    546    548     1   109.7500473 328.025600
    548    546    549     1   110.5600475 386.601600
    548    546    555     1   108.0100461 406.684800
    549    552    553     1   109.5600471 388.275200
    549    552    554     1   109.5600471 388.275200
    550    549    552     1   109.8000471 387.438400
    550    549    551     1   107.5800459 329.699200
    551    549    552     1   109.8000471 387.438400
    553    552    558     1   109.7800468 425.094400
    553    552    554     1   108.4600466 328.025600
    554    552    558     1   109.7800468 425.094400
    556    555    557     1   108.3000464 339.740800
    556    555    559     1   108.3000464 339.740800
    557    555    559     1   108.3000464 339.740800
    560    563    564     1   109.8000471 387.438400
    560    563    565     1   109.8000471 387.438400
    560    569    570     1   110.1100470 384.091200
    560    569    571     1   110.1100470 384.091200
    560    569    573     1   110.1100470 384.091200
    561    560    563     1   110.5600475 386.601600
    561    560    569     1   108.0100461 406.684800
    561    560    562     1   109.7500473 328.025600
    562    560    563     1   110.5600475 386.601600
    562    560    569     1   108.0100461 406.684800
    563    566    567     1   109.5600471 388.275200
    563    566    568     1   109.5600471 388.275200
    564    563    566     1   109.8000471 387.438400
    564    563    565     1   107.5800459 329.699200
    565    563    566     1   109.8000471 387.438400
    567    566    572     1   109.7800468 425.094400
    567    566    568     1   108.4600466 328.025600
    568    566    572     1   109.7800468 425.094400
    570    569    571     1   108.3000464 339.740800
    570    569    573     1   108.3000464 339.740800
    571    569    573     1   108.3000464 339.740800
    574    577    578     1   109.8000471 387.438400
    574    577    579     1   109.8000471 387.438400
    574    583    584     1   110.1100470 384.091200
    574    583    585     1   110.1100470 384.091200
    574    583    587     1   110.1100470 384.091200
    575    574    577     1   110.5600475 386.601600
    575    574    583     1   108.0100461 406.684800
    575    574    576     1   109.7500473 328.025600
    576    574    577     1   110.5600475 386.601600
    576    574    583     1   108.0100461 406.684800
    577    580    581     1   109.5600471 388.275200
    577    580    582     1   109.5600471 388.275200
    578    577    580     1   109.8000471 387.438400
    578    577    579     1   107.5800459 329.699200
    579    577    580     1   109.8000471 387.438400
    581    580    586     1   109.7800468 425.094400
    581    580    582     1   108.4600466 328.025600
    582    580    586     1   109.7800468 425.094400
    584    583    585     1   108.3000464 339.740800
    584    583    587     1   108.3000464 339.740800
    585    583    587     1   108.3000464 339.740800
    588    591    592     1   109.8000471 387.438400
    588    591    593     1   109.8000471 387.438400
    588    597    598     1   110.1100470 384.091200
    588    597    599     1   110.1100470 384.091200
    588    597    601     1   110.1100470 384.091200
    589    588    591     1   110.5600475 386.601600
    589    588    597     1   108.0100461 406.684800
    589    588    590     1   109.7500473 328.025600
    590    588    591     1   110.5600475 386.601600
    590    588    597     1   108.0100461 406.684800
    591    594    595     1   109.5600471 388.275200
    591    594    596     1   109.5600471 388.275200
    592    591    594     1   109.8000471 387.438400
    592    591    593     1   107.5800459 329.699200
    593    591    594     1   109.8000471 387.438400
    595    594    600     1   109.7800468 425.094400
    595    594    596     1   108.4600466 328.025600
    596    594    600     1   109.7800468 425.094400
    598    597    599     1   108.3000464 339.740800
    598    597    601     1   108.3000464 339.740800
    599    597    601     1   108.3000464 339.740800
    602    605    606     1   109.8000471 387.438400
    602    605    607     1   109.8000471 387.438400
    602    611    612     1   110.1100470 384.091200
    602    611    613     1   110.1100470 384.091200
    602    611    615     1   110.1100470 384.091200
    603    602    605     1   110.5600475 386.601600
    603    602    611     1   108.0100461 406.684800
    603    602    604     1   109.7500473 328.025600
    604    602    605     1   110.5600475 386.601600
    604    602    611     1   108.0100461 406.684800
    605    608    609     1   109.5600471 388.275200
    605    608    610     1   109.5600471 388.275200
    606    605    608     1   109.8000471 387.438400
    606    605    607     1   107.5800459 329.699200
    607    605    608     1   109.8000471 387.438400
    609    608    614     1   109.7800468 425.094400
    609    608    610     1   108.4600466 328.025600
    610    608    614     1   109.7800468 425.094400
    612    611    613     1   108.3000464 339.740800
    612    611    615     1   108.3000464 339.740800
    613    611    615     1   108.3000464 339.740800
    616    619    620     1   109.8000471 387.438400
    616    619    621     1   109.8000471 387.438400
    616    625    626     1   110.1100470 384.091200
    616    625    627     1   110.1100470 384.091200
    616    625    629     1   110.1100470 384.091200
    617    616    619     1   110.5600475 386.601600
    617    616    625     1   108.0100461 406.684800
    617    616    618     1   109.7500473 328.025600
    618    616    619     1   110.5600475 386.601600
    618    616    625     1   108.0100461 406.684800
    619    622    623     1   109.5600471 388.275200
    619    622    624     1   109.5600471 388.275200
    620    619    622     1   109.8000471 387.438400
    620    619    621     1   107.5800459 329.699200
    621    619    622     1   109.8000471 387.438400
    623    622    628     1   109.7800468 425.094400
    623    622    624     1   108.4600466 328.025600
    624    622    628     1   109.7800468 425.094400
    626    625    627     1   108.3000464 339.740800
    626    625    629     1   108.3000464 339.740800
    627    625    629     1   108.3000464 339.740800
    630    633    634     1   109.8000471 387.438400
    630    633    635     1   109.8000471 387.438400
    630    639    640     1   110.1100470 384.091200
    630    639    641     1   110.1100470 384.091200
    630    639    643     1   110.1100470 384.091200
    631    630    633     1   110.5600475 386.601600
    631    630    639     1   108.0100461 406.684800
    631    630    632     1   109.7500473 328.025600
    632    630    633     1   110.5600475 386.601600
    632    630    639     1   108.0100461 406.684800
    633    636    637     1   109.5600471 388.275200
    633    636    638     1   109.5600471 388.275200
    634    633    636     1   109.8000471 387.438400
    634    633    635     1   107.5800459 329.699200
    635    633    636     1   109.8000471 387.438400
    637    636    642     1   109.7800468 425.094400
    637    636    638     1   108.4600466 328.025600
    638    636    642     1   109.7800468 425.094400
    640    639    641     1   108.3000464 339.740800
    640    639    643     1   108.3000464 339.740800
    641    639    643     1   108.3000464 339.740800

[ dihedrals ]
;    ai     aj     ak     al funct         c0         c1         c2         c3         c4         c5
      1      2      8     14     1  0.0000000  0.6508444  3
      1      5     11     17     1  0.0000000  0.6508444  3
      2      1      5     11     1  180.0000771  0.4184000  2
      2      1      5     11     1  0.0000000  1.6024720  3
      2      8     14     20     1  0.0000000  0.6508444  3
      5      1      2      8     1  180.0000771  0.4184000  2
      5      1      2      8     1  0.0000000  1.6024720  3
      5     11     17     21     1  0.0000000  0.6508444  3
      8     14     20     28     1  0.0000000  0.6508444  3
      8     14     20     31     1  0.0000000  0.6508444  3
     11     17     21     22     1  0.0000000  0.6508444  3
     11     17     21     25     1  0.0000000  0.6508444  3
     14     20     28     40     1  0.0000000  0.6508444  3
     14     20     31     43     1  0.0000000  0.6508444  3
     17     21     22     34     1  0.0000000  0.6508444  3
     17     21     25     37     1  0.0000000  0.6508444  3
     20     28     40     49     1  0.0000000  0.6508444  3
     20     31     43     46     1  0.0000000  0.6508444  3
     21     22     34     55     1  0.0000000  0.6508444  3
     21     25     37     52     1  0.0000000  0.6508444  3
     22     21     25     37     1  0.0000000  0.6508444  3
     22     34     55    178     1  0.0000000  0.6508444  3
     25     21     22     34     1  0.0000000  0.6508444  3
     25     37     52    148     1  0.0000000  0.6508444  3
     28     20     31     43     1  0.0000000  0.6508444  3
     28     40     49    118     1  0.0000000  0.6508444  3
     31     20     28     40     1  0.0000000  0.6508444  3
     31     43     46     88     1  0.0000000  0.6508444  3
     34     55    178    169     1  180.0000771  0.4184000  2
     34     55    178    169     1  0.0000000  1.6024720  3
     37     52    148    139     1  180.0000771  0.4184000  2
     37     52    148    139     1  0.0000000  1.6024720  3
     40     49    118    109     1  180.0000771  0.4184000  2
     40     49    118    109     1  0.0000000  1.6024720  3
     43     46     88     79     1  180.0000771  0.4184000  2
     43     46     88     79     1  0.0000000  1.6024720  3
     46     88     79     70     1  180.0000771  0.4184000  2
     46     88     79     70     1  0.0000000  1.6024720  3
     49    118    109    100     1  180.0000771  0.4184000  2
     49    118    109    100     1  0.0000000  1.6024720  3
     52    148    139    130     1  180.0000771  0.4184000  2
     52    148    139    130     1  0.0000000  1.6024720  3
     55    178    169    160     1  180.0000771  0.4184000  2
     55    178    169    160     1  0.0000000  1.6024720  3
     60     61     73     85     1  0.0000000  0.6508444  3
     60     64     76     82     1  0.0000000  0.6508444  3
     60     67     70     79     1  0.0000000  0.6508444  3
     61     60     64     76     1  0.0000000  0.6508444  3
     61     60     67     70     1  0.0000000  0.6508444  3
     61     73     85    238     1  0.0000000  0.6508444  3
     64     60     61     73     1  0.0000000  0.6508444  3
     64     60     67     70     1  0.0000000  0.6508444  3
     64     76     82    208     1  0.0000000  0.6508444  3
     67     60     61     73     1  0.0000000  0.6508444  3
     67     60     64     76     1  0.0000000  0.6508444  3
     67     70     79     88     1  0.0000000  0.6508444  3
     73     85    238    229     1  180.0000771  0.4184000  2
     73     85    238    229     1  0.0000000  1.6024720  3
     76     82    208    199     1  180.0000771  0.4184000  2
     76     82    208    199     1  0.0000000  1.6024720  3
     82    208    199    190     1  180.0000771  0.4184000  2
     82    208    199    190     1  0.0000000  1.6024720  3
     85    238    229    220     1  180.0000771  0.4184000  2
     85    238    229    220     1  0.0000000  1.6024720  3
     90     91    103    115     1  0.0000000  0.6508444  3
     90     94    106    112     1  0.0000000  0.6508444  3
     90     97    100    109     1  0.0000000  0.6508444  3
     91     90     94    106     1  0.0000000  0.6508444  3
     91     90     97    100     1  0.0000000  0.6508444  3
     91    103    115    298     1  0.0000000  0.6508444  3
     94     90     91    103     1  0.0000000  0.6508444  3
     94     90     97    100     1  0.0000000  0.6508444  3
     94    106    112    268     1  0.0000000  0.6508444  3
     97     90     91    103     1  0.0000000  0.6508444  3
     97     90     94    106     1  0.0000000  0.6508444  3
     97    100    109    118     1  0.0000000  0.6508444  3
    103    115    298    289     1  180.0000771  0.4184000  2
    103    115    298    289     1  0.0000000  1.6024720  3
    106    112    268    259     1  180.0000771  0.4184000  2
    106    112    268    259     1  0.0000000  1.6024720  3
    112    268    259    250     1  180.0000771  0.4184000  2
    112    268    259    250     1  0.0000000  1.6024720  3
    115    298    289    280     1  180.0000771  0.4184000  2
    115    298    289    280     1  0.0000000  1.6024720  3
    120    121    133    145     1  0.0000000  0.6508444  3
    120    124    136    142     1  0.0000000  0.6508444  3
    120    127    130    139     1  0.0000000  0.6508444  3
    121    120    124    136     1  0.0000000  0.6508444  3
    121    120    127    130     1  0.0000000  0.6508444  3
    121    133    145    358     1  0.0000000  0.6508444  3
    124    120    121    133     1  0.0000000  0.6508444  3
    124    120    127    130     1  0.0000000  0.6508444  3
    124    136    142    328     1  0.0000000  0.6508444  3
    127    120    121    133     1  0.0000000  0.6508444  3
    127    120    124    136     1  0.0000000  0.6508444  3
    127    130    139    148     1  0.0000000  0.6508444  3
    133    145    358    349     1  180.0000771  0.4184000  2
    133    145    358    349     1  0.0000000  1.6024720  3
    136    142    328    319     1  180.0000771  0.4184000  2
    136    142    328    319     1  0.0000000  1.6024720  3
    142    328    319    310     1  180.0000771  0.4184000  2
    142    328    319    310     1  0.0000000  1.6024720  3
    145    358    349    340     1  180.0000771  0.4184000  2
    145    358    349    340     1  0.0000000  1.6024720  3
    150    151    163    175     1  0.0000000  0.6508444  3
    150    154    166    172     1  0.0000000  0.6508444  3
    150    157    160    169     1  0.0000000  0.6508444  3
    151    150    154    166     1  0.0000000  0.6508444  3
    151    150    157    160     1  0.0000000  0.6508444  3
    151    163    175    418     1  0.0000000  0.6508444  3
    154    150    151    163     1  0.0000000  0.6508444  3
    154    150    157    160     1  0.0000000  0.6508444  3
    154    166    172    388     1  0.0000000  0.6508444  3
    157    150    151    163     1  0.0000000  0.6508444  3
    157    150    154    166     1  0.0000000  0.6508444  3
    157    160    169    178     1  0.0000000  0.6508444  3
    163    175    418    409     1  180.0000771  0.4184000  2
    163    175    418    409     1  0.0000000  1.6024720  3
    166    172    388    379     1  180.0000771  0.4184000  2
    166    172    388    379     1  0.0000000  1.6024720  3
    172    388    379    370     1  180.0000771  0.4184000  2
    172    388    379    370     1  0.0000000  1.6024720  3
    175    418    409    400     1  180.0000771  0.4184000  2
    175    418    409    400     1  0.0000000  1.6024720  3
    180    181    193    205     1  0.0000000  0.6508444  3
    180    184    196    202     1  0.0000000  0.6508444  3
    180    187    190    199     1  0.0000000  0.6508444  3
    181    180    184    196     1  0.0000000  0.6508444  3
    181    180    187    190     1  0.0000000  0.6508444  3
    181    193    205    446     1  0.0000000  0.6508444  3
    184    180    181    193     1  0.0000000  0.6508444  3
    184    180    187    190     1  0.0000000  0.6508444  3
    184    196    202    432     1  0.0000000  0.6508444  3
    187    180    181    193     1  0.0000000  0.6508444  3
    187    180    184    196     1  0.0000000  0.6508444  3
    187    190    199    208     1  0.0000000  0.6508444  3
    193    205    446    440     1  180.0000771  0.4184000  2
    193    205    446    440     1  0.0000000  1.6024720  3
    196    202    432    426     1  180.0000771  0.4184000  2
    196    202    432    426     1  0.0000000  1.6024720  3
    202    432    426    423     1  180.0000771  0.4184000  2
    202    432    426    423     1  0.0000000  1.6024720  3
    205    446    440    437     1  180.0000771  0.4184000  2
    205    446    440    437     1  0.0000000  1.6024720  3
    210    211    223    235     1  0.0000000  0.6508444  3
    210    214    226    232     1  0.0000000  0.6508444  3
    210    217    220    229     1  0.0000000  0.6508444  3
    211    210    214    226     1  0.0000000  0.6508444  3
    211    210    217    220     1  0.0000000  0.6508444  3
    211    223    235    474     1  0.0000000  0.6508444  3
    214    210    211    223     1  0.0000000  0.6508444  3
    214    210    217    220     1  0.0000000  0.6508444  3
    214    226    232    460     1  0.0000000  0.6508444  3
    217    210    211    223     1  0.0000000  0.6508444  3
    217    210    214    226     1  0.0000000  0.6508444  3
    217    220    229    238     1  0.0000000  0.6508444  3
    223    235    474    468     1  180.0000771  0.4184000  2
    223    235    474    468     1  0.0000000  1.6024720  3
    226    232    460    454     1  180.0000771  0.4184000  2
    226    232    460    454     1  0.0000000  1.6024720  3
    232    460    454    451     1  180.0000771  0.4184000  2
    232    460    454    451     1  0.0000000  1.6024720  3
    235    474    468    465     1  180.0000771  0.4184000  2
    235    474    468    465     1  0.0000000  1.6024720  3
    240    241    253    265     1  0.0000000  0.6508444  3
    240    244    256    262     1  0.0000000  0.6508444  3
    240    247    250    259     1  0.0000000  0.6508444  3
    241    240    244    256     1  0.0000000  0.6508444  3
    241    240    247    250     1  0.0000000  0.6508444  3
    241    253    265    502     1  0.0000000  0.6508444  3
    244    240    241    253     1  0.0000000  0.6508444  3
    244    240    247    250     1  0.0000000  0.6508444  3
    244    256    262    488     1  0.0000000  0.6508444  3
    247    240    241    253     1  0.0000000  0.6508444  3
    247    240    244    256     1  0.0000000  0.6508444  3
    247    250    259    268     1  0.0000000  0.6508444  3
    253    265    502    496     1  180.0000771  0.4184000  2
    253    265    502    496     1  0.0000000  1.6024720  3
    256    262    488    482     1  180.0000771  0.4184000  2
    256    262    488    482     1  0.0000000  1.6024720  3
    262    488    482    479     1  180.0000771  0.4184000  2
    262    488    482    479     1  0.0000000  1.6024720  3
    265    502    496    493     1  180.0000771  0.4184000  2
    265    502    496    493     1  0.0000000  1.6024720  3
    270    271    283    295     1  0.0000000  0.6508444  3
    270    274    286    292     1  0.0000000  0.6508444  3
    270    277    280    289     1  0.0000000  0.6508444  3
    271    270    274    286     1  0.0000000  0.6508444  3
    271    270    277    280     1  0.0000000  0.6508444  3
    271    283    295    530     1  0.0000000  0.6508444  3
    274    270    271    283     1  0.0000000  0.6508444  3
    274    270    277    280     1  0.0000000  0.6508444  3
    274    286    292    516     1  0.0000000  0.6508444  3
    277    270    271    283     1  0.0000000  0.6508444  3
    277    270    274    286     1  0.0000000  0.6508444  3
    277    280    289    298     1  0.0000000  0.6508444  3
    283    295    530    524     1  180.0000771  0.4184000  2
    283    295    530    524     1  0.0000000  1.6024720  3
    286    292    516    510     1  180.0000771  0.4184000  2
    286    292    516    510     1  0.0000000  1.6024720  3
    292    516    510    507     1  180.0000771  0.4184000  2
    292    516    510    507     1  0.0000000  1.6024720  3
    295    530    524    521     1  180.0000771  0.4184000  2
    295    530    524    521     1  0.0000000  1.6024720  3
    300    301    313    325     1  0.0000000  0.6508444  3
    300    304    316    322     1  0.0000000  0.6508444  3
    300    307    310    319     1  0.0000000  0.6508444  3
    301    300    304    316     1  0.0000000  0.6508444  3
    301    300    307    310     1  0.0000000  0.6508444  3
    301    313    325    558     1  0.0000000  0.6508444  3
    304    300    301    313     1  0.0000000  0.6508444  3
    304    300    307    310     1  0.0000000  0.6508444  3
    304    316    322    544     1  0.0000000  0.6508444  3
    307    300    301    313     1  0.0000000  0.6508444  3
    307    300    304    316     1  0.0000000  0.6508444  3
    307    310    319    328     1  0.0000000  0.6508444  3
    313    325    558    552     1  180.0000771  0.4184000  2
    313    325    558    552     1  0.0000000  1.6024720  3
    316    322    544    538     1  180.0000771  0.4184000  2
    316    322    544    538     1  0.0000000  1.6024720  3
    322    544    538    535     1  180.0000771  0.4184000  2
    322    544    538    535     1  0.0000000  1.6024720  3
    325    558    552    549     1  180.0000771  0.4184000  2
    325    558    552    549     1  0.0000000  1.6024720  3
    330    331    343    355     1  0.0000000  0.6508444  3
    330    334    346    352     1  0.0000000  0.6508444  3
    330    337    340    349     1  0.0000000  0.6508444  3
    331    330    334    346     1  0.0000000  0.6508444  3
    331    330    337    340     1  0.0000000  0.6508444  3
    331    343    355    586     1  0.0000000  0.6508444  3
    334    330    331    343     1  0.0000000  0.6508444  3
    334    330    337    340     1  0.0000000  0.6508444  3
    334    346    352    572     1  0.0000000  0.6508444  3
    337    330    331    343     1  0.0000000  0.6508444  3
    337    330    334    346     1  0.0000000  0.6508444  3
    337    340    349    358     1  0.0000000  0.6508444  3
    343    355    586    580     1  180.0000771  0.4184000  2
    343    355    586    580     1  0.0000000  1.6024720  3
    346    352    572    566     1  180.0000771  0.4184000  2
    346    352    572    566     1  0.0000000  1.6024720  3
    352    572    566    563     1  180.0000771  0.4184000  2
    352    572    566    563     1  0.0000000  1.6024720  3
    355    586    580    577     1  180.0000771  0.4184000  2
    355    586    580    577     1  0.0000000  1.6024720  3
    360    361    373    385     1  0.0000000  0.6508444  3
    360    364    376    382     1  0.0000000  0.6508444  3
    360    367    370    379     1  0.0000000  0.6508444  3
    361    360    364    376     1  0.0000000  0.6508444  3
    361    360    367    370     1  0.0000000  0.6508444  3
    361    373    385    614     1  0.0000000  0.6508444  3
    364    360    361    373     1  0.0000000  0.6508444  3
    364    360    367    370     1  0.0000000  0.6508444  3
    364    376    382    600     1  0.0000000  0.6508444  3
    367    360    361    373     1  0.0000000  0.6508444  3
    367    360    364    376     1  0.0000000  0.6508444  3
    367    370    379    388     1  0.0000000  0.6508444  3
    373    385    614    608     1  180.0000771  0.4184000  2
    373    385    614    608     1  0.0000000  1.6024720  3
    376    382    600    594     1  180.0000771  0.4184000  2
    376    382    600    594     1  0.0000000  1.6024720  3
    382    600    594    591     1  180.0000771  0.4184000  2
    382    600    594    591     1  0.0000000  1.6024720  3
    385    614    608    605     1  180.0000771  0.4184000  2
    385    614    608    605     1  0.0000000  1.6024720  3
    390    391    403    415     1  0.0000000  0.6508444  3
    390    394    406    412     1  0.0000000  0.6508444  3
    390    397    400    409     1  0.0000000  0.6508444  3
    391    390    394    406     1  0.0000000  0.6508444  3
    391    390    397    400     1  0.0000000  0.6508444  3
    391    403    415    642     1  0.0000000  0.6508444  3
    394    390    391    403     1  0.0000000  0.6508444  3
    394    390    397    400     1  0.0000000  0.6508444  3
    394    406    412    628     1  0.0000000  0.6508444  3
    397    390    391    403     1  0.0000000  0.6508444  3
    397    390    394    406     1  0.0000000  0.6508444  3
    397    400    409    418     1  0.0000000  0.6508444  3
    403    415    642    636     1  180.0000771  0.4184000  2
    403    415    642    636     1  0.0000000  1.6024720  3
    406    412    628    622     1  180.0000771  0.4184000  2
    406    412    628    622     1  0.0000000  1.6024720  3
    412    628    622    619     1  180.0000771  0.4184000  2
    412    628    622    619     1  0.0000000  1.6024720  3
    415    642    636    633     1  180.0000771  0.4184000  2
    415    642    636    633     1  0.0000000  1.6024720  3
    420    423    426    432     1  0.0000000  0.6508444  3
    426    423    420    429     1  0.0000000  0.6508444  3
    434    437    440    446     1  0.0000000  0.6508444  3
    440    437    434    443     1  0.0000000  0.6508444  3
    448    451    454    460     1  0.0000000  0.6508444  3
    454    451    448    457     1  0.0000000  0.6508444  3
    462    465    468    474     1  0.0000000  0.6508444  3
    468    465    462    471     1  0.0000000  0.6508444  3
    476    479    482    488     1  0.0000000  0.6508444  3
    482    479    476    485     1  0.0000000  0.6508444  3
    490    493    496    502     1  0.0000000  0.6508444  3
    496    493    490    499     1  0.0000000  0.6508444  3
    504    507    510    516     1  0.0000000  0.6508444  3
    510    507    504    513     1  0.0000000  0.6508444  3
    518    521    524    530     1  0.0000000  0.6508444  3
    524    521    518    527     1  0.0000000  0.6508444  3
    532    535    538    544     1  0.0000000  0.6508444  3
    538    535    532    541     1  0.0000000  0.6508444  3
    546    549    552    558     1  0.0000000  0.6508444  3
    552    549    546    555     1  0.0000000  0.6508444  3
    560    563    566    572     1  0.0000000  0.6508444  3
    566    563    560    569     1  0.0000000  0.6508444  3
    574    577    580    586     1  0.0000000  0.6508444  3
    580    577    574    583     1  0.0000000  0.6508444  3
    588    591    594    600     1  0.0000000  0.6508444  3
    594    591    588    597     1  0.0000000  0.6508444  3
    602    605    608    614     1  0.0000000  0.6508444  3
    608    605    602    611     1  0.0000000  0.6508444  3
    616    619    622    628     1  0.0000000  0.6508444  3
    622    619    616    625     1  0.0000000  0.6508444  3
    630    633    636    642     1  0.0000000  0.6508444  3
    636    633    630    639     1  0.0000000  0.6508444  3
      1      2      8      9     1  0.0000000  1.0460000  1
      1      2      8      9     1  0.0000000  0.0000000  3
      1      2      8     10     1  0.0000000  1.0460000  1
      1      2      8     10     1  0.0000000  0.0000000  3
      1      5     11     12     1  0.0000000  1.0460000  1
      1      5     11     12     1  0.0000000  0.0000000  3
      1      5     11     13     1  0.0000000  1.0460000  1
      1      5     11     13     1  0.0000000  0.0000000  3
      2      1      5      6     1  0.0000000  1.6038667  3
      2      1      5      7     1  0.0000000  1.6038667  3
      2      8     14     15     1  0.0000000  0.6508444  3
      2      8     14     16     1  0.0000000  0.6508444  3
      5      1      2      3     1  0.0000000  1.6038667  3
      3      2      8     14     1  0.0000000  0.6508444  3
      3      2      8      9     1  0.0000000  0.6508444  3
      3      2      8     10     1  0.0000000  0.6508444  3
      5      1      2      4     1  0.0000000  1.6038667  3
      4      2      8     14     1  0.0000000  0.6508444  3
      4      2      8      9     1  0.0000000  0.6508444  3
      4      2      8     10     1  0.0000000  0.6508444  3
      5     11     17     18     1  0.0000000  0.6508444  3
      5     11     17     19     1  0.0000000  0.6508444  3
      6      5     11     17     1  0.0000000  0.6508444  3
      6      5     11     12     1  0.0000000  0.6508444  3
      6      5     11     13     1  0.0000000  0.6508444  3
      7      5     11     17     1  0.0000000  0.6508444  3
      7      5     11     12     1  0.0000000  0.6508444  3
      7      5     11     13     1  0.0000000  0.6508444  3
      8     14     20     58     1  0.0000000  0.6508444  3
      9      8     14     20     1  0.0000000  0.6508444  3
      9      8     14     15     1  0.0000000  0.6508444  3
      9      8     14     16     1  0.0000000  0.6508444  3
     10      8     14     20     1  0.0000000  0.6508444  3
     10      8     14     15     1  0.0000000  0.6508444  3
     10      8     14     16     1  0.0000000  0.6508444  3
     11     17     21     59     1  0.0000000  0.6508444  3
     12     11     17     21     1  0.0000000  0.6508444  3
     12     11     17     18     1  0.0000000  0.6508444  3
     12     11     17     19     1  0.0000000  0.6508444  3
     13     11     17     21     1  0.0000000  0.6508444  3
     13     11     17     18     1  0.0000000  0.6508444  3
     13     11     17     19     1  0.0000000  0.6508444  3
     14     20     28     29     1  0.0000000  0.6508444  3
     14     20     28     30     1  0.0000000  0.6508444  3
     14     20     31     32     1  0.0000000  0.6508444  3
     14     20     31     33     1  0.0000000  0.6508444  3
     15     14     20     28     1  0.0000000  0.6508444  3
     15     14     20     31     1  0.0000000  0.6508444  3
     15     14     20     58     1  0.0000000  0.6508444  3
     16     14     20     28     1  0.0000000  0.6508444  3
     16     14     20     31     1  0.0000000  0.6508444  3
     16     14     20     58     1  0.0000000  0.6508444  3
     17     21     22     23     1  0.0000000  0.6508444  3
     17     21     22     24     1  0.0000000  0.6508444  3
     17     21     25     26     1  0.0000000  0.6508444  3
     17     21     25     27     1  0.0000000  0.6508444  3
     18     17     21     22     1  0.0000000  0.6508444  3
     18     17     21     25     1  0.0000000  0.6508444  3
     18     17     21     59     1  0.0000000  0.6508444  3
     19     17     21     22     1  0.0000000  0.6508444  3
     19     17     21     25     1  0.0000000  0.6508444  3
     19     17     21     59     1  0.0000000  0.6508444  3
     20     28     40     41     1  0.0000000  0.6508444  3
     20     28     40     42     1  0.0000000  0.6508444  3
     20     31     43     44     1  0.0000000  0.6508444  3
     20     31     43     45     1  0.0000000  0.6508444  3
     21     22     34     35     1  0.0000000  0.6508444  3
     21     22     34     36     1  0.0000000  0.6508444  3
     21     25     37     38     1  0.0000000  0.6508444  3
     21     25     37     39     1  0.0000000  0.6508444  3
     22     21     25     26     1  0.0000000  0.6508444  3
     22     21     25     27     1  0.0000000  0.6508444  3
     22     34     55     56     1  0.0000000  0.6694400  3
     22     34     55     57     1  0.0000000  0.6694400  3
     23     22     21     25     1  0.0000000  0.6508444  3
     23     22     21     59     1  0.0000000  0.6508444  3
     23     22     34     55     1  0.0000000  0.6508444  3
     23     22     34     35     1  0.0000000  0.6508444  3
     23     22     34     36     1  0.0000000  0.6508444  3
     24     22     21     25     1  0.0000000  0.6508444  3
     24     22     21     59     1  0.0000000  0.6508444  3
     24     22     34     55     1  0.0000000  0.6508444  3
     24     22     34     35     1  0.0000000  0.6508444  3
     24     22     34     36     1  0.0000000  0.6508444  3
     25     37     52     53     1  0.0000000  0.6694400  3
     25     37     52     54     1  0.0000000  0.6694400  3
     26     25     21     59     1  0.0000000  0.6508444  3
     26     25     37     52     1  0.0000000  0.6508444  3
     26     25     37     38     1  0.0000000  0.6508444  3
     26     25     37     39     1  0.0000000  0.6508444  3
     27     25     21     59     1  0.0000000  0.6508444  3
     27     25     37     52     1  0.0000000  0.6508444  3
     27     25     37     38     1  0.0000000  0.6508444  3
     27     25     37     39     1  0.0000000  0.6508444  3
     28     20     31     32     1  0.0000000  0.6508444  3
     28     20     31     33     1  0.0000000  0.6508444  3
     28     40     49     50     1  0.0000000  0.6694400  3
     28     40     49     51     1  0.0000000  0.6694400  3
     29     28     20     31     1  0.0000000  0.6508444  3
     29     28     20     58     1  0.0000000  0.6508444  3
     29     28     40     49     1  0.0000000  0.6508444  3
     29     28     40     41     1  0.0000000  0.6508444  3
     29     28     40     42     1  0.0000000  0.6508444  3
     30     28     20     31     1  0.0000000  0.6508444  3
     30     28     20     58     1  0.0000000  0.6508444  3
     30     28     40     49     1  0.0000000  0.6508444  3
     30     28     40     41     1  0.0000000  0.6508444  3
     30     28     40     42     1  0.0000000  0.6508444  3
     31     43     46     47     1  0.0000000  0.6694400  3
     31     43     46     48     1  0.0000000  0.6694400  3
     32     31     20     58     1  0.0000000  0.6508444  3
     32     31     43     46     1  0.0000000  0.6508444  3
     32     31     43     44     1  0.0000000  0.6508444  3
     32     31     43     45     1  0.0000000  0.6508444  3
     33     31     20     58     1  0.0000000  0.6508444  3
     33     31     43     46     1  0.0000000  0.6508444  3
     33     31     43     44     1  0.0000000  0.6508444  3
     33     31     43     45     1  0.0000000  0.6508444  3
     34     22     21     59     1  0.0000000  0.6508444  3
     35     34     55    178     1  0.0000000  1.0460000  1
     35     34     55    178     1  0.0000000  0.0000000  3
     35     34     55     56     1  0.0000000  0.6276000  3
     35     34     55     57     1  0.0000000  0.6276000  3
     36     34     55    178     1  0.0000000  1.0460000  1
     36     34     55    178     1  0.0000000  0.0000000  3
     36     34     55     56     1  0.0000000  0.6276000  3
     36     34     55     57     1  0.0000000  0.6276000  3
     37     25     21     59     1  0.0000000  0.6508444  3
     38     37     52    148     1  0.0000000  1.0460000  1
     38     37     52    148     1  0.0000000  0.0000000  3
     38     37     52     53     1  0.0000000  0.6276000  3
     38     37     52     54     1  0.0000000  0.6276000  3
     39     37     52    148     1  0.0000000  1.0460000  1
     39     37     52    148     1  0.0000000  0.0000000  3
     39     37     52     53     1  0.0000000  0.6276000  3
     39     37     52     54     1  0.0000000  0.6276000  3
     40     28     20     58     1  0.0000000  0.6508444  3
     41     40     49    118     1  0.0000000  1.0460000  1
     41     40     49    118     1  0.0000000  0.0000000  3
     41     40     49     50     1  0.0000000  0.6276000  3
     41     40     49     51     1  0.0000000  0.6276000  3
     42     40     49    118     1  0.0000000  1.0460000  1
     42     40     49    118     1  0.0000000  0.0000000  3
     42     40     49     50     1  0.0000000  0.6276000  3
     42     40     49     51     1  0.0000000  0.6276000  3
     43     31     20     58     1  0.0000000  0.6508444  3
     44     43     46     88     1  0.0000000  1.0460000  1
     44     43     46     88     1  0.0000000  0.0000000  3
     44     43     46     47     1  0.0000000  0.6276000  3
     44     43     46     48     1  0.0000000  0.6276000  3
     45     43     46     88     1  0.0000000  1.0460000  1
     45     43     46     88     1  0.0000000  0.0000000  3
     45     43     46     47     1  0.0000000  0.6276000  3
     45     43     46     48     1  0.0000000  0.6276000  3
     46     88     79     80     1  0.0000000  1.6038667  3
     46     88     79     81     1  0.0000000  1.6038667  3
     47     46     88     79     1  0.0000000  1.6038667  3
     48     46     88     79     1  0.0000000  1.6038667  3
     49    118    109    110     1  0.0000000  1.6038667  3
     49    118    109    111     1  0.0000000  1.6038667  3
     50     49    118    109     1  0.0000000  1.6038667  3
     51     49    118    109     1  0.0000000  1.6038667  3
     52    148    139    140     1  0.0000000  1.6038667  3
     52    148    139    141     1  0.0000000  1.6038667  3
     53     52    148    139     1  0.0000000  1.6038667  3
     54     52    148    139     1  0.0000000  1.6038667  3
     55    178    169    170     1  0.0000000  1.6038667  3
     55    178    169    171     1  0.0000000  1.6038667  3
     56     55    178    169     1  0.0000000  1.6038667  3
     57     55    178    169     1  0.0000000  1.6038667  3
     60     61     73     74     1  0.0000000  0.6508444  3
     60     61     73     75     1  0.0000000  0.6508444  3
     60     64     76     77     1  0.0000000  0.6508444  3
     60     64     76     78     1  0.0000000  0.6508444  3
     60     67     70     71     1  0.0000000  0.6508444  3
     60     67     70     72     1  0.0000000  0.6508444  3
     61     60     64     65     1  0.0000000  0.6508444  3
     61     60     64     66     1  0.0000000  0.6508444  3
     61     60     67     68     1  0.0000000  0.6508444  3
     61     60     67     69     1  0.0000000  0.6508444  3
     61     73     85     86     1  0.0000000  0.6508444  3
     61     73     85     87     1  0.0000000  0.6508444  3
     62     61     60     64     1  0.0000000  0.6508444  3
     62     61     60     67     1  0.0000000  0.6508444  3
     62     61     60     89     1  0.0000000  0.6508444  3
     62     61     73     85     1  0.0000000  0.6508444  3
     62     61     73     74     1  0.0000000  0.6508444  3
     62     61     73     75     1  0.0000000  0.6508444  3
     63     61     60     64     1  0.0000000  0.6508444  3
     63     61     60     67     1  0.0000000  0.6508444  3
     63     61     60     89     1  0.0000000  0.6508444  3
     63     61     73     85     1  0.0000000  0.6508444  3
     63     61     73     74     1  0.0000000  0.6508444  3
     63     61     73     75     1  0.0000000  0.6508444  3
     64     60     67     68     1  0.0000000  0.6508444  3
     64     60     67     69     1  0.0000000  0.6508444  3
     64     76     82     83     1  0.0000000  0.6508444  3
     64     76     82     84     1  0.0000000  0.6508444  3
     65     64     60     67     1  0.0000000  0.6508444  3
     65     64     60     89     1  0.0000000  0.6508444  3
     65     64     76     82     1  0.0000000  0.6508444  3
     65     64     76     77     1  0.0000000  0.6508444  3
     65     64     76     78     1  0.0000000  0.6508444  3
     66     64     60     67     1  0.0000000  0.6508444  3
     66     64     60     89     1  0.0000000  0.6508444  3
     66     64     76     82     1  0.0000000  0.6508444  3
     66     64     76     77     1  0.0000000  0.6508444  3
     66     64     76     78     1  0.0000000  0.6508444  3
     67     70     79     80     1  0.0000000  0.6508444  3
     67     70     79     81     1  0.0000000  0.6508444  3
     68     67     60     89     1  0.0000000  0.6508444  3
     68     67     70     79     1  0.0000000  0.6508444  3
     68     67     70     71     1  0.0000000  0.6508444  3
     68     67     70     72     1  0.0000000  0.6508444  3
     69     67     60     89     1  0.0000000  0.6508444  3
     69     67     70     79     1  0.0000000  0.6508444  3
     69     67     70     71     1  0.0000000  0.6508444  3
     69     67     70     72     1  0.0000000  0.6508444  3
     70     67     60     89     1  0.0000000  0.6508444  3
     71     70     79     88     1  0.0000000  1.0460000  1
     71     70     79     88     1  0.0000000  0.0000000  3
     71     70     79     80     1  0.0000000  0.6508444  3
     71     70     79     81     1  0.0000000  0.6508444  3
     72     70     79     88     1  0.0000000  1.0460000  1
     72     70     79     88     1  0.0000000  0.0000000  3
     72     70     79     80     1  0.0000000  0.6508444  3
     72     70     79     81     1  0.0000000  0.6508444  3
     73     61     60     89     1  0.0000000  0.6508444  3
     74     73     85    238     1  0.0000000  1.0460000  1
     74     73     85    238     1  0.0000000  0.0000000  3
     74     73     85     86     1  0.0000000  0.6508444  3
     74     73     85     87     1  0.0000000  0.6508444  3
     75     73     85    238     1  0.0000000  1.0460000  1
     75     73     85    238     1  0.0000000  0.0000000  3
     75     73     85     86     1  0.0000000  0.6508444  3
     75     73     85     87     1  0.0000000  0.6508444  3
     76     64     60     89     1  0.0000000  0.6508444  3
     77     76     82    208     1  0.0000000  1.0460000  1
     77     76     82    208     1  0.0000000  0.0000000  3
     77     76     82     83     1  0.0000000  0.6508444  3
     77     76     82     84     1  0.0000000  0.6508444  3
     78     76     82    208     1  0.0000000  1.0460000  1
     78     76     82    208     1  0.0000000  0.0000000  3
     78     76     82     83     1  0.0000000  0.6508444  3
     78     76     82     84     1  0.0000000  0.6508444  3
     82    208    199    200     1  0.0000000  1.6038667  3
     82    208    199    201     1  0.0000000  1.6038667  3
     83     82    208    199     1  0.0000000  1.6038667  3
     84     82    208    199     1  0.0000000  1.6038667  3
     85    238    229    230     1  0.0000000  1.6038667  3
     85    238    229    231     1  0.0000000  1.6038667  3
     86     85    238    229     1  0.0000000  1.6038667  3
     87     85    238    229     1  0.0000000  1.6038667  3
     90     91    103    104     1  0.0000000  0.6508444  3
     90     91    103    105     1  0.0000000  0.6508444  3
     90     94    106    107     1  0.0000000  0.6508444  3
     90     94    106    108     1  0.0000000  0.6508444  3
     90     97    100    101     1  0.0000000  0.6508444  3
     90     97    100    102     1  0.0000000  0.6508444  3
     91     90     94     95     1  0.0000000  0.6508444  3
     91     90     94     96     1  0.0000000  0.6508444  3
     91     90     97     98     1  0.0000000  0.6508444  3
     91     90     97     99     1  0.0000000  0.6508444  3
     91    103    115    116     1  0.0000000  0.6508444  3
     91    103    115    117     1  0.0000000  0.6508444  3
     92     91     90     94     1  0.0000000  0.6508444  3
     92     91     90     97     1  0.0000000  0.6508444  3
     92     91     90    119     1  0.0000000  0.6508444  3
     92     91    103    115     1  0.0000000  0.6508444  3
     92     91    103    104     1  0.0000000  0.6508444  3
     92     91    103    105     1  0.0000000  0.6508444  3
     93     91     90     94     1  0.0000000  0.6508444  3
     93     91     90     97     1  0.0000000  0.6508444  3
     93     91     90    119     1  0.0000000  0.6508444  3
     93     91    103    115     1  0.0000000  0.6508444  3
     93     91    103    104     1  0.0000000  0.6508444  3
     93     91    103    105     1  0.0000000  0.6508444  3
     94     90     97     98     1  0.0000000  0.6508444  3
     94     90     97     99     1  0.0000000  0.6508444  3
     94    106    112    113     1  0.0000000  0.6508444  3
     94    106    112    114     1  0.0000000  0.6508444  3
     95     94     90     97     1  0.0000000  0.6508444  3
     95     94     90    119     1  0.0000000  0.6508444  3
     95     94    106    112     1  0.0000000  0.6508444  3
     95     94    106    107     1  0.0000000  0.6508444  3
     95     94    106    108     1  0.0000000  0.6508444  3
     96     94     90     97     1  0.0000000  0.6508444  3
     96     94     90    119     1  0.0000000  0.6508444  3
     96     94    106    112     1  0.0000000  0.6508444  3
     96     94    106    107     1  0.0000000  0.6508444  3
     96     94    106    108     1  0.0000000  0.6508444  3
     97    100    109    110     1  0.0000000  0.6508444  3
     97    100    109    111     1  0.0000000  0.6508444  3
     98     97     90    119     1  0.0000000  0.6508444  3
     98     97    100    109     1  0.0000000  0.6508444  3
     98     97    100    101     1  0.0000000  0.6508444  3
     98     97    100    102     1  0.0000000  0.6508444  3
     99     97     90    119     1  0.0000000  0.6508444  3
     99     97    100    109     1  0.0000000  0.6508444  3
     99     97    100    101     1  0.0000000  0.6508444  3
     99     97    100    102     1  0.0000000  0.6508444  3
    100     97     90    119     1  0.0000000  0.6508444  3
    101    100    109    118     1  0.0000000  1.0460000  1
    101    100    109    118     1  0.0000000  0.0000000  3
    101    100    109    110     1  0.0000000  0.6508444  3
    101    100    109    111     1  0.0000000  0.6508444  3
    102    100    109    118     1  0.0000000  1.0460000  1
    102    100    109    118     1  0.0000000  0.0000000  3
    102    100    109    110     1  0.0000000  0.6508444  3
    102    100    109    111     1  0.0000000  0.6508444  3
    103     91     90    119     1  0.0000000  0.6508444  3
    104    103    115    298     1  0.0000000  1.0460000  1
    104    103    115    298     1  0.0000000  0.0000000  3
    104    103    115    116     1  0.0000000  0.6508444  3
    104    103    115    117     1  0.0000000  0.6508444  3
    105    103    115    298     1  0.0000000  1.0460000  1
    105    103    115    298     1  0.0000000  0.0000000  3
    105    103    115    116     1  0.0000000  0.6508444  3
    105    103    115    117     1  0.0000000  0.6508444  3
    106     94     90    119     1  0.0000000  0.6508444  3
    107    106    112    268     1  0.0000000  1.0460000  1
    107    106    112    268     1  0.0000000  0.0000000  3
    107    106    112    113     1  0.0000000  0.6508444  3
    107    106    112    114     1  0.0000000  0.6508444  3
    108    106    112    268     1  0.0000000  1.0460000  1
    108    106    112    268     1  0.0000000  0.0000000  3
    108    106    112    113     1  0.0000000  0.6508444  3
    108    106    112    114     1  0.0000000  0.6508444  3
    112    268    259    260     1  0.0000000  1.6038667  3
    112    268    259    261     1  0.0000000  1.6038667  3
    113    112    268    259     1  0.0000000  1.6038667  3
    114    112    268    259     1  0.0000000  1.6038667  3
    115    298    289    290     1  0.0000000  1.6038667  3
    115    298    289    291     1  0.0000000  1.6038667  3
    116    115    298    289     1  0.0000000  1.6038667  3
    117    115    298    289     1  0.0000000  1.6038667  3
    120    121    133    134     1  0.0000000  0.6508444  3
    120    121    133    135     1  0.0000000  0.6508444  3
    120    124    136    137     1  0.0000000  0.6508444  3
    120    124    136    138     1  0.0000000  0.6508444  3
    120    127    130    131     1  0.0000000  0.6508444  3
    120    127    130    132     1  0.0000000  0.6508444  3
    121    120    124    125     1  0.0000000  0.6508444  3
    121    120    124    126     1  0.0000000  0.6508444  3
    121    120    127    128     1  0.0000000  0.6508444  3
    121    120    127    129     1  0.0000000  0.6508444  3
    121    133    145    146     1  0.0000000  0.6508444  3
    121    133    145    147     1  0.0000000  0.6508444  3
    122    121    120    124     1  0.0000000  0.6508444  3
    122    121    120    127     1  0.0000000  0.6508444  3
    122    121    120    149     1  0.0000000  0.6508444  3
    122    121    133    145     1  0.0000000  0.6508444  3
    122    121    133    134     1  0.0000000  0.6508444  3
    122    121    133    135     1  0.0000000  0.6508444  3
    123    121    120    124     1  0.0000000  0.6508444  3
    123    121    120    127     1  0.0000000  0.6508444  3
    123    121    120    149     1  0.0000000  0.6508444  3
    123    121    133    145     1  0.0000000  0.6508444  3
    123    121    133    134     1  0.0000000  0.6508444  3
    123    121    133    135     1  0.0000000  0.6508444  3
    124    120    127    128     1  0.0000000  0.6508444  3
    124    120    127    129     1  0.0000000  0.6508444  3
    124    136    142    143     1  0.0000000  0.6508444  3
    124    136    142    144     1  0.0000000  0.6508444  3
    125    124    120    127     1  0.0000000  0.6508444  3
    125    124    120    149     1  0.0000000  0.6508444  3
    125    124    136    142     1  0.0000000  0.6508444  3
    125    124    136    137     1  0.0000000  0.6508444  3
    125    124    136    138     1  0.0000000  0.6508444  3
    126    124    120    127     1  0.0000000  0.6508444  3
    126    124    120    149     1  0.0000000  0.6508444  3
    126    124    136    142     1  0.0000000  0.6508444  3
    126    124    136    137     1  0.0000000  0.6508444  3
    126    124    136    138     1  0.0000000  0.6508444  3
    127    130    139    140     1  0.0000000  0.6508444  3
    127    130    139    141     1  0.0000000  0.6508444  3
    128    127    120    149     1  0.0000000  0.6508444  3
    128    127    130    139     1  0.0000000  0.6508444  3
    128    127    130    131     1  0.0000000  0.6508444  3
    128    127    130    132     1  0.0000000  0.6508444  3
    129    127    120    149     1  0.0000000  0.6508444  3
    129    127    130    139     1  0.0000000  0.6508444  3
    129    127    130    131     1  0.0000000  0.6508444  3
    129    127    130    132     1  0.0000000  0.6508444  3
    130    127    120    149     1  0.0000000  0.6508444  3
    131    130    139    148     1  0.0000000  1.0460000  1
    131    130    139    148     1  0.0000000  0.0000000  3
    131    130    139    140     1  0.0000000  0.6508444  3
    131    130    139    141     1  0.0000000  0.6508444  3
    132    130    139    148     1  0.0000000  1.0460000  1
    132    130    139    148     1  0.0000000  0.0000000  3
    132    130    139    140     1  0.0000000  0.6508444  3
    132    130    139    141     1  0.0000000  0.6508444  3
    133    121    120    149     1  0.0000000  0.6508444  3
    134    133    145    358     1  0.0000000  1.0460000  1
    134    133    145    358     1  0.0000000  0.0000000  3
    134    133    145    146     1  0.0000000  0.6508444  3
    134    133    145    147     1  0.0000000  0.6508444  3
    135    133    145    358     1  0.0000000  1.0460000  1
    135    133    145    358     1  0.0000000  0.0000000  3
    135    133    145    146     1  0.0000000  0.6508444  3
    135    133    145    147     1  0.0000000  0.6508444  3
    136    124    120    149     1  0.0000000  0.6508444  3
    137    136    142    328     1  0.0000000  1.0460000  1
    137    136    142    328     1  0.0000000  0.0000000  3
    137    136    142    143     1  0.0000000  0.6508444  3
    137    136    142    144     1  0.0000000  0.6508444  3
    138    136    142    328     1  0.0000000  1.0460000  1
    138    136    142    328     1  0.0000000  0.0000000  3
    138    136    142    143     1  0.0000000  0.6508444  3
    138    136    142    144     1  0.0000000  0.6508444  3
    142    328    319    320     1  0.0000000  1.6038667  3
    142    328    319    321     1  0.0000000  1.6038667  3
    143    142    328    319     1  0.0000000  1.6038667  3
    144    142    328    319     1  0.0000000  1.6038667  3
    145    358    349    350     1  0.0000000  1.6038667  3
    145    358    349    351     1  0.0000000  1.6038667  3
    146    145    358    349     1  0.0000000  1.6038667  3
    147    145    358    349     1  0.0000000  1.6038667  3
    150    151    163    164     1  0.0000000  0.6508444  3
    150    151    163    165     1  0.0000000  0.6508444  3
    150    154    166    167     1  0.0000000  0.6508444  3
    150    154    166    168     1  0.0000000  0.6508444  3
    150    157    160    161     1  0.0000000  0.6508444  3
    150    157    160    162     1  0.0000000  0.6508444  3
    151    150    154    155     1  0.0000000  0.6508444  3
    151    150    154    156     1  0.0000000  0.6508444  3
    151    150    157    158     1  0.0000000  0.6508444  3
    151    150    157    159     1  0.0000000  0.6508444  3
    151    163    175    176     1  0.0000000  0.6508444  3
    151    163    175    177     1  0.0000000  0.6508444  3
    152    151    150    154     1  0.0000000  0.6508444  3
    152    151    150    157     1  0.0000000  0.6508444  3
    152    151    150    179     1  0.0000000  0.6508444  3
    152    151    163    175     1  0.0000000  0.6508444  3
    152    151    163    164     1  0.0000000  0.6508444  3
    152    151    163    165     1  0.0000000  0.6508444  3
    153    151    150    154     1  0.0000000  0.6508444  3
    153    151    150    157     1  0.0000000  0.6508444  3
    153    151    150    179     1  0.0000000  0.6508444  3
    153    151    163    175     1  0.0000000  0.6508444  3
    153    151    163    164     1  0.0000000  0.6508444  3
    153    151    163    165     1  0.0000000  0.6508444  3
    154    150    157    158     1  0.0000000  0.6508444  3
    154    150    157    159     1  0.0000000  0.6508444  3
    154    166    172    173     1  0.0000000  0.6508444  3
    154    166    172    174     1  0.0000000  0.6508444  3
    155    154    150    157     1  0.0000000  0.6508444  3
    155    154    150    179     1  0.0000000  0.6508444  3
    155    154    166    172     1  0.0000000  0.6508444  3
    155    154    166    167     1  0.0000000  0.6508444  3
    155    154    166    168     1  0.0000000  0.6508444  3
    156    154    150    157     1  0.0000000  0.6508444  3
    156    154    150    179     1  0.0000000  0.6508444  3
    156    154    166    172     1  0.0000000  0.6508444  3
    156    154    166    167     1  0.0000000  0.6508444  3
    156    154    166    168     1  0.0000000  0.6508444  3
    157    160    169    170     1  0.0000000  0.6508444  3
    157    160    169    171     1  0.0000000  0.6508444  3
    158    157    150    179     1  0.0000000  0.6508444  3
    158    157    160    169     1  0.0000000  0.6508444  3
    158    157    160    161     1  0.0000000  0.6508444  3
    158    157    160    162     1  0.0000000  0.6508444  3
    159    157    150    179     1  0.0000000  0.6508444  3
    159    157    160    169     1  0.0000000  0.6508444  3
    159    157    160    161     1  0.0000000  0.6508444  3
    159    157    160    162     1  0.0000000  0.6508444  3
    160    157    150    179     1  0.0000000  0.6508444  3
    161    160    169    178     1  0.0000000  1.0460000  1
    161    160    169    178     1  0.0000000  0.0000000  3
    161    160    169    170     1  0.0000000  0.6508444  3
    161    160    169    171     1  0.0000000  0.6508444  3
    162    160    169    178     1  0.0000000  1.0460000  1
    162    160    169    178     1  0.0000000  0.0000000  3
    162    160    169    170     1  0.0000000  0.6508444  3
    162    160    169    171     1  0.0000000  0.6508444  3
    163    151    150    179     1  0.0000000  0.6508444  3
    164    163    175    418     1  0.0000000  1.0460000  1
    164    163    175    418     1  0.0000000  0.0000000  3
    164    163    175    176     1  0.0000000  0.6508444  3
    164    163    175    177     1  0.0000000  0.6508444  3
    165    163    175    418     1  0.0000000  1.0460000  1
    165    163    175    418     1  0.0000000  0.0000000  3
    165    163    175    176     1  0.0000000  0.6508444  3
    165    163    175    177     1  0.0000000  0.6508444  3
    166    154    150    179     1  0.0000000  0.6508444  3
    167    166    172    388     1  0.0000000  1.0460000  1
    167    166    172    388     1  0.0000000  0.0000000  3
    167    166    172    173     1  0.0000000  0.6508444  3
    167    166    172    174     1  0.0000000  0.6508444  3
    168    166    172    388     1  0.0000000  1.0460000  1
    168    166    172    388     1  0.0000000  0.0000000  3
    168    166    172    173     1  0.0000000  0.6508444  3
    168    166    172    174     1  0.0000000  0.6508444  3
    172    388    379    380     1  0.0000000  1.6038667  3
    172    388    379    381     1  0.0000000  1.6038667  3
    173    172    388    379     1  0.0000000  1.6038667  3
    174    172    388    379     1  0.0000000  1.6038667  3
    175    418    409    410     1  0.0000000  1.6038667  3
    175    418    409    411     1  0.0000000  1.6038667  3
    176    175    418    409     1  0.0000000  1.6038667  3
    177    175    418    409     1  0.0000000  1.6038667  3
    180    181    193    194     1  0.0000000  0.6508444  3
    180    181    193    195     1  0.0000000  0.6508444  3
    180    184    196    197     1  0.0000000  0.6508444  3
    180    184    196    198     1  0.0000000  0.6508444  3
    180    187    190    191     1  0.0000000  0.6508444  3
    180    187    190    192     1  0.0000000  0.6508444  3
    181    180    184    185     1  0.0000000  0.6508444  3
    181    180    184    186     1  0.0000000  0.6508444  3
    181    180    187    188     1  0.0000000  0.6508444  3
    181    180    187    189     1  0.0000000  0.6508444  3
    181    193    205    206     1  0.0000000  0.6508444  3
    181    193    205    207     1  0.0000000  0.6508444  3
    182    181    180    184     1  0.0000000  0.6508444  3
    182    181    180    187     1  0.0000000  0.6508444  3
    182    181    180    209     1  0.0000000  0.6508444  3
    182    181    193    205     1  0.0000000  0.6508444  3
    182    181    193    194     1  0.0000000  0.6508444  3
    182    181    193    195     1  0.0000000  0.6508444  3
    183    181    180    184     1  0.0000000  0.6508444  3
    183    181    180    187     1  0.0000000  0.6508444  3
    183    181    180    209     1  0.0000000  0.6508444  3
    183    181    193    205     1  0.0000000  0.6508444  3
    183    181    193    194     1  0.0000000  0.6508444  3
    183    181    193    195     1  0.0000000  0.6508444  3
    184    180    187    188     1  0.0000000  0.6508444  3
    184    180    187    189     1  0.0000000  0.6508444  3
    184    196    202    203     1  0.0000000  0.6508444  3
    184    196    202    204     1  0.0000000  0.6508444  3
    185    184    180    187     1  0.0000000  0.6508444  3
    185    184    180    209     1  0.0000000  0.6508444  3
    185    184    196    202     1  0.0000000  0.6508444  3
    185    184    196    197     1  0.0000000  0.6508444  3
    185    184    196    198     1  0.0000000  0.6508444  3
    186    184    180    187     1  0.0000000  0.6508444  3
    186    184    180    209     1  0.0000000  0.6508444  3
    186    184    196    202     1  0.0000000  0.6508444  3
    186    184    196    197     1  0.0000000  0.6508444  3
    186    184    196    198     1  0.0000000  0.6508444  3
    187    190    199    200     1  0.0000000  0.6508444  3
    187    190    199    201     1  0.0000000  0.6508444  3
    188    187    180    209     1  0.0000000  0.6508444  3
    188    187    190    199     1  0.0000000  0.6508444  3
    188    187    190    191     1  0.0000000  0.6508444  3
    188    187    190    192     1  0.0000000  0.6508444  3
    189    187    180    209     1  0.0000000  0.6508444  3
    189    187    190    199     1  0.0000000  0.6508444  3
    189    187    190    191     1  0.0000000  0.6508444  3
    189    187    190    192     1  0.0000000  0.6508444  3
    190    187    180    209     1  0.0000000  0.6508444  3
    191    190    199    208     1  0.0000000  1.0460000  1
    191    190    199    208     1  0.0000000  0.0000000  3
    191    190    199    200     1  0.0000000  0.6508444  3
    191    190    199    201     1  0.0000000  0.6508444  3
    192    190    199    208     1  0.0000000  1.0460000  1
    192    190    199    208     1  0.0000000  0.0000000  3
    192    190    199    200     1  0.0000000  0.6508444  3
    192    190    199    201     1  0.0000000  0.6508444  3
    193    181    180    209     1  0.0000000  0.6508444  3
    194    193    205    446     1  0.0000000  1.0460000  1
    194    193    205    446     1  0.0000000  0.0000000  3
    194    193    205    206     1  0.0000000  0.6508444  3
    194    193    205    207     1  0.0000000  0.6508444  3
    195    193    205    446     1  0.0000000  1.0460000  1
    195    193    205    446     1  0.0000000  0.0000000  3
    195    193    205    206     1  0.0000000  0.6508444  3
    195    193    205    207     1  0.0000000  0.6508444  3
    196    184    180    209     1  0.0000000  0.6508444  3
    197    196    202    432     1  0.0000000  1.0460000  1
    197    196    202    432     1  0.0000000  0.0000000  3
    197    196    202    203     1  0.0000000  0.6508444  3
    197    196    202    204     1  0.0000000  0.6508444  3
    198    196    202    432     1  0.0000000  1.0460000  1
    198    196    202    432     1  0.0000000  0.0000000  3
    198    196    202    203     1  0.0000000  0.6508444  3
    198    196    202    204     1  0.0000000  0.6508444  3
    202    432    426    427     1  0.0000000  1.6038667  3
    202    432    426    428     1  0.0000000  1.6038667  3
    203    202    432    426     1  0.0000000  1.6038667  3
    204    202    432    426     1  0.0000000  1.6038667  3
    205    446    440    441     1  0.0000000  1.6038667  3
    205    446    440    442     1  0.0000000  1.6038667  3
    206    205    446    440     1  0.0000000  1.6038667  3
    207    205    446    440     1  0.0000000  1.6038667  3
    210    211    223    224     1  0.0000000  0.6508444  3
    210    211    223    225     1  0.0000000  0.6508444  3
    210    214    226    227     1  0.0000000  0.6508444  3
    210    214    226    228     1  0.0000000  0.6508444  3
    210    217    220    221     1  0.0000000  0.6508444  3
    210    217    220    222     1  0.0000000  0.6508444  3
    211    210    214    215     1  0.0000000  0.6508444  3
    211    210    214    216     1  0.0000000  0.6508444  3
    211    210    217    218     1  0.0000000  0.6508444  3
    211    210    217    219     1  0.0000000  0.6508444  3
    211    223    235    236     1  0.0000000  0.6508444  3
    211    223    235    237     1  0.0000000  0.6508444  3
    212    211    210    214     1  0.0000000  0.6508444  3
    212    211    210    217     1  0.0000000  0.6508444  3
    212    211    210    239     1  0.0000000  0.6508444  3
    212    211    223    235     1  0.0000000  0.6508444  3
    212    211    223    224     1  0.0000000  0.6508444  3
    212    211    223    225     1  0.0000000  0.6508444  3
    213    211    210    214     1  0.0000000  0.6508444  3
    213    211    210    217     1  0.0000000  0.6508444  3
    213    211    210    239     1  0.0000000  0.6508444  3
    213    211    223    235     1  0.0000000  0.6508444  3
    213    211    223    224     1  0.0000000  0.6508444  3
    213    211    223    225     1  0.0000000  0.6508444  3
    214    210    217    218     1  0.0000000  0.6508444  3
    214    210    217    219     1  0.0000000  0.6508444  3
    214    226    232    233     1  0.0000000  0.6508444  3
    214    226    232    234     1  0.0000000  0.6508444  3
    215    214    210    217     1  0.0000000  0.6508444  3
    215    214    210    239     1  0.0000000  0.6508444  3
    215    214    226    232     1  0.0000000  0.6508444  3
    215    214    226    227     1  0.0000000  0.6508444  3
    215    214    226    228     1  0.0000000  0.6508444  3
    216    214    210    217     1  0.0000000  0.6508444  3
    216    214    210    239     1  0.0000000  0.6508444  3
    216    214    226    232     1  0.0000000  0.6508444  3
    216    214    226    227     1  0.0000000  0.6508444  3
    216    214    226    228     1  0.0000000  0.6508444  3
    217    220    229    230     1  0.0000000  0.6508444  3
    217    220    229    231     1  0.0000000  0.6508444  3
    218    217    210    239     1  0.0000000  0.6508444  3
    218    217    220    229     1  0.0000000  0.6508444  3
    218    217    220    221     1  0.0000000  0.6508444  3
    218    217    220    222     1  0.0000000  0.6508444  3
    219    217    210    239     1  0.0000000  0.6508444  3
    219    217    220    229     1  0.0000000  0.6508444  3
    219    217    220    221     1  0.0000000  0.6508444  3
    219    217    220    222     1  0.0000000  0.6508444  3
    220    217    210    239     1  0.0000000  0.6508444  3
    221    220    229    238     1  0.0000000  1.0460000  1
    221    220    229    238     1  0.0000000  0.0000000  3
    221    220    229    230     1  0.0000000  0.6508444  3
    221    220    229    231     1  0.0000000  0.6508444  3
    222    220    229    238     1  0.0000000  1.0460000  1
    222    220    229    238     1  0.0000000  0.0000000  3
    222    220    229    230     1  0.0000000  0.6508444  3
    222    220    229    231     1  0.0000000  0.6508444  3
    223    211    210    239     1  0.0000000  0.6508444  3
    224    223    235    474     1  0.0000000  1.0460000  1
    224    223    235    474     1  0.0000000  0.0000000  3
    224    223    235    236     1  0.0000000  0.6508444  3
    224    223    235    237     1  0.0000000  0.6508444  3
    225    223    235    474     1  0.0000000  1.0460000  1
    225    223    235    474     1  0.0000000  0.0000000  3
    225    223    235    236     1  0.0000000  0.6508444  3
    225    223    235    237     1  0.0000000  0.6508444  3
    226    214    210    239     1  0.0000000  0.6508444  3
    227    226    232    460     1  0.0000000  1.0460000  1
    227    226    232    460     1  0.0000000  0.0000000  3
    227    226    232    233     1  0.0000000  0.6508444  3
    227    226    232    234     1  0.0000000  0.6508444  3
    228    226    232    460     1  0.0000000  1.0460000  1
    228    226    232    460     1  0.0000000  0.0000000  3
    228    226    232    233     1  0.0000000  0.6508444  3
    228    226    232    234     1  0.0000000  0.6508444  3
    232    460    454    455     1  0.0000000  1.6038667  3
    232    460    454    456     1  0.0000000  1.6038667  3
    233    232    460    454     1  0.0000000  1.6038667  3
    234    232    460    454     1  0.0000000  1.6038667  3
    235    474    468    469     1  0.0000000  1.6038667  3
    235    474    468    470     1  0.0000000  1.6038667  3
    236    235    474    468     1  0.0000000  1.6038667  3
    237    235    474    468     1  0.0000000  1.6038667  3
    240    241    253    254     1  0.0000000  0.6508444  3
    240    241    253    255     1  0.0000000  0.6508444  3
    240    244    256    257     1  0.0000000  0.6508444  3
    240    244    256    258     1  0.0000000  0.6508444  3
    240    247    250    251     1  0.0000000  0.6508444  3
    240    247    250    252     1  0.0000000  0.6508444  3
    241    240    244    245     1  0.0000000  0.6508444  3
    241    240    244    246     1  0.0000000  0.6508444  3
    241    240    247    248     1  0.0000000  0.6508444  3
    241    240    247    249     1  0.0000000  0.6508444  3
    241    253    265    266     1  0.0000000  0.6508444  3
    241    253    265    267     1  0.0000000  0.6508444  3
    242    241    240    244     1  0.0000000  0.6508444  3
    242    241    240    247     1  0.0000000  0.6508444  3
    242    241    240    269     1  0.0000000  0.6508444  3
    242    241    253    265     1  0.0000000  0.6508444  3
    242    241    253    254     1  0.0000000  0.6508444  3
    242    241    253    255     1  0.0000000  0.6508444  3
    243    241    240    244     1  0.0000000  0.6508444  3
    243    241    240    247     1  0.0000000  0.6508444  3
    243    241    240    269     1  0.0000000  0.6508444  3
    243    241    253    265     1  0.0000000  0.6508444  3
    243    241    253    254     1  0.0000000  0.6508444  3
    243    241    253    255     1  0.0000000  0.6508444  3
    244    240    247    248     1  0.0000000  0.6508444  3
    244    240    247    249     1  0.0000000  0.6508444  3
    244    256    262    263     1  0.0000000  0.6508444  3
    244    256    262    264     1  0.0000000  0.6508444  3
    245    244    240    247     1  0.0000000  0.6508444  3
    245    244    240    269     1  0.0000000  0.6508444  3
    245    244    256    262     1  0.0000000  0.6508444  3
    245    244    256    257     1  0.0000000  0.6508444  3
    245    244    256    258     1  0.0000000  0.6508444  3
    246    244    240    247     1  0.0000000  0.6508444  3
    246    244    240    269     1  0.0000000  0.6508444  3
    246    244    256    262     1  0.0000000  0.6508444  3
    246    244    256    257     1  0.0000000  0.6508444  3
    246    244    256    258     1  0.0000000  0.6508444  3
    247    250    259    260     1  0.0000000  0.6508444  3
    247    250    259    261     1  0.0000000  0.6508444  3
    248    247    240    269     1  0.0000000  0.6508444  3
    248    247    250    259     1  0.0000000  0.6508444  3
    248    247    250    251     1  0.0000000  0.6508444  3
    248    247    250    252     1  0.0000000  0.6508444  3
    249    247    240    269     1  0.0000000  0.6508444  3
    249    247    250    259     1  0.0000000  0.6508444  3
    249    247    250    251     1  0.0000000  0.6508444  3
    249    247    250    252     1  0.0000000  0.6508444  3
    250    247    240    269     1  0.0000000  0.6508444  3
    251    250    259    268     1  0.0000000  1.0460000  1
    251    250    259    268     1  0.0000000  0.0000000  3
    251    250    259    260     1  0.0000000  0.6508444  3
    251    250    259    261     1  0.0000000  0.6508444  3
    252    250    259    268     1  0.0000000  1.0460000  1
    252    250    259    268     1  0.0000000  0.0000000  3
    252    250    259    260     1  0.0000000  0.6508444  3
    252    250    259    261     1  0.0000000  0.6508444  3
    253    241    240    269     1  0.0000000  0.6508444  3
    254    253    265    502     1  0.0000000  1.0460000  1
    254    253    265    502     1  0.0000000  0.0000000  3
    254    253    265    266     1  0.0000000  0.6508444  3
    254    253    265    267     1  0.0000000  0.6508444  3
    255    253    265    502     1  0.0000000  1.0460000  1
    255    253    265    502     1  0.0000000  0.0000000  3
    255    253    265    266     1  0.0000000  0.6508444  3
    255    253    265    267     1  0.0000000  0.6508444  3
    256    244    240    269     1  0.0000000  0.6508444  3
    257    256    262    488     1  0.0000000  1.0460000  1
    257    256    262    488     1  0.0000000  0.0000000  3
    257    256    262    263     1  0.0000000  0.6508444  3
    257    256    262    264     1  0.0000000  0.6508444  3
    258    256    262    488     1  0.0000000  1.0460000  1
    258    256    262    488     1  0.0000000  0.0000000  3
    258    256    262    263     1  0.0000000  0.6508444  3
    258    256    262    264     1  0.0000000  0.6508444  3
    262    488    482    483     1  0.0000000  1.6038667  3
    262    488    482    484     1  0.0000000  1.6038667  3
    263    262    488    482     1  0.0000000  1.6038667  3
    264    262    488    482     1  0.0000000  1.6038667  3
    265    502    496    497     1  0.0000000  1.6038667  3
    265    502    496    498     1  0.0000000  1.6038667  3
    266    265    502    496     1  0.0000000  1.6038667  3
    267    265    502    496     1  0.0000000  1.6038667  3
    270    271    283    284     1  0.0000000  0.6508444  3
    270    271    283    285     1  0.0000000  0.6508444  3
    270    274    286    287     1  0.0000000  0.6508444  3
    270    274    286    288     1  0.0000000  0.6508444  3
    270    277    280    281     1  0.0000000  0.6508444  3
    270    277    280    282     1  0.0000000  0.6508444  3
    271    270    274    275     1  0.0000000  0.6508444  3
    271    270    274    276     1  0.0000000  0.6508444  3
    271    270    277    278     1  0.0000000  0.6508444  3
    271    270    277    279     1  0.0000000  0.6508444  3
    271    283    295    296     1  0.0000000  0.6508444  3
    271    283    295    297     1  0.0000000  0.6508444  3
    272    271    270    274     1  0.0000000  0.6508444  3
    272    271    270    277     1  0.0000000  0.6508444  3
    272    271    270    299     1  0.0000000  0.6508444  3
    272    271    283    295     1  0.0000000  0.6508444  3
    272    271    283    284     1  0.0000000  0.6508444  3
    272    271    283    285     1  0.0000000  0.6508444  3
    273    271    270    274     1  0.0000000  0.6508444  3
    273    271    270    277     1  0.0000000  0.6508444  3
    273    271    270    299     1  0.0000000  0.6508444  3
    273    271    283    295     1  0.0000000  0.6508444  3
    273    271    283    284     1  0.0000000  0.6508444  3
    273    271    283    285     1  0.0000000  0.6508444  3
    274    270    277    278     1  0.0000000  0.6508444  3
    274    270    277    279     1  0.0000000  0.6508444  3
    274    286    292    293     1  0.0000000  0.6508444  3
    274    286    292    294     1  0.0000000  0.6508444  3
    275    274    270    277     1  0.0000000  0.6508444  3
    275    274    270    299     1  0.0000000  0.6508444  3
    275    274    286    292     1  0.0000000  0.6508444  3
    275    274    286    287     1  0.0000000  0.6508444  3
    275    274    286    288     1  0.0000000  0.6508444  3
    276    274    270    277     1  0.0000000  0.6508444  3
    276    274    270    299     1  0.0000000  0.6508444  3
    276    274    286    292     1  0.0000000  0.6508444  3
    276    274    286    287     1  0.0000000  0.6508444  3
    276    274    286    288     1  0.0000000  0.6508444  3
    277    280    289    290     1  0.0000000  0.6508444  3
    277    280    289    291     1  0.0000000  0.6508444  3
    278    277    270    299     1  0.0000000  0.6508444  3
    278    277    280    289     1  0.0000000  0.6508444  3
    278    277    280    281     1  0.0000000  0.6508444  3
    278    277    280    282     1  0.0000000  0.6508444  3
    279    277    270    299     1  0.0000000  0.6508444  3
    279    277    280    289     1  0.0000000  0.6508444  3
    279    277    280    281     1  0.0000000  0.6508444  3
    279    277    280    282     1  0.0000000  0.6508444  3
    280    277    270    299     1  0.0000000  0.6508444  3
    281    280    289    298     1  0.0000000  1.0460000  1
    281    280    289    298     1  0.0000000  0.0000000  3
    281    280    289    290     1  0.0000000  0.6508444  3
    281    280    289    291     1  0.0000000  0.6508444  3
    282    280    289    298     1  0.0000000  1.0460000  1
    282    280    289    298     1  0.0000000  0.0000000  3
    282    280    289    290     1  0.0000000  0.6508444  3
    282    280    289    291     1  0.0000000  0.6508444  3
    283    271    270    299     1  0.0000000  0.6508444  3
    284    283    295    530     1  0.0000000  1.0460000  1
    284    283    295    530     1  0.0000000  0.0000000  3
    284    283    295    296     1  0.0000000  0.6508444  3
    284    283    295    297     1  0.0000000  0.6508444  3
    285    283    295    530     1  0.0000000  1.0460000  1
    285    283    295    530     1  0.0000000  0.0000000  3
    285    283    295    296     1  0.0000000  0.6508444  3
    285    283    295    297     1  0.0000000  0.6508444  3
    286    274    270    299     1  0.0000000  0.6508444  3
    287    286    292    516     1  0.0000000  1.0460000  1
    287    286    292    516     1  0.0000000  0.0000000  3
    287    286    292    293     1  0.0000000  0.6508444  3
    287    286    292    294     1  0.0000000  0.6508444  3
    288    286    292    516     1  0.0000000  1.0460000  1
    288    286    292    516     1  0.0000000  0.0000000  3
    288    286    292    293     1  0.0000000  0.6508444  3
    288    286    292    294     1  0.0000000  0.6508444  3
    292    516    510    511     1  0.0000000  1.6038667  3
    292    516    510    512     1  0.0000000  1.6038667  3
    293    292    516    510     1  0.0000000  1.6038667  3
    294    292    516    510     1  0.0000000  1.6038667  3
    295    530    524    525     1  0.0000000  1.6038667  3
    295    530    524    526     1  0.0000000  1.6038667  3
    296    295    530    524     1  0.0000000  1.6038667  3
    297    295    530    524     1  0.0000000  1.6038667  3
    300    301    313    314     1  0.0000000  0.6508444  3
    300    301    313    315     1  0.0000000  0.6508444  3
    300    304    316    317     1  0.0000000  0.6508444  3
    300    304    316    318     1  0.0000000  0.6508444  3
    300    307    310    311     1  0.0000000  0.6508444  3
    300    307    310    312     1  0.0000000  0.6508444  3
    301    300    304    305     1  0.0000000  0.6508444  3
    301    300    304    306     1  0.0000000  0.6508444  3
    301    300    307    308     1  0.0000000  0.6508444  3
    301    300    307    309     1  0.0000000  0.6508444  3
    301    313    325    326     1  0.0000000  0.6508444  3
    301    313    325    327     1  0.0000000  0.6508444  3
    302    301    300    304     1  0.0000000  0.6508444  3
    302    301    300    307     1  0.0000000  0.6508444  3
    302    301    300    329     1  0.0000000  0.6508444  3
    302    301    313    325     1  0.0000000  0.6508444  3
    302    301    313    314     1  0.0000000  0.6508444  3
    302    301    313    315     1  0.0000000  0.6508444  3
    303    301    300    304     1  0.0000000  0.6508444  3
    303    301    300    307     1  0.0000000  0.6508444  3
    303    301    300    329     1  0.0000000  0.6508444  3
    303    301    313    325     1  0.0000000  0.6508444  3
    303    301    313    314     1  0.0000000  0.6508444  3
    303    301    313    315     1  0.0000000  0.6508444  3
    304    300    307    308     1  0.0000000  0.6508444  3
    304    300    307    309     1  0.0000000  0.6508444  3
    304    316    322    323     1  0.0000000  0.6508444  3
    304    316    322    324     1  0.0000000  0.6508444  3
    305    304    300    307     1  0.0000000  0.6508444  3
    305    304    300    329     1  0.0000000  0.6508444  3
    305    304    316    322     1  0.0000000  0.6508444  3
    305    304    316    317     1  0.0000000  0.6508444  3
    305    304    316    318     1  0.0000000  0.6508444  3
    306    304    300    307     1  0.0000000  0.6508444  3
    306    304    300    329     1  0.0000000  0.6508444  3
    306    304    316    322     1  0.0000000  0.6508444  3
    306    304    316    317     1  0.0000000  0.6508444  3
    306    304    316    318     1  0.0000000  0.6508444  3
    307    310    319    320     1  0.0000000  0.6508444  3
    307    310    319    321     1  0.0000000  0.6508444  3
    308    307    300    329     1  0.0000000  0.6508444  3
    308    307    310    319     1  0.0000000  0.6508444  3
    308    307    310    311     1  0.0000000  0.6508444  3
    308    307    310    312     1  0.0000000  0.6508444  3
    309    307    300    329     1  0.0000000  0.6508444  3
    309    307    310    319     1  0.0000000  0.6508444  3
    309    307    310    311     1  0.0000000  0.6508444  3
    309    307    310    312     1  0.0000000  0.6508444  3
    310    307    300    329     1  0.0000000  0.6508444  3
    311    310    319    328     1  0.0000000  1.0460000  1
    311    310    319    328     1  0.0000000  0.0000000  3
    311    310    319    320     1  0.0000000  0.6508444  3
    311    310    319    321     1  0.0000000  0.6508444  3
    312    310    319    328     1  0.0000000  1.0460000  1
    312    310    319    328     1  0.0000000  0.0000000  3
    312    310    319    320     1  0.0000000  0.6508444  3
    312    310    319    321     1  0.0000000  0.6508444  3
    313    301    300    329     1  0.0000000  0.6508444  3
    314    313    325    558     1  0.0000000  1.0460000  1
    314    313    325    558     1  0.0000000  0.0000000  3
    314    313    325    326     1  0.0000000  0.6508444  3
    314    313    325    327     1  0.0000000  0.6508444  3
    315    313    325    558     1  0.0000000  1.0460000  1
    315    313    325    558     1  0.0000000  0.0000000  3
    315    313    325    326     1  0.0000000  0.6508444  3
    315    313    325    327     1  0.0000000  0.6508444  3
    316    304    300    329     1  0.0000000  0.6508444  3
    317    316    322    544     1  0.0000000  1.0460000  1
    317    316    322    544     1  0.0000000  0.0000000  3
    317    316    322    323     1  0.0000000  0.6508444  3
    317    316    322    324     1  0.0000000  0.6508444  3
    318    316    322    544     1  0.0000000  1.0460000  1
    318    316    322    544     1  0.0000000  0.0000000  3
    318    316    322    323     1  0.0000000  0.6508444  3
    318    316    322    324     1  0.0000000  0.6508444  3
    322    544    538    539     1  0.0000000  1.6038667  3
    322    544    538    540     1  0.0000000  1.6038667  3
    323    322    544    538     1  0.0000000  1.6038667  3
    324    322    544    538     1  0.0000000  1.6038667  3
    325    558    552    553     1  0.0000000  1.6038667  3
    325    558    552    554     1  0.0000000  1.6038667  3
    326    325    558    552     1  0.0000000  1.6038667  3
    327    325    558    552     1  0.0000000  1.6038667  3
    330    331    343    344     1  0.0000000  0.6508444  3
    330    331    343    345     1  0.0000000  0.6508444  3
    330    334    346    347     1  0.0000000  0.6508444  3
    330    334    346    348     1  0.0000000  0.6508444  3
    330    337    340    341     1  0.0000000  0.6508444  3
    330    337    340    342     1  0.0000000  0.6508444  3
    331    330    334    335     1  0.0000000  0.6508444  3
    331    330    334    336     1  0.0000000  0.6508444  3
    331    330    337    338     1  0.0000000  0.6508444  3
    331    330    337    339     1  0.0000000  0.6508444  3
    331    343    355    356     1  0.0000000  0.6508444  3
    331    343    355    357     1  0.0000000  0.6508444  3
    332    331    330    334     1  0.0000000  0.6508444  3
    332    331    330    337     1  0.0000000  0.6508444  3
    332    331    330    359     1  0.0000000  0.6508444  3
    332    331    343    355     1  0.0000000  0.6508444  3
    332    331    343    344     1  0.0000000  0.6508444  3
    332    331    343    345     1  0.0000000  0.6508444  3
    333    331    330    334     1  0.0000000  0.6508444  3
    333    331    330    337     1  0.0000000  0.6508444  3
    333    331    330    359     1  0.0000000  0.6508444  3
    333    331    343    355     1  0.0000000  0.6508444  3
    333    331    343    344     1  0.0000000  0.6508444  3
    333    331    343    345     1  0.0000000  0.6508444  3
    334    330    337    338     1  0.0000000  0.6508444  3
    334    330    337    339     1  0.0000000  0.6508444  3
    334    346    352    353     1  0.0000000  0.6508444  3
    334    346    352    354     1  0.0000000  0.6508444  3
    335    334    330    337     1  0.0000000  0.6508444  3
    335    334    330    359     1  0.0000000  0.6508444  3
    335    334    346    352     1  0.0000000  0.6508444  3
    335    334    346    347     1  0.0000000  0.6508444  3
    335    334    346    348     1  0.0000000  0.6508444  3
    336    334    330    337     1  0.0000000  0.6508444  3
    336    334    330    359     1  0.0000000  0.6508444  3
    336    334    346    352     1  0.0000000  0.6508444  3
    336    334    346    347     1  0.0000000  0.6508444  3
    336    334    346    348     1  0.0000000  0.6508444  3
    337    340    349    350     1  0.0000000  0.6508444  3
    337    340    349    351     1  0.0000000  0.6508444  3
    338    337    330    359     1  0.0000000  0.6508444  3
    338    337    340    349     1  0.0000000  0.6508444  3
    338    337    340    341     1  0.0000000  0.6508444  3
    338    337    340    342     1  0.0000000  0.6508444  3
    339    337    330    359     1  0.0000000  0.6508444  3
    339    337    340    349     1  0.0000000  0.6508444  3
    339    337    340    341     1  0.0000000  0.6508444  3
    339    337    340    342     1  0.0000000  0.6508444  3
    340    337    330    359     1  0.0000000  0.6508444  3
    341    340    349    358     1  0.0000000  1.0460000  1
    341    340    349    358     1  0.0000000  0.0000000  3
    341    340    349    350     1  0.0000000  0.6508444  3
    341    340    349    351     1  0.0000000  0.6508444  3
    342    340    349    358     1  0.0000000  1.0460000  1
    342    340    349    358     1  0.0000000  0.0000000  3
    342    340    349    350     1  0.0000000  0.6508444  3
    342    340    349    351     1  0.0000000  0.6508444  3
    343    331    330    359     1  0.0000000  0.6508444  3
    344    343    355    586     1  0.0000000  1.0460000  1
    344    343    355    586     1  0.0000000  0.0000000  3
    344    343    355    356     1  0.0000000  0.6508444  3
    344    343    355    357     1  0.0000000  0.6508444  3
    345    343    355    586     1  0.0000000  1.0460000  1
    345    343    355    586     1  0.0000000  0.0000000  3
    345    343    355    356     1  0.0000000  0.6508444  3
    345    343    355    357     1  0.0000000  0.6508444  3
    346    334    330    359     1  0.0000000  0.6508444  3
    347    346    352    572     1  0.0000000  1.0460000  1
    347    346    352    572     1  0.0000000  0.0000000  3
    347    346    352    353     1  0.0000000  0.6508444  3
    347    346    352    354     1  0.0000000  0.6508444  3
    348    346    352    572     1  0.0000000  1.0460000  1
    348    346    352    572     1  0.0000000  0.0000000  3
    348    346    352    353     1  0.0000000  0.6508444  3
    348    346    352    354     1  0.0000000  0.6508444  3
    352    572    566    567     1  0.0000000  1.6038667  3
    352    572    566    568     1  0.0000000  1.6038667  3
    353    352    572    566     1  0.0000000  1.6038667  3
    354    352    572    566     1  0.0000000  1.6038667  3
    355    586    580    581     1  0.0000000  1.6038667  3
    355    586    580    582     1  0.0000000  1.6038667  3
    356    355    586    580     1  0.0000000  1.6038667  3
    357    355    586    580     1  0.0000000  1.6038667  3
    360    361    373    374     1  0.0000000  0.6508444  3
    360    361    373    375     1  0.0000000  0.6508444  3
    360    364    376    377     1  0.0000000  0.6508444  3
    360    364    376    378     1  0.0000000  0.6508444  3
    360    367    370    371     1  0.0000000  0.6508444  3
    360    367    370    372     1  0.0000000  0.6508444  3
    361    360    364    365     1  0.0000000  0.6508444  3
    361    360    364    366     1  0.0000000  0.6508444  3
    361    360    367    368     1  0.0000000  0.6508444  3
    361    360    367    369     1  0.0000000  0.6508444  3
    361    373    385    386     1  0.0000000  0.6508444  3
    361    373    385    387     1  0.0000000  0.6508444  3
    362    361    360    364     1  0.0000000  0.6508444  3
    362    361    360    367     1  0.0000000  0.6508444  3
    362    361    360    389     1  0.0000000  0.6508444  3
    362    361    373    385     1  0.0000000  0.6508444  3
    362    361    373    374     1  0.0000000  0.6508444  3
    362    361    373    375     1  0.0000000  0.6508444  3
    363    361    360    364     1  0.0000000  0.6508444  3
    363    361    360    367     1  0.0000000  0.6508444  3
    363    361    360    389     1  0.0000000  0.6508444  3
    363    361    373    385     1  0.0000000  0.6508444  3
    363    361    373    374     1  0.0000000  0.6508444  3
    363    361    373    375     1  0.0000000  0.6508444  3
    364    360    367    368     1  0.0000000  0.6508444  3
    364    360    367    369     1  0.0000000  0.6508444  3
    364    376    382    383     1  0.0000000  0.6508444  3
    364    376    382    384     1  0.0000000  0.6508444  3
    365    364    360    367     1  0.0000000  0.6508444  3
    365    364    360    389     1  0.0000000  0.6508444  3
    365    364    376    382     1  0.0000000  0.6508444  3
    365    364    376    377     1  0.0000000  0.6508444  3
    365    364    376    378     1  0.0000000  0.6508444  3
    366    364    360    367     1  0.0000000  0.6508444  3
    366    364    360    389     1  0.0000000  0.6508444  3
    366    364    376    382     1  0.0000000  0.6508444  3
    366    364    376    377     1  0.0000000  0.6508444  3
    366    364    376    378     1  0.0000000  0.6508444  3
    367    370    379    380     1  0.0000000  0.6508444  3
    367    370    379    381     1  0.0000000  0.6508444  3
    368    367    360    389     1  0.0000000  0.6508444  3
    368    367    370    379     1  0.0000000  0.6508444  3
    368    367    370    371     1  0.0000000  0.6508444  3
    368    367    370    372     1  0.0000000  0.6508444  3
    369    367    360    389     1  0.0000000  0.6508444  3
    369    367    370    379     1  0.0000000  0.6508444  3
    369    367    370    371     1  0.0000000  0.6508444  3
    369    367    370    372     1  0.0000000  0.6508444  3
    370    367    360    389     1  0.0000000  0.6508444  3
    371    370    379    388     1  0.0000000  1.0460000  1
    371    370    379    388     1  0.0000000  0.0000000  3
    371    370    379    380     1  0.0000000  0.6508444  3
    371    370    379    381     1  0.0000000  0.6508444  3
    372    370    379    388     1  0.0000000  1.0460000  1
    372    370    379    388     1  0.0000000  0.0000000  3
    372    370    379    380     1  0.0000000  0.6508444  3
    372    370    379    381     1  0.0000000  0.6508444  3
    373    361    360    389     1  0.0000000  0.6508444  3
    374    373    385    614     1  0.0000000  1.0460000  1
    374    373    385    614     1  0.0000000  0.0000000  3
    374    373    385    386     1  0.0000000  0.6508444  3
    374    373    385    387     1  0.0000000  0.6508444  3
    375    373    385    614     1  0.0000000  1.0460000  1
    375    373    385    614     1  0.0000000  0.0000000  3
    375    373    385    386     1  0.0000000  0.6508444  3
    375    373    385    387     1  0.0000000  0.6508444  3
    376    364    360    389     1  0.0000000  0.6508444  3
    377    376    382    600     1  0.0000000  1.0460000  1
    377    376    382    600     1  0.0000000  0.0000000  3
    377    376    382    383     1  0.0000000  0.6508444  3
    377    376    382    384     1  0.0000000  0.6508444  3
    378    376    382    600     1  0.0000000  1.0460000  1
    378    376    382    600     1  0.0000000  0.0000000  3
    378    376    382    383     1  0.0000000  0.6508444  3
    378    376    382    384     1  0.0000000  0.6508444  3
    382    600    594    595     1  0.0000000  1.6038667  3
    382    600    594    596     1  0.0000000  1.6038667  3
    383    382    600    594     1  0.0000000  1.6038667  3
    384    382    600    594     1  0.0000000  1.6038667  3
    385    614    608    609     1  0.0000000  1.6038667  3
    385    614    608    610     1  0.0000000  1.6038667  3
    386    385    614    608     1  0.0000000  1.6038667  3
    387    385    614    608     1  0.0000000  1.6038667  3
    390    391    403    404     1  0.0000000  0.6508444  3
    390    391    403    405     1  0.0000000  0.6508444  3
    390    394    406    407     1  0.0000000  0.6508444  3
    390    394    406    408     1  0.0000000  0.6508444  3
    390    397    400    401     1  0.0000000  0.6508444  3
    390    397    400    402     1  0.0000000  0.6508444  3
    391    390    394    395     1  0.0000000  0.6508444  3
    391    390    394    396     1  0.0000000  0.6508444  3
    391    390    397    398     1  0.0000000  0.6508444  3
    391    390    397    399     1  0.0000000  0.6508444  3
    391    403    415    416     1  0.0000000  0.6508444  3
    391    403    415    417     1  0.0000000  0.6508444  3
    392    391    390    394     1  0.0000000  0.6508444  3
    392    391    390    397     1  0.0000000  0.6508444  3
    392    391    390    419     1  0.0000000  0.6508444  3
    392    391    403    415     1  0.0000000  0.6508444  3
    392    391    403    404     1  0.0000000  0.6508444  3
    392    391    403    405     1  0.0000000  0.6508444  3
    393    391    390    394     1  0.0000000  0.6508444  3
    393    391    390    397     1  0.0000000  0.6508444  3
    393    391    390    419     1  0.0000000  0.6508444  3
    393    391    403    415     1  0.0000000  0.6508444  3
    393    391    403    404     1  0.0000000  0.6508444  3
    393    391    403    405     1  0.0000000  0.6508444  3
    394    390    397    398     1  0.0000000  0.6508444  3
    394    390    397    399     1  0.0000000  0.6508444  3
    394    406    412    413     1  0.0000000  0.6508444  3
    394    406    412    414     1  0.0000000  0.6508444  3
    395    394    390    397     1  0.0000000  0.6508444  3
    395    394    390    419     1  0.0000000  0.6508444  3
    395    394    406    412     1  0.0000000  0.6508444  3
    395    394    406    407     1  0.0000000  0.6508444  3
    395    394    406    408     1  0.0000000  0.6508444  3
    396    394    390    397     1  0.0000000  0.6508444  3
    396    394    390    419     1  0.0000000  0.6508444  3
    396    394    406    412     1  0.0000000  0.6508444  3
    396    394    406    407     1  0.0000000  0.6508444  3
    396    394    406    408     1  0.0000000  0.6508444  3
    397    400    409    410     1  0.0000000  0.6508444  3
    397    400    409    411     1  0.0000000  0.6508444  3
    398    397    390    419     1  0.0000000  0.6508444  3
    398    397    400    409     1  0.0000000  0.6508444  3
    398    397    400    401     1  0.0000000  0.6508444  3
    398    397    400    402     1  0.0000000  0.6508444  3
    399    397    390    419     1  0.0000000  0.6508444  3
    399    397    400    409     1  0.0000000  0.6508444  3
    399    397    400    401     1  0.0000000  0.6508444  3
    399    397    400    402     1  0.0000000  0.6508444  3
    400    397    390    419     1  0.0000000  0.6508444  3
    401    400    409    418     1  0.0000000  1.0460000  1
    401    400    409    418     1  0.0000000  0.0000000  3
    401    400    409    410     1  0.0000000  0.6508444  3
    401    400    409    411     1  0.0000000  0.6508444  3
    402    400    409    418     1  0.0000000  1.0460000  1
    402    400    409    418     1  0.0000000  0.0000000  3
    402    400    409    410     1  0.0000000  0.6508444  3
    402    400    409    411     1  0.0000000  0.6508444  3
    403    391    390    419     1  0.0000000  0.6508444  3
    404    403    415    642     1  0.0000000  1.0460000  1
    404    403    415    642     1  0.0000000  0.0000000  3
    404    403    415    416     1  0.0000000  0.6508444  3
    404    403    415    417     1  0.0000000  0.6508444  3
    405    403    415    642     1  0.0000000  1.0460000  1
    405    403    415    642     1  0.0000000  0.0000000  3
    405    403    415    416     1  0.0000000  0.6508444  3
    405    403    415    417     1  0.0000000  0.6508444  3
    406    394    390    419     1  0.0000000  0.6508444  3
    407    406    412    628     1  0.0000000  1.0460000  1
    407    406    412    628     1  0.0000000  0.0000000  3
    407    406    412    413     1  0.0000000  0.6508444  3
    407    406    412    414     1  0.0000000  0.6508444  3
    408    406    412    628     1  0.0000000  1.0460000  1
    408    406    412    628     1  0.0000000  0.0000000  3
    408    406    412    413     1  0.0000000  0.6508444  3
    408    406    412    414     1  0.0000000  0.6508444  3
    412    628    622    623     1  0.0000000  1.6038667  3
    412    628    622    624     1  0.0000000  1.6038667  3
    413    412    628    622     1  0.0000000  1.6038667  3
    414    412    628    622     1  0.0000000  1.6038667  3
    415    642    636    637     1  0.0000000  1.6038667  3
    415    642    636    638     1  0.0000000  1.6038667  3
    416    415    642    636     1  0.0000000  1.6038667  3
    417    415    642    636     1  0.0000000  1.6038667  3
    420    423    426    427     1  0.0000000  0.6508444  3
    420    423    426    428     1  0.0000000  0.6508444  3
    421    420    423    426     1  0.0000000  0.6508444  3
    421    420    423    424     1  0.0000000  0.6508444  3
    421    420    423    425     1  0.0000000  0.6508444  3
    421    420    429    430     1  0.0000000  0.6508444  3
    421    420    429    431     1  0.0000000  0.6508444  3
    421    420    429    433     1  0.0000000  0.6508444  3
    422    420    423    426     1  0.0000000  0.6508444  3
    422    420    423    424     1  0.0000000  0.6508444  3
    422    420    423    425     1  0.0000000  0.6508444  3
    422    420    429    430     1  0.0000000  0.6508444  3
    422    420    429    431     1  0.0000000  0.6508444  3
    422    420    429    433     1  0.0000000  0.6508444  3
    423    420    429    430     1  0.0000000  0.6508444  3
    423    420    429    431     1  0.0000000  0.6508444  3
    423    420    429    433     1  0.0000000  0.6508444  3
    424    423    420    429     1  0.0000000  0.6508444  3
    424    423    426    432     1  0.0000000  1.0460000  1
    424    423    426    432     1  0.0000000  0.0000000  3
    424    423    426    427     1  0.0000000  0.6508444  3
    424    423    426    428     1  0.0000000  0.6508444  3
    425    423    420    429     1  0.0000000  0.6508444  3
    425    423    426    432     1  0.0000000  1.0460000  1
    425    423    426    432     1  0.0000000  0.0000000  3
    425    423    426    427     1  0.0000000  0.6508444  3
    425    423    426    428     1  0.0000000  0.6508444  3
    434    437    440    441     1  0.0000000  0.6508444  3
    434    437    440    442     1  0.0000000  0.6508444  3
    435    434    437    440     1  0.0000000  0.6508444  3
    435    434    437    438     1  0.0000000  0.6508444  3
    435    434    437    439     1  0.0000000  0.6508444  3
    435    434    443    444     1  0.0000000  0.6508444  3
    435    434    443    445     1  0.0000000  0.6508444  3
    435    434    443    447     1  0.0000000  0.6508444  3
    436    434    437    440     1  0.0000000  0.6508444  3
    436    434    437    438     1  0.0000000  0.6508444  3
    436    434    437    439     1  0.0000000  0.6508444  3
    436    434    443    444     1  0.0000000  0.6508444  3
    436    434    443    445     1  0.0000000  0.6508444  3
    436    434    443    447     1  0.0000000  0.6508444  3
    437    434    443    444     1  0.0000000  0.6508444  3
    437    434    443    445     1  0.0000000  0.6508444  3
    437    434    443    447     1  0.0000000  0.6508444  3
    438    437    440    446     1  0.0000000  1.0460000  1
    438    437    440    446     1  0.0000000  0.0000000  3
    438    437    440    441     1  0.0000000  0.6508444  3
    438    437    440    442     1  0.0000000  0.6508444  3
    438    437    434    443     1  0.0000000  0.6508444  3
    439    437    440    446     1  0.0000000  1.0460000  1
    439    437    440    446     1  0.0000000  0.0000000  3
    439    437    440    441     1  0.0000000  0.6508444  3
    439    437    440    442     1  0.0000000  0.6508444  3
    439    437    434    443     1  0.0000000  0.6508444  3
    448    451    454    455     1  0.0000000  0.6508444  3
    448    451    454    456     1  0.0000000  0.6508444  3
    449    448    451    454     1  0.0000000  0.6508444  3
    449    448    451    452     1  0.0000000  0.6508444  3
    449    448    451    453     1  0.0000000  0.6508444  3
    449    448    457    458     1  0.0000000  0.6508444  3
    449    448    457    459     1  0.0000000  0.6508444  3
    449    448    457    461     1  0.0000000  0.6508444  3
    450    448    451    454     1  0.0000000  0.6508444  3
    450    448    451    452     1  0.0000000  0.6508444  3
    450    448    451    453     1  0.0000000  0.6508444  3
    450    448    457    458     1  0.0000000  0.6508444  3
    450    448    457    459     1  0.0000000  0.6508444  3
    450    448    457    461     1  0.0000000  0.6508444  3
    451    448    457    458     1  0.0000000  0.6508444  3
    451    448    457    459     1  0.0000000  0.6508444  3
    451    448    457    461     1  0.0000000  0.6508444  3
    452    451    448    457     1  0.0000000  0.6508444  3
    452    451    454    460     1  0.0000000  1.0460000  1
    452    451    454    460     1  0.0000000  0.0000000  3
    452    451    454    455     1  0.0000000  0.6508444  3
    452    451    454    456     1  0.0000000  0.6508444  3
    453    451    448    457     1  0.0000000  0.6508444  3
    453    451    454    460     1  0.0000000  1.0460000  1
    453    451    454    460     1  0.0000000  0.0000000  3
    453    451    454    455     1  0.0000000  0.6508444  3
    453    451    454    456     1  0.0000000  0.6508444  3
    462    465    468    469     1  0.0000000  0.6508444  3
    462    465    468    470     1  0.0000000  0.6508444  3
    463    462    465    468     1  0.0000000  0.6508444  3
    463    462    465    466     1  0.0000000  0.6508444  3
    463    462    465    467     1  0.0000000  0.6508444  3
    463    462    471    472     1  0.0000000  0.6508444  3
    463    462    471    473     1  0.0000000  0.6508444  3
    463    462    471    475     1  0.0000000  0.6508444  3
    464    462    465    468     1  0.0000000  0.6508444  3
    464    462    465    466     1  0.0000000  0.6508444  3
    464    462    465    467     1  0.0000000  0.6508444  3
    464    462    471    472     1  0.0000000  0.6508444  3
    464    462    471    473     1  0.0000000  0.6508444  3
    464    462    471    475     1  0.0000000  0.6508444  3
    465    462    471    472     1  0.0000000  0.6508444  3
    465    462    471    473     1  0.0000000  0.6508444  3
    465    462    471    475     1  0.0000000  0.6508444  3
    466    465    468    474     1  0.0000000  1.0460000  1
    466    465    468    474     1  0.0000000  0.0000000  3
    466    465    468    469     1  0.0000000  0.6508444  3
    466    465    468    470     1  0.0000000  0.6508444  3
    466    465    462    471     1  0.0000000  0.6508444  3
    467    465    468    474     1  0.0000000  1.0460000  1
    467    465    468    474     1  0.0000000  0.0000000  3
    467    465    468    469     1  0.0000000  0.6508444  3
    467    465    468    470     1  0.0000000  0.6508444  3
    467    465    462    471     1  0.0000000  0.6508444  3
    476    479    482    483     1  0.0000000  0.6508444  3
    476    479    482    484     1  0.0000000  0.6508444  3
    477    476    479    482     1  0.0000000  0.6508444  3
    477    476    479    480     1  0.0000000  0.6508444  3
    477    476    479    481     1  0.0000000  0.6508444  3
    477    476    485    486     1  0.0000000  0.6508444  3
    477    476    485    487     1  0.0000000  0.6508444  3
    477    476    485    489     1  0.0000000  0.6508444  3
    478    476    479    482     1  0.0000000  0.6508444  3
    478    476    479    480     1  0.0000000  0.6508444  3
    478    476    479    481     1  0.0000000  0.6508444  3
    478    476    485    486     1  0.0000000  0.6508444  3
    478    476    485    487     1  0.0000000  0.6508444  3
    478    476    485    489     1  0.0000000  0.6508444  3
    479    476    485    486     1  0.0000000  0.6508444  3
    479    476    485    487     1  0.0000000  0.6508444  3
    479    476    485    489     1  0.0000000  0.6508444  3
    480    479    476    485     1  0.0000000  0.6508444  3
    480    479    482    488     1  0.0000000  1.0460000  1
    480    479    482    488     1  0.0000000  0.0000000  3
    480    479    482    483     1  0.0000000  0.6508444  3
    480    479    482    484     1  0.0000000  0.6508444  3
    481    479    476    485     1  0.0000000  0.6508444  3
    481    479    482    488     1  0.0000000  1.0460000  1
    481    479    482    488     1  0.0000000  0.0000000  3
    481    479    482    483     1  0.0000000  0.6508444  3
    481    479    482    484     1  0.0000000  0.6508444  3
    490    493    496    497     1  0.0000000  0.6508444  3
    490    493    496    498     1  0.0000000  0.6508444  3
    491    490    493    496     1  0.0000000  0.6508444  3
    491    490    493    494     1  0.0000000  0.6508444  3
    491    490    493    495     1  0.0000000  0.6508444  3
    491    490    499    500     1  0.0000000  0.6508444  3
    491    490    499    501     1  0.0000000  0.6508444  3
    491    490    499    503     1  0.0000000  0.6508444  3
    492    490    493    496     1  0.0000000  0.6508444  3
    492    490    493    494     1  0.0000000  0.6508444  3
    492    490    493    495     1  0.0000000  0.6508444  3
    492    490    499    500     1  0.0000000  0.6508444  3
    492    490    499    501     1  0.0000000  0.6508444  3
    492    490    499    503     1  0.0000000  0.6508444  3
    493    490    499    500     1  0.0000000  0.6508444  3
    493    490    499    501     1  0.0000000  0.6508444  3
    493    490    499    503     1  0.0000000  0.6508444  3
    494    493    496    502     1  0.0000000  1.0460000  1
    494    493    496    502     1  0.0000000  0.0000000  3
    494    493    496    497     1  0.0000000  0.6508444  3
    494    493    496    498     1  0.0000000  0.6508444  3
    494    493    490    499     1  0.0000000  0.6508444  3
    495    493    496    502     1  0.0000000  1.0460000  1
    495    493    496    502     1  0.0000000  0.0000000  3
    495    493    496    497     1  0.0000000  0.6508444  3
    495    493    496    498     1  0.0000000  0.6508444  3
    495    493    490    499     1  0.0000000  0.6508444  3
    504    507    510    511     1  0.0000000  0.6508444  3
    504    507    510    512     1  0.0000000  0.6508444  3
    505    504    507    510     1  0.0000000  0.6508444  3
    505    504    507    508     1  0.0000000  0.6508444  3
    505    504    507    509     1  0.0000000  0.6508444  3
    505    504    513    514     1  0.0000000  0.6508444  3
    505    504    513    515     1  0.0000000  0.6508444  3
    505    504    513    517     1  0.0000000  0.6508444  3
    506    504    507    510     1  0.0000000  0.6508444  3
    506    504    507    508     1  0.0000000  0.6508444  3
    506    504    507    509     1  0.0000000  0.6508444  3
    506    504    513    514     1  0.0000000  0.6508444  3
    506    504    513    515     1  0.0000000  0.6508444  3
    506    504    513    517     1  0.0000000  0.6508444  3
    507    504    513    514     1  0.0000000  0.6508444  3
    507    504    513    515     1  0.0000000  0.6508444  3
    507    504    513    517     1  0.0000000  0.6508444  3
    508    507    504    513     1  0.0000000  0.6508444  3
    508    507    510    516     1  0.0000000  1.0460000  1
    508    507    510    516     1  0.0000000  0.0000000  3
    508    507    510    511     1  0.0000000  0.6508444  3
    508    507    510    512     1  0.0000000  0.6508444  3
    509    507    504    513     1  0.0000000  0.6508444  3
    509    507    510    516     1  0.0000000  1.0460000  1
    509    507    510    516     1  0.0000000  0.0000000  3
    509    507    510    511     1  0.0000000  0.6508444  3
    509    507    510    512     1  0.0000000  0.6508444  3
    518    521    524    525     1  0.0000000  0.6508444  3
    518    521    524    526     1  0.0000000  0.6508444  3
    519    518    521    524     1  0.0000000  0.6508444  3
    519    518    521    522     1  0.0000000  0.6508444  3
    519    518    521    523     1  0.0000000  0.6508444  3
    519    518    527    528     1  0.0000000  0.6508444  3
    519    518    527    529     1  0.0000000  0.6508444  3
    519    518    527    531     1  0.0000000  0.6508444  3
    520    518    521    524     1  0.0000000  0.6508444  3
    520    518    521    522     1  0.0000000  0.6508444  3
    520    518    521    523     1  0.0000000  0.6508444  3
    520    518    527    528     1  0.0000000  0.6508444  3
    520    518    527    529     1  0.0000000  0.6508444  3
    520    518    527    531     1  0.0000000  0.6508444  3
    521    518    527    528     1  0.0000000  0.6508444  3
    521    518    527    529     1  0.0000000  0.6508444  3
    521    518    527    531     1  0.0000000  0.6508444  3
    522    521    524    530     1  0.0000000  1.0460000  1
    522    521    524    530     1  0.0000000  0.0000000  3
    522    521    524    525     1  0.0000000  0.6508444  3
    522    521    524    526     1  0.0000000  0.6508444  3
    522    521    518    527     1  0.0000000  0.6508444  3
    523    521    524    530     1  0.0000000  1.0460000  1
    523    521    524    530     1  0.0000000  0.0000000  3
    523    521    524    525     1  0.0000000  0.6508444  3
    523    521    524    526     1  0.0000000  0.6508444  3
    523    521    518    527     1  0.0000000  0.6508444  3
    532    535    538    539     1  0.0000000  0.6508444  3
    532    535    538    540     1  0.0000000  0.6508444  3
    533    532    535    538     1  0.0000000  0.6508444  3
    533    532    535    536     1  0.0000000  0.6508444  3
    533    532    535    537     1  0.0000000  0.6508444  3
    533    532    541    542     1  0.0000000  0.6508444  3
    533    532    541    543     1  0.0000000  0.6508444  3
    533    532    541    545     1  0.0000000  0.6508444  3
    534    532    535    538     1  0.0000000  0.6508444  3
    534    532    535    536     1  0.0000000  0.6508444  3
    534    532    535    537     1  0.0000000  0.6508444  3
    534    532    541    542     1  0.0000000  0.6508444  3
    534    532    541    543     1  0.0000000  0.6508444  3
    534    532    541    545     1  0.0000000  0.6508444  3
    535    532    541    542     1  0.0000000  0.6508444  3
    535    532    541    543     1  0.0000000  0.6508444  3
    535    532    541    545     1  0.0000000  0.6508444  3
    536    535    532    541     1  0.0000000  0.6508444  3
    536    535    538    544     1  0.0000000  1.0460000  1
    536    535    538    544     1  0.0000000  0.0000000  3
    536    535    538    539     1  0.0000000  0.6508444  3
    536    535    538    540     1  0.0000000  0.6508444  3
    537    535    532    541     1  0.0000000  0.6508444  3
    537    535    538    544     1  0.0000000  1.0460000  1
    537    535    538    544     1  0.0000000  0.0000000  3
    537    535    538    539     1  0.0000000  0.6508444  3
    537    535    538    540     1  0.0000000  0.6508444  3
    546    549    552    553     1  0.0000000  0.6508444  3
    546    549    552    554     1  0.0000000  0.6508444  3
    547    546    549    552     1  0.0000000  0.6508444  3
    547    546    549    550     1  0.0000000  0.6508444  3
    547    546    549    551     1  0.0000000  0.6508444  3
    547    546    555    556     1  0.0000000  0.6508444  3
    547    546    555    557     1  0.0000000  0.6508444  3
    547    546    555    559     1  0.0000000  0.6508444  3
    548    546    549    552     1  0.0000000  0.6508444  3
    548    546    549    550     1  0.0000000  0.6508444  3
    548    546    549    551     1  0.0000000  0.6508444  3
    548    546    555    556     1  0.0000000  0.6508444  3
    548    546    555    557     1  0.0000000  0.6508444  3
    548    546    555    559     1  0.0000000  0.6508444  3
    549    546    555    556     1  0.0000000  0.6508444  3
    549    546    555    557     1  0.0000000  0.6508444  3
    549    546    555    559     1  0.0000000  0.6508444  3
    550    549    552    558     1  0.0000000  1.0460000  1
    550    549    552    558     1  0.0000000  0.0000000  3
    550    549    552    553     1  0.0000000  0.6508444  3
    550    549    552    554     1  0.0000000  0.6508444  3
    550    549    546    555     1  0.0000000  0.6508444  3
    551    549    552    558     1  0.0000000  1.0460000  1
    551    549    552    558     1  0.0000000  0.0000000  3
    551    549    552    553     1  0.0000000  0.6508444  3
    551    549    552    554     1  0.0000000  0.6508444  3
    551    549    546    555     1  0.0000000  0.6508444  3
    560    563    566    567     1  0.0000000  0.6508444  3
    560    563    566    568     1  0.0000000  0.6508444  3
    561    560    563    566     1  0.0000000  0.6508444  3
    561    560    563    564     1  0.0000000  0.6508444  3
    561    560    563    565     1  0.0000000  0.6508444  3
    561    560    569    570     1  0.0000000  0.6508444  3
    561    560    569    571     1  0.0000000  0.6508444  3
    561    560    569    573     1  0.0000000  0.6508444  3
    562    560    563    566     1  0.0000000  0.6508444  3
    562    560    563    564     1  0.0000000  0.6508444  3
    562    560    563    565     1  0.0000000  0.6508444  3
    562    560    569    570     1  0.0000000  0.6508444  3
    562    560    569    571     1  0.0000000  0.6508444  3
    562    560    569    573     1  0.0000000  0.6508444  3
    563    560    569    570     1  0.0000000  0.6508444  3
    563    560    569    571     1  0.0000000  0.6508444  3
    563    560    569    573     1  0.0000000  0.6508444  3
    564    563    560    569     1  0.0000000  0.6508444  3
    564    563    566    572     1  0.0000000  1.0460000  1
    564    563    566    572     1  0.0000000  0.0000000  3
    564    563    566    567     1  0.0000000  0.6508444  3
    564    563    566    568     1  0.0000000  0.6508444  3
    565    563    560    569     1  0.0000000  0.6508444  3
    565    563    566    572     1  0.0000000  1.0460000  1
    565    563    566    572     1  0.0000000  0.0000000  3
    565    563    566    567     1  0.0000000  0.6508444  3
    565    563    566    568     1  0.0000000  0.6508444  3
    574    577    580    581     1  0.0000000  0.6508444  3
    574    577    580    582     1  0.0000000  0.6508444  3
    575    574    577    580     1  0.0000000  0.6508444  3
    575    574    577    578     1  0.0000000  0.6508444  3
    575    574    577    579     1  0.0000000  0.6508444  3
    575    574    583    584     1  0.0000000  0.6508444  3
    575    574    583    585     1  0.0000000  0.6508444  3
    575    574    583    587     1  0.0000000  0.6508444  3
    576    574    577    580     1  0.0000000  0.6508444  3
    576    574    577    578     1  0.0000000  0.6508444  3
    576    574    577    579     1  0.0000000  0.6508444  3
    576    574    583    584     1  0.0000000  0.6508444  3
    576    574    583    585     1  0.0000000  0.6508444  3
    576    574    583    587     1  0.0000000  0.6508444  3
    577    574    583    584     1  0.0000000  0.6508444  3
    577    574    583    585     1  0.0000000  0.6508444  3
    577    574    583    587     1  0.0000000  0.6508444  3
    578    577    580    586     1  0.0000000  1.0460000  1
    578    577    580    586     1  0.0000000  0.0000000  3
    578    577    580    581     1  0.0000000  0.6508444  3
    578    577    580    582     1  0.0000000  0.6508444  3
    578    577    574    583     1  0.0000000  0.6508444  3
    579    577    580    586     1  0.0000000  1.0460000  1
    579    577    580    586     1  0.0000000  0.0000000  3
    579    577    580    581     1  0.0000000  0.6508444  3
    579    577    580    582     1  0.0000000  0.6508444  3
    579    577    574    583     1  0.0000000  0.6508444  3
    588    591    594    595     1  0.0000000  0.6508444  3
    588    591    594    596     1  0.0000000  0.6508444  3
    589    588    591    594     1  0.0000000  0.6508444  3
    589    588    591    592     1  0.0000000  0.6508444  3
    589    588    591    593     1  0.0000000  0.6508444  3
    589    588    597    598     1  0.0000000  0.6508444  3
    589    588    597    599     1  0.0000000  0.6508444  3
    589    588    597    601     1  0.0000000  0.6508444  3
    590    588    591    594     1  0.0000000  0.6508444  3
    590    588    591    592     1  0.0000000  0.6508444  3
    590    588    591    593     1  0.0000000  0.6508444  3
    590    588    597    598     1  0.0000000  0.6508444  3
    590    588    597    599     1  0.0000000  0.6508444  3
    590    588    597    601     1  0.0000000  0.6508444  3
    591    588    597    598     1  0.0000000  0.6508444  3
    591    588    597    599     1  0.0000000  0.6508444  3
    591    588    597    601     1  0.0000000  0.6508444  3
    592    591    588    597     1  0.0000000  0.6508444  3
    592    591    594    600     1  0.0000000  1.0460000  1
    592    591    594    600     1  0.0000000  0.0000000  3
    592    591    594    595     1  0.0000000  0.6508444  3
    592    591    594    596     1  0.0000000  0.6508444  3
    593    591    588    597     1  0.0000000  0.6508444  3
    593    591    594    600     1  0.0000000  1.0460000  1
    593    591    594    600     1  0.0000000  0.0000000  3
    593    591    594    595     1  0.0000000  0.6508444  3
    593    591    594    596     1  0.0000000  0.6508444  3
    602    605    608    609     1  0.0000000  0.6508444  3
    602    605    608    610     1  0.0000000  0.6508444  3
    603    602    605    608     1  0.0000000  0.6508444  3
    603    602    605    606     1  0.0000000  0.6508444  3
    603    602    605    607     1  0.0000000  0.6508444  3
    603    602    611    612     1  0.0000000  0.6508444  3
    603    602    611    613     1  0.0000000  0.6508444  3
    603    602    611    615     1  0.0000000  0.6508444  3
    604    602    605    608     1  0.0000000  0.6508444  3
    604    602    605    606     1  0.0000000  0.6508444  3
    604    602    605    607     1  0.0000000  0.6508444  3
    604    602    611    612     1  0.0000000  0.6508444  3
    604    602    611    613     1  0.0000000  0.6508444  3
    604    602    611    615     1  0.0000000  0.6508444  3
    605    602    611    612     1  0.0000000  0.6508444  3
    605    602    611    613     1  0.0000000  0.6508444  3
    605    602    611    615     1  0.0000000  0.6508444  3
    606    605    608    614     1  0.0000000  1.0460000  1
    606    605    608    614     1  0.0000000  0.0000000  3
    606    605    608    609     1  0.0000000  0.6508444  3
    606    605    608    610     1  0.0000000  0.6508444  3
    606    605    602    611     1  0.0000000  0.6508444  3
    607    605    608    614     1  0.0000000  1.0460000  1
    607    605    608    614     1  0.0000000  0.0000000  3
    607    605    608    609     1  0.0000000  0.6508444  3
    607    605    608    610     1  0.0000000  0.6508444  3
    607    605    602    611     1  0.0000000  0.6508444  3
    616    619    622    623     1  0.0000000  0.6508444  3
    616    619    622    624     1  0.0000000  0.6508444  3
    617    616    619    622     1  0.0000000  0.6508444  3
    617    616    619    620     1  0.0000000  0.6508444  3
    617    616    619    621     1  0.0000000  0.6508444  3
    617    616    625    626     1  0.0000000  0.6508444  3
    617    616    625    627     1  0.0000000  0.6508444  3
    617    616    625    629     1  0.0000000  0.6508444  3
    618    616    619    622     1  0.0000000  0.6508444  3
    618    616    619    620     1  0.0000000  0.6508444  3
    618    616    619    621     1  0.0000000  0.6508444  3
    618    616    625    626     1  0.0000000  0.6508444  3
    618    616    625    627     1  0.0000000  0.6508444  3
    618    616    625    629     1  0.0000000  0.6508444  3
    619    616    625    626     1  0.0000000  0.6508444  3
    619    616    625    627     1  0.0000000  0.6508444  3
    619    616    625    629     1  0.0000000  0.6508444  3
    620    619    616    625     1  0.0000000  0.6508444  3
    620    619    622    628     1  0.0000000  1.0460000  1
    620    619    622    628     1  0.0000000  0.0000000  3
    620    619    622    623     1  0.0000000  0.6508444  3
    620    619    622    624     1  0.0000000  0.6508444  3
    621    619    616    625     1  0.0000000  0.6508444  3
    621    619    622    628     1  0.0000000  1.0460000  1
    621    619    622    628     1  0.0000000  0.0000000  3
    621    619    622    623     1  0.0000000  0.6508444  3
    621    619    622    624     1  0.0000000  0.6508444  3
    630    633    636    637     1  0.0000000  0.6508444  3
    630    633    636    638     1  0.0000000  0.6508444  3
    631    630    633    636     1  0.0000000  0.6508444  3
    631    630    633    634     1  0.0000000  0.6508444  3
    631    630    633    635     1  0.0000000  0.6508444  3
    631    630    639    640     1  0.0000000  0.6508444  3
    631    630    639    641     1  0.0000000  0.6508444  3
    631    630    639    643     1  0.0000000  0.6508444  3
    632    630    633    636     1  0.0000000  0.6508444  3
    632    630    633    634     1  0.0000000  0.6508444  3
    632    630    633    635     1  0.0000000  0.6508444  3
    632    630    639    640     1  0.0000000  0.6508444  3
    632    630    639    641     1  0.0000000  0.6508444  3
    632    630    639    643     1  0.0000000  0.6508444  3
    633    630    639    640     1  0.0000000  0.6508444  3
    633    630    639    641     1  0.0000000  0.6508444  3
    633    630    639    643     1  0.0000000  0.6508444  3
    634    633    636    642     1  0.0000000  1.0460000  1
    634    633    636    642     1  0.0000000  0.0000000  3
    634    633    636    637     1  0.0000000  0.6508444  3
    634    633    636    638     1  0.0000000  0.6508444  3
    634    633    630    639     1  0.0000000  0.6508444  3
    635    633    636    642     1  0.0000000  1.0460000  1
    635    633    636    642     1  0.0000000  0.0000000  3
    635    633    636    637     1  0.0000000  0.6508444  3
    635    633    636    638     1  0.0000000  0.6508444  3
    635    633    630    639     1  0.0000000  0.6508444  3

;[ system ]
;; Name
;Generic title
;
;[ molecules ]
;; Compound       #mols
;system1              1
